
                                 *****************
                                 * O   R   C   A *
                                 *****************

                                            #,                                       
                                            ###                                      
                                            ####                                     
                                            #####                                    
                                            ######                                   
                                           ########,                                 
                                     ,,################,,,,,                         
                               ,,#################################,,                 
                          ,,##########################################,,             
                       ,#########################################, ''#####,          
                    ,#############################################,,   '####,        
                  ,##################################################,,,,####,       
                ,###########''''           ''''###############################       
              ,#####''   ,,,,##########,,,,          '''####'''          '####       
            ,##' ,,,,###########################,,,                        '##       
           ' ,,###''''                  '''############,,,                           
         ,,##''                                '''############,,,,        ,,,,,,###''
      ,#''                                            '''#######################'''  
     '                                                          ''''####''''         
             ,#######,   #######,   ,#######,      ##                                
            ,#'     '#,  ##    ##  ,#'     '#,    #''#        ,####,   ,####,        
            ##       ##  ##   ,#'  ##            #'  '#       #'       #'  '#        
            ##       ##  #######   ##           ,######,      #####,   #    #        
            '#,     ,#'  ##    ##  '#,     ,#' ,#      #,     #,   #   #,  ,#        
             '#######'   ##     ##  '#######'  #'      '#     '####' # '####'        



                #########################################################
                #                        -***-                          #
                #          Department of theory and spectroscopy        #
                #                                                       #
                #                      Frank Neese                      #
                #                                                       #
                #     Directorship, Architecture, Infrastructure        #
                #                    SHARK, DRIVERS                     #
                #        Core code/Algorithms in most modules           #
                #                                                       #
                #        Max Planck Institute fuer Kohlenforschung      #
                #                Kaiser Wilhelm Platz 1                 #
                #                 D-45470 Muelheim/Ruhr                 #
                #                      Germany                          #
                #                                                       #
                #                  All rights reserved                  #
                #                        -***-                          #
                #########################################################


                         Program Version 6.0.0  -   RELEASE   -


 With contributions from (in alphabetic order):
   Daniel Aravena         : Magnetic Suceptibility
   Michael Atanasov       : Ab Initio Ligand Field Theory (pilot matlab implementation)
   Alexander A. Auer      : GIAO ZORA, VPT2 properties, NMR spectrum
   Ute Becker             : All parallelization in ORCA, NUMFREQ, NUMCALC
   Giovanni Bistoni       : ED, misc. LED, open-shell LED, HFLD
   Martin Brehm           : Molecular dynamics
   Dmytro Bykov           : pre 5.0 version of the SCF Hessian
   Marcos Casanova-Páez   : Triplet and SCS-CIS(D). UHF-(DLPNO)-IP/EA/STEOM-CCSD. UHF-CVS-IP/STEOM-CCSD
   Vijay G. Chilkuri      : MRCI spin determinant printing, contributions to CSF-ICE
   Pauline Colinet        : FMM embedding
   Dipayan Datta          : RHF DLPNO-CCSD density
   Achintya Kumar Dutta   : EOM-CC, STEOM-CC
   Nicolas Foglia         : Exact transition moments, OPA infrastructure, MCD improvements
   Dmitry Ganyushin       : Spin-Orbit,Spin-Spin,Magnetic field MRCI
   Miquel Garcia          : C-PCM and meta-GGA Hessian, CCSD/C-PCM, Gaussian charge scheme
   Tiago L. C. Gouveia    : GS-ROHF, GS-ROCIS
   Yang Guo               : DLPNO-NEVPT2, F12-NEVPT2, CIM, IAO-localization
   Andreas Hansen         : Spin unrestricted coupled pair/coupled cluster methods
   Ingolf Harden          : AUTO-CI MPn and infrastructure 
   Benjamin Helmich-Paris : MC-RPA, TRAH-(SCF,CASSCF), AVAS, COSX integrals, SCF dyn. polar.
   Lee Huntington         : MR-EOM, pCC
   Robert Izsak           : Overlap fitted RIJCOSX, COSX-SCS-MP3, EOM
   Riya Kayal             : Wick's Theorem for AUTO-CI, AUTO-CI UHF-CCSDT
   Emily Kempfer          : AUTO-CI, RHF CISDT and CCSDT
   Christian Kollmar      : KDIIS, OOCD, Brueckner-CCSD(T), CCSD density, CASPT2, CASPT2-K, improved NEVPT2
   Axel Koslowski         : Symmetry handling
   Simone Kossmann        : Meta GGA functionals, TD-DFT gradient, OOMP2, (MP2 Hessian; deprecated post 5.0)
   Lucas Lang             : DCDCAS
   Marvin Lechner         : AUTO-CI (C++ implementation), FIC-MRCC
   Spencer Leger          : CASSCF response
   Dagmar Lenk            : GEPOL surface, SMD, ORCA-2-JSON
   Dimitrios Liakos       : Extrapolation schemes; Compound Job, initial MDCI parallelization
   Dimitrios Manganas     : Further ROCIS development; embedding schemes. LFT, Crystal Embedding
   Dimitrios Pantazis     : SARC Basis sets
   Anastasios Papadopoulos: AUTO-CI, single reference methods and gradients
   Taras Petrenko         : pre 6.0 DFT Hessian and TD-DFT gradient, (ASA, deprecated), ECA, 1-Electron XAS/XES, NRVS
   Peter Pinski           : DLPNO-MP2, DLPNO-MP2 Gradient
   Christoph Reimann      : Effective Core Potentials
   Marius Retegan         : Local ZFS, SOC
   Christoph Riplinger    : Optimizer, TS searches, QM/MM, DLPNO-CCSD(T), (RO)-DLPNO pert. Triples
   Michael Roemelt        : Original ROCIS implementation
   Masaaki Saitow         : Open-shell DLPNO-CCSD energy and density
   Barbara Sandhoefer     : DKH picture change effects
   Kantharuban Sivalingam : CASSCF convergence/infrastructure, NEVPT2 and variants, FIC-MRCI
   Bernardo de Souza      : ESD, SOC TD-DFT
   Georgi Stoychev        : AutoAux, RI-MP2 NMR, DLPNO-MP2 response, X2C
   Van Anh Tran           : RI-MP2 g-tensors
   Willem Van den Heuvel  : Paramagnetic NMR
   Zikuan Wang            : NOTCH, Electric field optimization 
   Frank Wennmohs         : Technical directorship and infrastructure
   Hang Xu                : AUTO-CI-Response properties 


 We gratefully acknowledge several colleagues who have allowed us to
 interface, adapt or use parts of their codes:
   Stefan Grimme, W. Hujo, H. Kruse, P. Pracht,  : VdW corrections, initial TS optimization,
                  C. Bannwarth, S. Ehlert,         DFT functionals, gCP, sTDA/sTD-DF
                  L. Wittmann, M. Mueller
   Ed Valeev, F. Pavosevic, A. Kumar             : LibInt (2-el integral package), F12 methods
   Garnet Chan, S. Sharma, J. Yang, R. Olivares  : DMRG
   Ulf Ekstrom                                   : XCFun DFT Library
   Mihaly Kallay                                 : mrcc  (arbitrary order and MRCC methods)
   Frank Weinhold                                : gennbo (NPA and NBO analysis)
   Simon Mueller                                 : openCOSMO-RS
   Christopher J. Cramer and Donald G. Truhlar   : smd solvation model
   Lars Goerigk                                  : TD-DFT with DH, B97 family of functionals
   V. Asgeirsson, H. Jonsson                     : NEB implementation
   FAccTs GmbH                                   : IRC, NEB, NEB-TS, DLPNO-Multilevel, CI-OPT
                                                   MM, QMMM, 2- and 3-layer-ONIOM, Crystal-QMMM,
                                                   LR-CPCM, SF, NACMEs, symmetry and pop. for TD-DFT,
                                                   nearIR, NL-DFT gradient (VV10), updates on ESD,
                                                   ML-optimized integration grids, MBIS, APM,
                                                   GOAT, DOCKER, SOLVATOR, interface openCOSMO-RS
   S Lehtola, MJT Oliveira, MAL Marques          : LibXC Library
   Liviu Ungur et al                             : ANISO software


 Your calculation uses the libint2 library for the computation of 2-el integrals
 For citations please refer to: http://libint.valeyev.net

 Your ORCA version has been built with support for libXC version: 6.2.2
 For citations please refer to: https://libxc.gitlab.io

 This ORCA versions uses:
   CBLAS   interface :  Fast vector & matrix operations
   LAPACKE interface :  Fast linear algebra routines
   Shared memory     :  Shared parallel matrices


Your calculation utilizes the atom-pairwise dispersion correction
with the Becke-Johnson damping scheme (D3BJ)


Warning: RI is on but no J-basis has been assigned. Assigning Def2/J (nothing to worry about!)
================================================================================

----- Orbital basis set information -----
Your calculation utilizes the basis: def2-SVP
   F. Weigend and R. Ahlrichs, Phys. Chem. Chem. Phys. 7, 3297 (2005).

----- AuxJ basis set information -----
Your calculation utilizes the auxiliary basis: def2/J
   F. Weigend, Phys. Chem. Chem. Phys. 8, 1057 (2006).

================================================================================
                                        WARNINGS
                       Please study these warnings very carefully!
================================================================================


WARNING: Geometry Optimization
  ===> : Switching off AutoStart
         For restart on a previous wavefunction, please use MOREAD

================================================================================
                                       INPUT FILE
================================================================================
NAME = data/geom_opt_P_BP86/87708/87708.inp
|  1> ! RI BP86 def2-SVP D3BJ TIGHTSCF Opt
|  2> %pal
|  3> nprocs 6
|  4> end
|  5> 
|  6> * xyz 0 1
|  7> C      3.054847   -2.011051    3.202529
|  8> C      2.376511   -1.747678    1.870531
|  9> O      2.510350   -0.363107    1.567473
| 10> Si     1.910881    0.194469    0.111630
| 11> C      0.023695    0.004218    0.040325
| 12> C     -0.726216    0.610434    1.225227
| 13> P     -2.566003    0.526060    1.181937
| 14> C     -2.876405   -1.228397    0.816214
| 15> C     -2.856534   -1.769853   -0.476649
| 16> C     -3.089940   -3.132499   -0.689562
| 17> C     -3.344159   -3.976705    0.387485
| 18> C     -3.366762   -3.458456    1.678191
| 19> C     -3.133618   -2.095727    1.889708
| 20> C     -3.104283    1.439993   -0.294192
| 21> C     -4.385902    1.208554   -0.822842
| 22> C     -4.856896    1.921476   -1.932041
| 23> C     -4.058399    2.895762   -2.522639
| 24> C     -2.795905    3.159684   -2.000531
| 25> C     -2.326745    2.442498   -0.892852
| 26> O      2.613601   -0.703382   -1.109455
| 27> C      3.999123   -0.515175   -1.377368
| 28> C      4.406062   -1.483146   -2.474416
| 29> O      2.376924    1.781011   -0.099217
| 30> C      2.460161    2.660481    1.013268
| 31> C      3.175989    3.923779    0.560510
| 32> H      4.116082   -1.741406    3.155512
| 33> H      2.969529   -3.064979    3.479067
| 34> H      2.603816   -1.402223    3.992520
| 35> H      1.316716   -2.022613    1.945789
| 36> H      2.852753   -2.363050    1.098418
| 37> H     -0.165818   -1.073936   -0.012877
| 38> H     -0.314203    0.431705   -0.909918
| 39> H     -0.407301    0.105763    2.147713
| 40> H     -0.450110    1.662003    1.358511
| 41> H     -2.647269   -1.139895   -1.340522
| 42> H     -3.067123   -3.531400   -1.700113
| 43> H     -3.526066   -5.034957    0.222042
| 44> H     -3.567483   -4.112764    2.525626
| 45> H     -3.158181   -1.717410    2.911079
| 46> H     -5.042509    0.464888   -0.371527
| 47> H     -5.847412    1.716378   -2.326042
| 48> H     -4.421858    3.456057   -3.379660
| 49> H     -2.169857    3.926745   -2.451270
| 50> H     -1.338859    2.694458   -0.510147
| 51> H      4.598322   -0.717418   -0.479462
| 52> H      4.189405    0.512107   -1.715692
| 53> H      4.198140   -2.516928   -2.176036
| 54> H      5.473799   -1.386341   -2.701222
| 55> H      3.830645   -1.290654   -3.387959
| 56> H      1.453726    2.927286    1.359585
| 57> H      3.018117    2.211459    1.845065
| 58> H      2.643785    4.397749   -0.273424
| 59> H      4.183122    3.684132    0.202924
| 60> H      3.255715    4.642001    1.381167
| 61> **                         ****END OF INPUT****
================================================================================

                       *****************************
                       * Geometry Optimization Run *
                       *****************************

Geometry optimization settings:
Update method            Update   .... BFGS
Choice of coordinates    CoordSys .... (2022) Redundant Internals
Initial Hessian          InHess   .... Almloef's Model
Max. no of cycles        MaxIter  .... 162

Convergence Tolerances:
Energy Change            TolE     ....  5.0000e-06 Eh
Max. Gradient            TolMAXG  ....  3.0000e-04 Eh/bohr
RMS Gradient             TolRMSG  ....  1.0000e-04 Eh/bohr
Max. Displacement        TolMAXD  ....  4.0000e-03 bohr
RMS Displacement         TolRMSD  ....  2.0000e-03 bohr
Strict Convergence                .... False

------------------------------------------------------------------------------
                        ORCA OPTIMIZATION COORDINATE SETUP
------------------------------------------------------------------------------

The optimization will be done in redundant internal coordinates (2022)
Making redundant internal coordinates   ...  (2022 redundants) done
Evaluating the initial hessian          ...  (Almloef) done
Evaluating the coordinates              ...  done
Calculating the B-matrix                .... done
Calculating the G-matrix                .... done
Diagonalizing the G-matrix              .... done
Small eigenvalue found = 1.800e-03
Small eigenvalue found = 2.112e-03
Small eigenvalue found = 2.710e-03
Small eigenvalue found = 3.890e-03
Small eigenvalue found = 5.574e-03
Small eigenvalue found = 7.575e-03
Small eigenvalue found = 9.259e-03
Small eigenvalue found = 1.204e-02
Small eigenvalue found = 1.691e-02
Small eigenvalue found = 2.827e-02
The first mode is                       ....  104
The number of degrees of freedom        ....  156

    -----------------------------------------------------------------
                    Redundant Internal Coordinates


    -----------------------------------------------------------------
         Definition                    Initial Value    Approx d2E/dq
    -----------------------------------------------------------------
      1. B(C   1,C   0)                  1.5178         0.390695   
      2. B(O   2,C   1)                  1.4237         0.494517   
      3. B(Si  3,O   2)                  1.6702         0.868820   
      4. B(C   4,Si  3)                  1.8981         0.420035   
      5. B(C   5,C   4)                  1.5277         0.376749   
      6. B(P   6,C   5)                  1.8422         0.398776   
      7. B(C   7,P   6)                  1.8189         0.434537   
      8. B(C   8,C   7)                  1.4018         0.598274   
      9. B(C   9,C   8)                  1.3988         0.604943   
     10. B(C  10,C   9)                  1.3919         0.620487   
     11. B(C  11,C  10)                  1.3910         0.622395   
     12. B(C  12,C  11)                  1.3986         0.605331   
     13. B(C  12,C   7)                  1.4039         0.593791   
     14. B(C  13,P   6)                  1.8177         0.436405   
     15. B(C  14,C  13)                  1.4056         0.590097   
     16. B(C  15,C  14)                  1.4001         0.601932   
     17. B(C  16,C  15)                  1.3913         0.621885   
     18. B(C  17,C  16)                  1.3915         0.621469   
     19. B(C  18,C  17)                  1.4005         0.601140   
     20. B(C  18,C  13)                  1.4028         0.595997   
     21. B(O  19,Si  3)                  1.6706         0.867610   
     22. B(C  20,O  19)                  1.4237         0.494468   
     23. B(C  21,C  20)                  1.5186         0.389582   
     24. B(O  22,Si  3)                  1.6670         0.879371   
     25. B(C  23,O  22)                  1.4206         0.500153   
     26. B(C  24,C  23)                  1.5210         0.386188   
     27. B(H  25,C   0)                  1.0960         0.352295   
     28. B(H  26,C   0)                  1.0929         0.356232   
     29. B(H  27,C   0)                  1.0946         0.354044   
     30. B(H  28,C   1)                  1.0975         0.350365   
     31. B(H  29,C   1)                  1.0962         0.351995   
     32. B(H  30,C   4)                  1.0960         0.352282   
     33. B(H  31,C   4)                  1.0954         0.353038   
     34. B(H  32,C   5)                  1.0988         0.348634   
     35. B(H  33,C   5)                  1.0954         0.353089   
     36. B(H  34,C   8)                  1.0895         0.360820   
     37. B(H  35,C   9)                  1.0867         0.364530   
     38. B(H  36,C  10)                  1.0864         0.364836   
     39. B(H  37,C  11)                  1.0893         0.361040   
     40. B(H  38,C  12)                  1.0895         0.360813   
     41. B(H  39,C  14)                  1.0899         0.360247   
     42. B(H  40,C  15)                  1.0856         0.366032   
     43. B(H  41,C  16)                  1.0865         0.364738   
     44. B(H  42,C  17)                  1.0879         0.362915   
     45. B(H  43,C  18)                  1.0890         0.361459   
     46. B(H  44,C  20)                  1.0983         0.349336   
     47. B(H  45,C  20)                  1.0982         0.349452   
     48. B(H  46,C  21)                  1.0959         0.352396   
     49. B(H  47,C  21)                  1.0958         0.352451   
     50. B(H  48,C  21)                  1.0967         0.351364   
     51. B(H  49,C  23)                  1.0973         0.350592   
     52. B(H  50,C  23)                  1.0976         0.350129   
     53. B(H  51,C  24)                  1.0970         0.351002   
     54. B(H  52,C  24)                  1.0953         0.353196   
     55. B(H  53,C  24)                  1.0935         0.355539   
     56. A(H  26,C   0,H  27)          108.7583         0.289575   
     57. A(C   1,C   0,H  26)          110.7621         0.326137   
     58. A(H  25,C   0,H  27)          107.0439         0.289071   
     59. A(C   1,C   0,H  25)          110.6352         0.325542   
     60. A(C   1,C   0,H  27)          110.6521         0.325807   
     61. A(H  25,C   0,H  26)          108.8866         0.289351   
     62. A(O   2,C   1,H  28)          110.4276         0.336140   
     63. A(C   0,C   1,O   2)          108.2738         0.381882   
     64. A(C   0,C   1,H  29)          109.0599         0.325496   
     65. A(C   0,C   1,H  28)          109.1432         0.325248   
     66. A(O   2,C   1,H  29)          110.8043         0.336400   
     67. A(H  28,C   1,H  29)          109.0993         0.288560   
     68. A(C   1,O   2,Si  3)          118.4550         0.473174   
     69. A(O   2,Si  3,O  19)          107.8610         0.570560   
     70. A(O  19,Si  3,O  22)          107.5451         0.571877   
     71. A(O   2,Si  3,C   4)          110.8628         0.500327   
     72. A(O   2,Si  3,O  22)          109.1249         0.572029   
     73. A(C   4,Si  3,O  19)          109.6874         0.500198   
     74. A(C   4,Si  3,O  22)          111.6302         0.501453   
     75. A(H  30,C   4,H  31)          106.7660         0.288941   
     76. A(Si  3,C   4,C   5)          114.7806         0.400014   
     77. A(Si  3,C   4,H  30)          105.8042         0.353935   
     78. A(C   5,C   4,H  31)          111.5033         0.323715   
     79. A(Si  3,C   4,H  31)          107.4679         0.354064   
     80. A(C   5,C   4,H  30)          110.0679         0.323601   
     81. A(H  32,C   5,H  33)          105.4035         0.288477   
     82. A(C   4,C   5,H  33)          110.5851         0.323723   
     83. A(P   6,C   5,H  32)          106.7709         0.346222   
     84. A(C   4,C   5,H  32)          109.0521         0.323049   
     85. A(C   4,C   5,P   6)          116.9894         0.391671   
     86. A(P   6,C   5,H  33)          107.3714         0.346962   
     87. A(C   5,P   6,C   7)          102.6700         0.428166   
     88. A(C   7,P   6,C  13)          105.7340         0.435159   
     89. A(C   5,P   6,C  13)          106.9656         0.428496   
     90. A(C   8,C   7,C  12)          117.9829         0.427961   
     91. A(P   6,C   7,C  12)          118.2590         0.431084   
     92. A(P   6,C   7,C   8)          123.7526         0.431667   
     93. A(C   7,C   8,H  34)          120.7099         0.350905   
     94. A(C   9,C   8,H  34)          118.3363         0.351563   
     95. A(C   7,C   8,C   9)          120.9502         0.429392   
     96. A(C  10,C   9,H  35)          120.0523         0.353687   
     97. A(C   8,C   9,H  35)          119.7123         0.352172   
     98. A(C   8,C   9,C  10)          120.2346         0.432212   
     99. A(C  11,C  10,H  36)          120.0971         0.353922   
    100. A(C   9,C  10,H  36)          120.2337         0.353738   
    101. A(C   9,C  10,C  11)          119.6691         0.434429   
    102. A(C  12,C  11,H  37)          119.8891         0.351637   
    103. A(C  10,C  11,H  37)          120.0701         0.353295   
    104. A(C  10,C  11,C  12)          120.0408         0.432501   
    105. A(C   7,C  12,H  38)          120.4294         0.350459   
    106. A(C   7,C  12,C  11)          121.1222         0.428862   
    107. A(C  11,C  12,H  38)          118.4482         0.351600   
    108. A(C  14,C  13,C  18)          117.5518         0.427191   
    109. A(P   6,C  13,C  18)          122.8019         0.431704   
    110. A(P   6,C  13,C  14)          119.5164         0.430933   
    111. A(C  13,C  14,C  15)          121.3890         0.427950   
    112. A(C  15,C  14,H  39)          118.2171         0.351173   
    113. A(C  13,C  14,H  39)          120.3937         0.349997   
    114. A(C  14,C  15,C  16)          119.9864         0.431999   
    115. A(C  16,C  15,H  40)          120.1272         0.354069   
    116. A(C  14,C  15,H  40)          119.8854         0.352119   
    117. A(C  15,C  16,C  17)          119.6225         0.434488   
    118. A(C  17,C  16,H  41)          120.1108         0.353816   
    119. A(C  15,C  16,H  41)          120.2630         0.353856   
    120. A(C  16,C  17,C  18)          120.2375         0.431845   
    121. A(C  18,C  17,H  42)          119.7351         0.351532   
    122. A(C  16,C  17,H  42)          120.0273         0.353516   
    123. A(C  13,C  18,C  17)          121.1847         0.428613   
    124. A(C  17,C  18,H  43)          117.6046         0.351294   
    125. A(C  13,C  18,H  43)          121.2100         0.350784   
    126. A(Si  3,O  19,C  20)          118.4151         0.473044   
    127. A(O  19,C  20,C  21)          108.2083         0.381686   
    128. A(C  21,C  20,H  45)          109.1037         0.324956   
    129. A(O  19,C  20,H  45)          110.5036         0.335989   
    130. A(C  21,C  20,H  44)          109.0895         0.324938   
    131. A(O  19,C  20,H  44)          110.6567         0.335970   
    132. A(H  44,C  20,H  45)          109.2447         0.288101   
    133. A(H  47,C  21,H  48)          108.8637         0.288748   
    134. A(H  46,C  21,H  48)          107.0275         0.288741   
    135. A(C  20,C  21,H  48)          110.4441         0.325247   
    136. A(H  46,C  21,H  47)          108.9382         0.288880   
    137. A(C  20,C  21,H  47)          110.7512         0.325413   
    138. A(C  20,C  21,H  46)          110.7174         0.325404   
    139. A(Si  3,O  22,C  23)          120.4347         0.475214   
    140. A(H  49,C  23,H  50)          109.0583         0.288350   
    141. A(C  24,C  23,H  50)          109.0335         0.324592   
    142. A(O  22,C  23,H  50)          111.7144         0.336737   
    143. A(C  24,C  23,H  49)          108.8849         0.324663   
    144. A(O  22,C  23,H  49)          110.1180         0.336811   
    145. A(O  22,C  23,C  24)          107.9793         0.381864   
    146. A(H  52,C  24,H  53)          108.7657         0.289378   
    147. A(H  51,C  24,H  53)          108.7915         0.289096   
    148. A(C  23,C  24,H  53)          110.8830         0.325411   
    149. A(H  51,C  24,H  52)          107.0053         0.288796   
    150. A(C  23,C  24,H  52)          110.3786         0.325058   
    151. A(C  23,C  24,H  51)          110.9063         0.324725   
    152. D(O   2,C   1,C   0,H  26)    179.5775         0.012133   
    153. D(O   2,C   1,C   0,H  27)     58.8859         0.012133   
    154. D(H  28,C   1,C   0,H  26)     59.3324         0.012133   
    155. D(H  28,C   1,C   0,H  25)   -179.8256         0.012133   
    156. D(H  28,C   1,C   0,H  27)    -61.3592         0.012133   
    157. D(O   2,C   1,C   0,H  25)    -59.5805         0.012133   
    158. D(Si  3,O   2,C   1,H  29)     57.6444         0.019320   
    159. D(Si  3,O   2,C   1,H  28)    -63.3550         0.019320   
    160. D(Si  3,O   2,C   1,C   0)    177.2054         0.019320   
    161. D(O  22,Si  3,O   2,C   1)   -172.0740         0.009895   
    162. D(O  19,Si  3,O   2,C   1)    -55.5248         0.009895   
    163. D(C   4,Si  3,O   2,C   1)     64.5807         0.009895   
    164. D(C   5,C   4,Si  3,O   2)     52.4827         0.003420   
    165. D(C   5,C   4,Si  3,O  22)    -69.4083         0.003420   
    166. D(C   5,C   4,Si  3,O  19)    171.4934         0.003420   
    167. D(H  30,C   4,Si  3,O  22)    169.0275         0.003420   
    168. D(H  30,C   4,Si  3,O  19)     49.9292         0.003420   
    169. D(H  30,C   4,Si  3,O   2)    -69.0815         0.003420   
    170. D(H  32,C   5,C   4,H  31)    176.1113         0.011323   
    171. D(H  32,C   5,C   4,H  30)     57.8165         0.011323   
    172. D(H  32,C   5,C   4,Si  3)    -61.3934         0.011323   
    173. D(P   6,C   5,C   4,H  30)    -63.4124         0.011323   
    174. D(P   6,C   5,C   4,Si  3)    177.3777         0.011323   
    175. D(P   6,C   5,C   4,H  31)     54.8824         0.011323   
    176. D(C  13,P   6,C   5,H  32)    176.9063         0.003652   
    177. D(C  13,P   6,C   5,C   4)    -60.6765         0.003652   
    178. D(C   7,P   6,C   5,H  33)    175.3149         0.003652   
    179. D(C   7,P   6,C   5,H  32)    -72.0446         0.003652   
    180. D(C   7,P   6,C   5,C   4)     50.3726         0.003652   
    181. D(C   8,C   7,P   6,C  13)     28.8094         0.003853   
    182. D(C   8,C   7,P   6,C   5)    -83.1567         0.003853   
    183. D(C  12,C   7,P   6,C  13)   -152.0588         0.003853   
    184. D(C  12,C   7,P   6,C   5)     95.9751         0.003853   
    185. D(H  34,C   8,C   7,C  12)   -179.1185         0.024667   
    186. D(H  34,C   8,C   7,P   6)      0.0155         0.024667   
    187. D(C   9,C   8,C   7,C  12)      0.1827         0.024667   
    188. D(C   9,C   8,C   7,P   6)    179.3167         0.024667   
    189. D(H  35,C   9,C   8,H  34)     -0.5183         0.025251   
    190. D(H  35,C   9,C   8,C   7)   -179.8357         0.025251   
    191. D(C  10,C   9,C   8,H  34)    179.1744         0.025251   
    192. D(C  10,C   9,C   8,C   7)     -0.1430         0.025251   
    193. D(H  36,C  10,C   9,H  35)     -0.3471         0.026644   
    194. D(H  36,C  10,C   9,C   8)    179.9612         0.026644   
    195. D(C  11,C  10,C   9,H  35)    179.7700         0.026644   
    196. D(C  11,C  10,C   9,C   8)      0.0783         0.026644   
    197. D(H  37,C  11,C  10,H  36)     -0.0336         0.026818   
    198. D(H  37,C  11,C  10,C   9)    179.8495         0.026818   
    199. D(C  12,C  11,C  10,H  36)   -179.9425         0.026818   
    200. D(C  12,C  11,C  10,C   9)     -0.0594         0.026818   
    201. D(H  38,C  12,C  11,H  37)      0.0450         0.025285   
    202. D(H  38,C  12,C  11,C  10)    179.9540         0.025285   
    203. D(C   7,C  12,C  11,H  37)   -179.8042         0.025285   
    204. D(C   7,C  12,C  11,C  10)      0.1048         0.025285   
    205. D(H  38,C  12,C   7,C   8)    179.9897         0.024280   
    206. D(H  38,C  12,C   7,P   6)      0.8072         0.024280   
    207. D(C  11,C  12,C   7,C   8)     -0.1640         0.024280   
    208. D(C  11,C  12,C   7,P   6)   -179.3466         0.024280   
    209. D(C  18,C  13,P   6,C   7)   -132.9445         0.003874   
    210. D(C  18,C  13,P   6,C   5)    -24.0280         0.003874   
    211. D(C  14,C  13,P   6,C   7)     51.3037         0.003874   
    212. D(C  14,C  13,P   6,C   5)    160.2202         0.003874   
    213. D(C  15,C  14,C  13,C  18)      1.9369         0.023964   
    214. D(C  15,C  14,C  13,P   6)    177.9097         0.023964   
    215. D(H  39,C  14,C  13,C  18)   -177.8608         0.023964   
    216. D(H  39,C  14,C  13,P   6)     -1.8880         0.023964   
    217. D(H  40,C  15,C  14,H  39)     -0.7724         0.024986   
    218. D(H  40,C  15,C  14,C  13)    179.4257         0.024986   
    219. D(C  16,C  15,C  14,H  39)    178.8822         0.024986   
    220. D(C  16,C  15,C  14,C  13)     -0.9198         0.024986   
    221. D(H  41,C  16,C  15,H  40)      0.0412         0.026771   
    222. D(H  41,C  16,C  15,C  14)   -179.6126         0.026771   
    223. D(C  17,C  16,C  15,H  40)    179.3394         0.026771   
    224. D(C  17,C  16,C  15,C  14)     -0.3144         0.026771   
    225. D(H  42,C  17,C  16,H  41)     -0.1132         0.026733   
    226. D(H  42,C  17,C  16,C  15)   -179.4125         0.026733   
    227. D(C  18,C  17,C  16,H  41)    179.7631         0.026733   
    228. D(C  18,C  17,C  16,C  15)      0.4639         0.026733   
    229. D(H  43,C  18,C  17,H  42)      0.7875         0.024917   
    230. D(H  43,C  18,C  17,C  16)   -179.0892         0.024917   
    231. D(C  13,C  18,C  17,H  42)   -179.5068         0.024917   
    232. D(C  13,C  18,C  17,C  16)      0.6165         0.024917   
    233. D(H  43,C  18,C  13,C  14)    177.9129         0.024470   
    234. D(H  43,C  18,C  13,P   6)      2.0824         0.024470   
    235. D(C  17,C  18,C  13,C  14)     -1.7823         0.024470   
    236. D(C  17,C  18,C  13,P   6)   -177.6127         0.024470   
    237. D(C  20,O  19,Si  3,O  22)     47.6297         0.009870   
    238. D(C  20,O  19,Si  3,C   4)    169.2123         0.009870   
    239. D(C  20,O  19,Si  3,O   2)    -69.9443         0.009870   
    240. D(H  45,C  20,O  19,Si  3)    -63.2063         0.019316   
    241. D(H  44,C  20,O  19,Si  3)     57.9287         0.019316   
    242. D(C  21,C  20,O  19,Si  3)    177.3977         0.019316   
    243. D(H  47,C  21,C  20,H  45)     60.7927         0.012067   
    244. D(H  47,C  21,C  20,H  44)    -58.4805         0.012067   
    245. D(H  47,C  21,C  20,O  19)   -178.9322         0.012067   
    246. D(H  46,C  21,C  20,H  45)   -178.2527         0.012067   
    247. D(H  46,C  21,C  20,H  44)     62.4740         0.012067   
    248. D(H  46,C  21,C  20,O  19)    -57.9777         0.012067   
    249. D(C  23,O  22,Si  3,O  19)   -152.2834         0.010112   
    250. D(C  23,O  22,Si  3,C   4)     87.3545         0.010112   
    251. D(C  23,O  22,Si  3,O   2)    -35.5334         0.010112   
    252. D(H  50,C  23,O  22,Si  3)     48.5268         0.019777   
    253. D(H  49,C  23,O  22,Si  3)    -72.8180         0.019777   
    254. D(C  24,C  23,O  22,Si  3)    168.4136         0.019777   
    255. D(H  52,C  24,C  23,H  50)     61.4825         0.011868   
    256. D(H  52,C  24,C  23,H  49)   -179.6308         0.011868   
    257. D(H  52,C  24,C  23,O  22)    -60.0797         0.011868   
    258. D(H  51,C  24,C  23,H  50)    179.8986         0.011868   
    259. D(H  51,C  24,C  23,H  49)    -61.2147         0.011868   
    260. D(H  51,C  24,C  23,O  22)     58.3364         0.011868   
    -----------------------------------------------------------------

Number of atoms                         .... 54
Number of degrees of freedom            .... 260


         *************************************************************
         *                GEOMETRY OPTIMIZATION CYCLE   1            *
         *************************************************************
---------------------------------
CARTESIAN COORDINATES (ANGSTROEM)
---------------------------------
  C      3.054847   -2.011051    3.202529
  C      2.376511   -1.747678    1.870531
  O      2.510350   -0.363107    1.567473
  Si     1.910881    0.194469    0.111630
  C      0.023695    0.004218    0.040325
  C     -0.726216    0.610434    1.225227
  P     -2.566003    0.526060    1.181937
  C     -2.876405   -1.228397    0.816214
  C     -2.856534   -1.769853   -0.476649
  C     -3.089940   -3.132499   -0.689562
  C     -3.344159   -3.976705    0.387485
  C     -3.366762   -3.458456    1.678191
  C     -3.133618   -2.095727    1.889708
  C     -3.104283    1.439993   -0.294192
  C     -4.385902    1.208554   -0.822842
  C     -4.856896    1.921476   -1.932041
  C     -4.058399    2.895762   -2.522639
  C     -2.795905    3.159684   -2.000531
  C     -2.326745    2.442498   -0.892852
  O      2.613601   -0.703382   -1.109455
  C      3.999123   -0.515175   -1.377368
  C      4.406062   -1.483146   -2.474416
  O      2.376924    1.781011   -0.099217
  C      2.460161    2.660481    1.013268
  C      3.175989    3.923779    0.560510
  H      4.116082   -1.741406    3.155512
  H      2.969529   -3.064979    3.479067
  H      2.603816   -1.402223    3.992520
  H      1.316716   -2.022613    1.945789
  H      2.852753   -2.363050    1.098418
  H     -0.165818   -1.073936   -0.012877
  H     -0.314203    0.431705   -0.909918
  H     -0.407301    0.105763    2.147713
  H     -0.450110    1.662003    1.358511
  H     -2.647269   -1.139895   -1.340522
  H     -3.067123   -3.531400   -1.700113
  H     -3.526066   -5.034957    0.222042
  H     -3.567483   -4.112764    2.525626
  H     -3.158181   -1.717410    2.911079
  H     -5.042509    0.464888   -0.371527
  H     -5.847412    1.716378   -2.326042
  H     -4.421858    3.456057   -3.379660
  H     -2.169857    3.926745   -2.451270
  H     -1.338859    2.694458   -0.510147
  H      4.598322   -0.717418   -0.479462
  H      4.189405    0.512107   -1.715692
  H      4.198140   -2.516928   -2.176036
  H      5.473799   -1.386341   -2.701222
  H      3.830645   -1.290654   -3.387959
  H      1.453726    2.927286    1.359585
  H      3.018117    2.211459    1.845065
  H      2.643785    4.397749   -0.273424
  H      4.183122    3.684132    0.202924
  H      3.255715    4.642001    1.381167

----------------------------
CARTESIAN COORDINATES (A.U.)
----------------------------
  NO LB      ZA    FRAG     MASS         X           Y           Z
   0 C     6.0000    0    12.011    5.772824   -3.800336    6.051903
   1 C     6.0000    0    12.011    4.490955   -3.302633    3.534791
   2 O     8.0000    0    15.999    4.743874   -0.686173    2.962095
   3 Si   14.0000    0    28.086    3.611042    0.367493    0.210950
   4 C     6.0000    0    12.011    0.044777    0.007971    0.076203
   5 C     6.0000    0    12.011   -1.372349    1.153553    2.315343
   6 P    15.0000    0    30.974   -4.849043    0.994109    2.233537
   7 C     6.0000    0    12.011   -5.435618   -2.321334    1.542421
   8 C     6.0000    0    12.011   -5.398067   -3.344537   -0.900736
   9 C     6.0000    0    12.011   -5.839140   -5.919565   -1.303083
  10 C     6.0000    0    12.011   -6.319545   -7.514883    0.732241
  11 C     6.0000    0    12.011   -6.362258   -6.535535    3.171321
  12 C     6.0000    0    12.011   -5.921680   -3.960350    3.571031
  13 C     6.0000    0    12.011   -5.866245    2.721192   -0.555942
  14 C     6.0000    0    12.011   -8.288154    2.283836   -1.554946
  15 C     6.0000    0    12.011   -9.178203    3.631063   -3.651028
  16 C     6.0000    0    12.011   -7.669263    5.472197   -4.767097
  17 C     6.0000    0    12.011   -5.283495    5.970937   -3.780456
  18 C     6.0000    0    12.011   -4.396911    4.615652   -1.687246
  19 O     8.0000    0    15.999    4.938990   -1.329199   -2.096566
  20 C     6.0000    0    12.011    7.557247   -0.973540   -2.602848
  21 C     6.0000    0    12.011    8.326251   -2.802740   -4.675969
  22 O     8.0000    0    15.999    4.491735    3.365623   -0.187493
  23 C     6.0000    0    12.011    4.649031    5.027580    1.914799
  24 C     6.0000    0    12.011    6.001749    7.414868    1.059210
  25 H     1.0000    0     1.008    7.778268   -3.290780    5.963053
  26 H     1.0000    0     1.008    5.611597   -5.791971    6.574484
  27 H     1.0000    0     1.008    4.920499   -2.649817    7.544769
  28 H     1.0000    0     1.008    2.488233   -3.822185    3.677008
  29 H     1.0000    0     1.008    5.390922   -4.465517    2.075709
  30 H     1.0000    0     1.008   -0.313351   -2.029445   -0.024334
  31 H     1.0000    0     1.008   -0.593758    0.815804   -1.719496
  32 H     1.0000    0     1.008   -0.769687    0.199863    4.058589
  33 H     1.0000    0     1.008   -0.850585    3.140731    2.567214
  34 H     1.0000    0     1.008   -5.002613   -2.154089   -2.533219
  35 H     1.0000    0     1.008   -5.796022   -6.673379   -3.212748
  36 H     1.0000    0     1.008   -6.663299   -9.514690    0.419599
  37 H     1.0000    0     1.008   -6.741566   -7.771998    4.772741
  38 H     1.0000    0     1.008   -5.968097   -3.245435    5.501142
  39 H     1.0000    0     1.008   -9.528961    0.878511   -0.702084
  40 H     1.0000    0     1.008  -11.050007    3.243484   -4.395582
  41 H     1.0000    0     1.008   -8.356101    6.531001   -6.386632
  42 H     1.0000    0     1.008   -4.100435    7.420473   -4.632229
  43 H     1.0000    0     1.008   -2.530077    5.091788   -0.964038
  44 H     1.0000    0     1.008    8.689569   -1.355724   -0.906052
  45 H     1.0000    0     1.008    7.916828    0.967742   -3.242188
  46 H     1.0000    0     1.008    7.933335   -4.756305   -4.112112
  47 H     1.0000    0     1.008   10.343981   -2.619805   -5.104570
  48 H     1.0000    0     1.008    7.238870   -2.438983   -6.402315
  49 H     1.0000    0     1.008    2.747144    5.531769    2.569243
  50 H     1.0000    0     1.008    5.703415    4.179052    3.486668
  51 H     1.0000    0     1.008    4.996030    8.310541   -0.516696
  52 H     1.0000    0     1.008    7.904955    6.962001    0.383471
  53 H     1.0000    0     1.008    6.152410    8.772111    2.610027

--------------------------------
INTERNAL COORDINATES (ANGSTROEM)
--------------------------------
 C      0   0   0     0.000000000000     0.00000000     0.00000000
 C      1   0   0     1.517802272376     0.00000000     0.00000000
 O      2   1   0     1.423655113897   108.27375206     0.00000000
 Si     3   2   1     1.670249358146   118.45503901   177.20535761
 C      4   3   2     1.898091368881   110.86281369    64.58071523
 C      5   4   3     1.527696663668   114.78063815    52.48273378
 P      6   5   4     1.842229410618   116.98942209   177.37767771
 C      7   6   5     1.818851857404   102.66999816    50.37261890
 C      8   7   6     1.401807473709   123.75261145   276.84331807
 C      9   8   7     1.398790344448   120.95016182   179.31672128
 C     10   9   8     1.391884086627   120.23460594   359.85702460
 C     11  10   9     1.391048130025   119.66907712     0.07831565
 C     12  11  10     1.398615706142   120.04076647   359.94060443
 C      7   6   5     1.817684161655   106.96559041   299.32345113
 C     14   7   6     1.405554016885   119.51638349   160.22018865
 C     15  14   7     1.400148402035   121.38895700   177.90968403
 C     16  15  14     1.391271600518   119.98641521   359.08023862
 C     17  16  15     1.391453443628   119.62247798   359.68561543
 C     18  17  16     1.400506919382   120.23754365     0.46389102
 O      4   3   2     1.670628742069   107.86097823   304.47518870
 C     20   4   3     1.423682009053   118.41509421   290.05570384
 C     21  20   4     1.518578783227   108.20830487   177.39766800
 O      4   3   2     1.666963722767   109.12493078   187.92602553
 C     23   4   3     1.420569869557   120.43469516   324.46664533
 C     24  23   4     1.520960673046   107.97930985   168.41362471
 H      1   2   3     1.095964757435   110.63519661   300.41950757
 H      1   2   3     1.092939456581   110.76213794   179.57750418
 H      1   2   3     1.094616954293   110.65206790    58.88585746
 H      2   1   3     1.097460005109   109.14322630   239.75490629
 H      2   1   3     1.096196891857   109.05991980   120.65198787
 H      5   4   3     1.095975217644   105.80417112   290.91850955
 H      5   4   3     1.095391232675   107.46794035   177.13008810
 H      6   5   4     1.098808452671   109.05214656   298.60661551
 H      6   5   4     1.095352230861   110.58506458    54.06643479
 H      9   8   7     1.089456507676   120.70994133     0.00000000
 H     10   9   8     1.086671959191   119.71234625   180.16433226
 H     11  10   9     1.086443205327   120.23370657   179.96122857
 H     12  11  10     1.089290575526   120.07006162   179.84952150
 H     13  12  11     1.089461249012   118.44821493   179.95404399
 H     15  14   7     1.089888572850   120.39366519   358.11202995
 H     16  15  14     1.085552358876   119.88543684   179.42566011
 H     17  16  15     1.086516417799   120.26302952   180.38744644
 H     18  17  16     1.087880656205   120.02727795   180.58753968
 H     19  18  17     1.088974612937   117.60459051   180.91077319
 H     21  20   4     1.098260833084   110.65672069    57.92871142
 H     21  20   4     1.098170604243   110.50362780   296.79366875
 H     22  21  20     1.095886584464   110.71740596   302.02227297
 H     22  21  20     1.095844181821   110.75116467   181.06775210
 H     22  21  20     1.096685327157   110.44409976    60.38867992
 H     24  23   4     1.097283820048   110.11804432   287.18198194
 H     24  23   4     1.097643796333   111.71440700    48.52675198
 H     25  24  23     1.096966077357   110.90633611    58.33638611
 H     25  24  23     1.095269515550   110.37855179   299.92029799
 H     25  24  23     1.093470158719   110.88302180   179.32104794

---------------------------
INTERNAL COORDINATES (A.U.)
---------------------------
 C      0   0   0     0.000000000000     0.00000000     0.00000000
 C      1   0   0     2.868230620234     0.00000000     0.00000000
 O      2   1   0     2.690318274422   108.27375206     0.00000000
 Si     3   2   1     3.156313862253   118.45503901   177.20535761
 C      4   3   2     3.586872864346   110.86281369    64.58071523
 C      5   4   3     2.886928310037   114.78063815    52.48273378
 P      6   5   4     3.481309061923   116.98942209   177.37767771
 C      7   6   5     3.437131888668   102.66999816    50.37261890
 C      8   7   6     2.649032217794   123.75261145   276.84331807
 C      9   8   7     2.643330669780   120.95016182   179.31672128
 C     10   9   8     2.630279733889   120.23460594   359.85702460
 C     11  10   9     2.628700004850   119.66907712     0.07831565
 C     12  11  10     2.643000651209   120.04076647   359.94060443
 C      7   6   5     3.434925263493   106.96559041   299.32345113
 C     14   7   6     2.656112158346   119.51638349   160.22018865
 C     15  14   7     2.645897026694   121.38895700   177.90968403
 C     16  15  14     2.629122302882   119.98641521   359.08023862
 C     17  16  15     2.629465936558   119.62247798   359.68561543
 C     18  17  16     2.646574526294   120.23754365     0.46389102
 O      4   3   2     3.157030793967   107.86097823   304.47518870
 C     20   4   3     2.690369098902   118.41509421   290.05570384
 C     21  20   4     2.869698013082   108.20830487   177.39766800
 O      4   3   2     3.150104911212   109.12493078   187.92602553
 C     23   4   3     2.684488007564   120.43469516   324.46664533
 C     24  23   4     2.874199132521   107.97930985   168.41362471
 H      1   2   3     2.071073243981   110.63519661   300.41950757
 H      1   2   3     2.065356253895   110.76213794   179.57750418
 H      1   2   3     2.068526265161   110.65206790    58.88585746
 H      2   1   3     2.073898852588   109.14322630   239.75490629
 H      2   1   3     2.071511914465   109.05991980   120.65198787
 H      5   4   3     2.071093010911   105.80417112   290.91850955
 H      5   4   3     2.069989439255   107.46794035   177.13008810
 H      6   5   4     2.076447049187   109.05214656   298.60661551
 H      6   5   4     2.069915736508   110.58506458    54.06643479
 H      9   8   7     2.058774434326   120.70994133     0.00000000
 H     10   9   8     2.053512400282   119.71234625   180.16433226
 H     11  10   9     2.053080118128   120.23370657   179.96122857
 H     12  11  10     2.058460868006   120.07006162   179.84952150
 H     13  12  11     2.058783394153   118.44821493   179.95404399
 H     15  14   7     2.059590919178   120.39366519   358.11202995
 H     16  15  14     2.051396662308   119.88543684   179.42566011
 H     17  16  15     2.053218469649   120.26302952   180.38744644
 H     18  17  16     2.055796506619   120.02727795   180.58753968
 H     19  18  17     2.057863785244   117.60459051   180.91077319
 H     21  20   4     2.075412198141   110.65672069    57.92871142
 H     21  20   4     2.075241690343   110.50362780   296.79366875
 H     22  21  20     2.070925518475   110.71740596   302.02227297
 H     22  21  20     2.070845389092   110.75116467   181.06775210
 H     22  21  20     2.072434923417   110.44409976    60.38867992
 H     24  23   4     2.073565911074   110.11804432   287.18198194
 H     24  23   4     2.074246167668   111.71440700    48.52675198
 H     25  24  23     2.072965464407   110.90633611    58.33638611
 H     25  24  23     2.069759427223   110.37855179   299.92029799
 H     25  24  23     2.066359135594   110.88302180   179.32104794

---------------------
BASIS SET INFORMATION
---------------------
There are 5 groups of distinct atoms

 Group   1 Type C   : 7s4p1d contracted to 3s2p1d pattern {511/31/1}
 Group   2 Type O   : 7s4p1d contracted to 3s2p1d pattern {511/31/1}
 Group   3 Type Si  : 10s7p1d contracted to 4s3p1d pattern {5311/511/1}
 Group   4 Type P   : 10s7p1d contracted to 4s3p1d pattern {5311/511/1}
 Group   5 Type H   : 4s1p contracted to 2s1p pattern {31/1}

Atom   0C    basis set group =>   1
Atom   1C    basis set group =>   1
Atom   2O    basis set group =>   2
Atom   3Si   basis set group =>   3
Atom   4C    basis set group =>   1
Atom   5C    basis set group =>   1
Atom   6P    basis set group =>   4
Atom   7C    basis set group =>   1
Atom   8C    basis set group =>   1
Atom   9C    basis set group =>   1
Atom  10C    basis set group =>   1
Atom  11C    basis set group =>   1
Atom  12C    basis set group =>   1
Atom  13C    basis set group =>   1
Atom  14C    basis set group =>   1
Atom  15C    basis set group =>   1
Atom  16C    basis set group =>   1
Atom  17C    basis set group =>   1
Atom  18C    basis set group =>   1
Atom  19O    basis set group =>   2
Atom  20C    basis set group =>   1
Atom  21C    basis set group =>   1
Atom  22O    basis set group =>   2
Atom  23C    basis set group =>   1
Atom  24C    basis set group =>   1
Atom  25H    basis set group =>   5
Atom  26H    basis set group =>   5
Atom  27H    basis set group =>   5
Atom  28H    basis set group =>   5
Atom  29H    basis set group =>   5
Atom  30H    basis set group =>   5
Atom  31H    basis set group =>   5
Atom  32H    basis set group =>   5
Atom  33H    basis set group =>   5
Atom  34H    basis set group =>   5
Atom  35H    basis set group =>   5
Atom  36H    basis set group =>   5
Atom  37H    basis set group =>   5
Atom  38H    basis set group =>   5
Atom  39H    basis set group =>   5
Atom  40H    basis set group =>   5
Atom  41H    basis set group =>   5
Atom  42H    basis set group =>   5
Atom  43H    basis set group =>   5
Atom  44H    basis set group =>   5
Atom  45H    basis set group =>   5
Atom  46H    basis set group =>   5
Atom  47H    basis set group =>   5
Atom  48H    basis set group =>   5
Atom  49H    basis set group =>   5
Atom  50H    basis set group =>   5
Atom  51H    basis set group =>   5
Atom  52H    basis set group =>   5
Atom  53H    basis set group =>   5
---------------------------------
AUXILIARY/J BASIS SET INFORMATION
---------------------------------
There are 5 groups of distinct atoms

 Group   1 Type C   : 12s5p4d2f1g contracted to 6s4p3d1f1g pattern {711111/2111/211/2/1}
 Group   2 Type O   : 12s5p4d2f1g contracted to 6s4p3d1f1g pattern {711111/2111/211/2/1}
 Group   3 Type Si  : 14s5p5d2f1g contracted to 8s4p3d1f1g pattern {71111111/2111/311/2/1}
 Group   4 Type P   : 14s5p5d2f1g contracted to 8s4p3d1f1g pattern {71111111/2111/311/2/1}
 Group   5 Type H   : 5s2p1d contracted to 3s1p1d pattern {311/2/1}

Atom   0C    basis set group =>   1
Atom   1C    basis set group =>   1
Atom   2O    basis set group =>   2
Atom   3Si   basis set group =>   3
Atom   4C    basis set group =>   1
Atom   5C    basis set group =>   1
Atom   6P    basis set group =>   4
Atom   7C    basis set group =>   1
Atom   8C    basis set group =>   1
Atom   9C    basis set group =>   1
Atom  10C    basis set group =>   1
Atom  11C    basis set group =>   1
Atom  12C    basis set group =>   1
Atom  13C    basis set group =>   1
Atom  14C    basis set group =>   1
Atom  15C    basis set group =>   1
Atom  16C    basis set group =>   1
Atom  17C    basis set group =>   1
Atom  18C    basis set group =>   1
Atom  19O    basis set group =>   2
Atom  20C    basis set group =>   1
Atom  21C    basis set group =>   1
Atom  22O    basis set group =>   2
Atom  23C    basis set group =>   1
Atom  24C    basis set group =>   1
Atom  25H    basis set group =>   5
Atom  26H    basis set group =>   5
Atom  27H    basis set group =>   5
Atom  28H    basis set group =>   5
Atom  29H    basis set group =>   5
Atom  30H    basis set group =>   5
Atom  31H    basis set group =>   5
Atom  32H    basis set group =>   5
Atom  33H    basis set group =>   5
Atom  34H    basis set group =>   5
Atom  35H    basis set group =>   5
Atom  36H    basis set group =>   5
Atom  37H    basis set group =>   5
Atom  38H    basis set group =>   5
Atom  39H    basis set group =>   5
Atom  40H    basis set group =>   5
Atom  41H    basis set group =>   5
Atom  42H    basis set group =>   5
Atom  43H    basis set group =>   5
Atom  44H    basis set group =>   5
Atom  45H    basis set group =>   5
Atom  46H    basis set group =>   5
Atom  47H    basis set group =>   5
Atom  48H    basis set group =>   5
Atom  49H    basis set group =>   5
Atom  50H    basis set group =>   5
Atom  51H    basis set group =>   5
Atom  52H    basis set group =>   5
Atom  53H    basis set group =>   5


           ************************************************************
           *        Program running with 6 parallel MPI-processes     *
           *              working on a common directory               *
           ************************************************************
------------------------------------------------------------------------------
                             ORCA STARTUP CALCULATIONS
                           -- RI-GTO INTEGRALS CHOSEN --
------------------------------------------------------------------------------
------------------------------------------------------------------------------
                   ___                                                        
                  /   \      - P O W E R E D   B Y -                         
                 /     \                                                     
                 |  |  |   _    _      __       _____    __    __             
                 |  |  |  | |  | |    /  \     |  _  \  |  |  /  |          
                  \  \/   | |  | |   /    \    | | | |  |  | /  /          
                 / \  \   | |__| |  /  /\  \   | |_| |  |  |/  /          
                |  |  |   |  __  | /  /__\  \  |    /   |      \           
                |  |  |   | |  | | |   __   |  |    \   |  |\   \          
                \     /   | |  | | |  |  |  |  | |\  \  |  | \   \       
                 \___/    |_|  |_| |__|  |__|  |_| \__\ |__|  \__/        
                                                                              
                      - O R C A' S   B I G   F R I E N D -                    
                                      &                                       
                       - I N T E G R A L  F E E D E R -                       
                                                                              
 v1 FN, 2020, v2 2021, v3 2022-2024                                           
------------------------------------------------------------------------------


----------------------
SHARK INTEGRAL PACKAGE
----------------------

Number of atoms                             ...     54
Number of basis functions                   ...    503
Number of shells                            ...    241
Maximum angular momentum                    ...      2
Integral batch strategy                     ... SHARK/LIBINT Hybrid
RI-J (if used) integral strategy            ... SPLIT-RIJ (Revised 2003 algorithm where possible)
Printlevel                                  ...      1
Contraction scheme used                     ... SEGMENTED contraction
Prescreening option                         ... SCHWARTZ
   Thresh                                   ... 2.500e-11
   Tcut                                     ... 2.500e-12
   Tpresel                                  ... 2.500e-12 
Coulomb Range Separation                    ... NOT USED
Exchange Range Separation                   ... NOT USED
Multipole approximations                    ... NOT USED
Finite Nucleus Model                        ... NOT USED
CABS basis                                  ... NOT available
Auxiliary Coulomb fitting basis             ... AVAILABLE
   # of basis functions in Aux-J            ...   1548
   # of shells in Aux-J                     ...    524
   Maximum angular momentum in Aux-J        ...      4
Auxiliary J/K fitting basis                 ... NOT available
Auxiliary Correlation fitting basis         ... NOT available
Auxiliary 'external' fitting basis          ... NOT available

Checking pre-screening integrals            ... done (  0.0 sec) Dimension = 241
Check shell pair data                       ... done (  0.0 sec)
Shell pair information
Shell pair cut-off parameter TPreSel        ...   2.5e-12
Total number of shell pairs                 ...     29161
Shell pairs after pre-screening             ...     19146
Total number of primitive shell pairs       ...    105085
Primitive shell pairs kept                  ...     42383
          la=0 lb=0:   6383 shell pairs
          la=1 lb=0:   7310 shell pairs
          la=1 lb=1:   2129 shell pairs
          la=2 lb=0:   2046 shell pairs
          la=2 lb=1:   1124 shell pairs
          la=2 lb=2:    154 shell pairs

Calculating one electron integrals          ... done (  0.0 sec)
Calculating RI/J V-Matrix + Cholesky decomp.... done (  0.1 sec)
Calculating Nuclear repulsion               ... done (  0.0 sec) ENN=   2557.658215801336 Eh

Diagonalization of the overlap matrix:
Smallest eigenvalue                        ... 2.798e-04
Time for diagonalization                   ...    0.039 sec
Threshold for overlap eigenvalues          ... 1.000e-07
Number of eigenvalues below threshold      ... 0
Time for construction of square roots      ...    0.021 sec
Total time needed                          ...    0.063 sec

-------------------
DFT GRID GENERATION
-------------------

General Integration Accuracy     IntAcc      ... 4.388
Radial Grid Type                 RadialGrid  ... OptM3 with GC (2021)
Angular Grid (max. ang.)         AngularGrid ... 4 (Lebedev-302)
Angular grid pruning method      GridPruning ... 4 (adaptive)
Weight generation scheme         WeightScheme... mBecke (2022)
Basis function cutoff            BFCut       ... 1.0000e-11
Integration weight cutoff        WCut        ... 1.0000e-14
Partially contracted basis set               ... off
Rotationally invariant grid construction     ... off
Angular grids for H and He will be reduced by one unit

Total number of grid points                  ...   243932
Total number of batches                      ...     3840
Average number of points per batch           ...       63
Average number of grid points per atom       ...     4517
Initializing property integral containers    ... done (  0.0 sec)

SHARK setup successfully completed in   2.1 seconds

Maximum memory used throughout the entire STARTUP-calculation: 69.4 MB


           ************************************************************
           *        Program running with 6 parallel MPI-processes     *
           *              working on a common directory               *
           ************************************************************
-------------------------------------------------------------------------------
                                 ORCA GUESS
                   Start orbitals & Density for SCF / CASSCF
-------------------------------------------------------------------------------

------------
SCF SETTINGS
------------
Hamiltonian:
 Density Functional     Method          .... DFT(GTOs)
 Exchange Functional    Exchange        .... B88
   X-Alpha parameter    XAlpha          ....  0.666667
   Becke's b parameter  XBeta           ....  0.004200
 Correlation Functional Correlation     .... P86
 LDA part of GGA corr.  LDAOpt          .... PW91-LDA
 Gradients option       PostSCFGGA      .... off
   NL short-range parameter             ....  4.400000
 RI-approximation to the Coulomb term is turned on
   Number of AuxJ basis functions       .... 1548


General Settings:
 Integral files         IntName         .... data/geom_opt_P_BP86/87708/87708
 Hartree-Fock type      HFTyp           .... RHF
 Total Charge           Charge          ....    0
 Multiplicity           Mult            ....    1
 Number of Electrons    NEL             ....  202
 Basis Dimension        Dim             ....  503
 Nuclear Repulsion      ENuc            ....   2557.6582158013 Eh

Convergence Acceleration:
 AO-DIIS                CNVDIIS         .... on
   Start iteration      DIISMaxIt       ....    12
   Startup error        DIISStart       ....  0.200000
   # of expansion vecs  DIISMaxEq       ....     5
   Bias factor          DIISBfac        ....   1.050
   Max. coefficient     DIISMaxC        ....  10.000
 MO-DIIS                CNVKDIIS        .... off
 Trust-Rad. Augm. Hess. CNVTRAH         .... auto
   Auto Start mean grad. ratio tolernc. ....  1.125000
   Auto Start start iteration           ....    50
   Auto Start num. interpolation iter.  ....    10
   Max. Number of Micro iterations      ....    24
   Max. Number of Macro iterations      .... Maxiter - #DIIS iter
   Number of Davidson start vectors     ....     2
   Converg. threshold    (grad. norm)   ....   1.000e-05
   Grad. Scal. Fac. for Micro threshold ....   0.100
   Minimum threshold for Micro iter.    ....   1.000e-02
   NR start threshold (gradient norm)   ....   1.000e-04
   Initial trust radius                 ....   0.400
   Minimum AH scaling param. (alpha)    ....   1.000
   Maximum AH scaling param. (alpha)    .... 1000.000
   Quad. conv. algorithm                .... NR
   White noise on init. David. guess    .... on
   Maximum white noise                  ....   0.010
   Pseudo random numbers                .... off
   Inactive MOs                         .... canonical
   Orbital update algorithm             .... Taylor
   Preconditioner                       .... Diag
   Full preconditioner red. dimension   ....   250
 SOSCF                  CNVSOSCF        .... on
   Start iteration      SOSCFMaxIt      ....   150
   Startup grad/error   SOSCFStart      ....  0.003300
   Hessian update       SOSCFHessUp     .... L-BFGS
 Level Shifting         CNVShift        .... on
   Level shift para.    LevelShift      ....    0.2500
   Turn off err/grad.   ShiftErr        ....    0.0010
 Zerner damping         CNVZerner       .... off
 Static damping         CNVDamp         .... on
   Fraction old density DampFac         ....    0.7000
   Max. Damping (<1)    DampMax         ....    0.9800
   Min. Damping (>=0)   DampMin         ....    0.0000
   Turn off err/grad.   DampErr         ....    0.1000

SCF Procedure:
 Maximum # iterations   MaxIter         ....   125
 SCF integral mode      SCFMode         .... Direct
   Integral package                     .... SHARK and LIBINT hybrid scheme
 Reset frequency        DirectResetFreq ....    20
 Integral Threshold     Thresh          ....  2.500e-11 Eh
 Primitive CutOff       TCut            ....  2.500e-12 Eh

Convergence Tolerance:
 Convergence Check Mode ConvCheckMode   .... Total+1el-Energy
 Convergence forced     ConvForced      .... 0
 Energy Change          TolE            ....  1.000e-08 Eh
 1-El. energy change                    ....  1.000e-05 Eh
 Orbital Gradient       TolG            ....  1.000e-05
 Orbital Rotation angle TolX            ....  1.000e-05
 DIIS Error             TolErr          ....  5.000e-07

------------------------------
INITIAL GUESS: MODEL POTENTIAL
------------------------------
Loading Hartree-Fock densities                     ... done
Calculating cut-offs                               ... done
Initializing the effective Hamiltonian             ... done
Setting up the integral package (SHARK)            ... done
Starting the Coulomb interaction                   ... done (   0.3 sec)
Making the grid                                    ... done (   0.4 sec)
Mapping shells                                     ... done
Starting the XC term evaluation                    ... done (   0.2 sec)
  promolecular density results
     # of electrons  =    201.971196093
     EX              =   -179.065489053
     EC              =     -7.522103930
     EX+EC           =   -186.587592984
Transforming the Hamiltonian                       ... done (   0.0 sec)
Diagonalizing the Hamiltonian                      ... done (   0.0 sec)
Back transforming the eigenvectors                 ... done (   0.0 sec)
Now organizing SCF variables                       ... done
                      ------------------
                      INITIAL GUESS DONE (   1.1 sec)
                      ------------------
             **** ENERGY FILE WAS UPDATED (data/geom_opt_P_BP86/87708/87708.en.tmp) ****
Finished Guess after   1.2 sec
Maximum memory used throughout the entire GUESS-calculation: 39.1 MB


           ************************************************************
           *        Program running with 6 parallel MPI-processes     *
           *              working on a common directory               *
           ************************************************************

-------------------------------------------------------------------------------------------
                                      ORCA LEAN-SCF
                              memory conserving SCF solver
-------------------------------------------------------------------------------------------

----------------------------------------D-I-I-S--------------------------------------------
Iteration    Energy (Eh)           Delta-E    RMSDP     MaxDP     DIISErr   Damp  Time(sec)
-------------------------------------------------------------------------------------------
               ***  Starting incremental Fock matrix formation  ***
    1    -1634.7313804962682298     0.00e+00  2.02e-03  1.20e-01  2.26e-01  0.700   1.6
    2    -1635.0359965772954638    -3.05e-01  1.37e-03  6.55e-02  8.07e-02  0.700   1.7
                               ***Turning on AO-DIIS***
    3    -1635.1400356416802424    -1.04e-01  5.45e-04  3.81e-02  2.27e-02  0.700   1.4
    4    -1635.2033729711615706    -6.33e-02  9.19e-04  7.08e-02  9.26e-03  0.000   1.5
    5    -1635.3470484050726554    -1.44e-01  2.27e-04  1.71e-02  7.92e-03  0.000   1.5
                              *** Initializing SOSCF ***
---------------------------------------S-O-S-C-F--------------------------------------
Iteration    Energy (Eh)           Delta-E    RMSDP     MaxDP     MaxGrad    Time(sec)
--------------------------------------------------------------------------------------
    6    -1635.3482427810354238    -1.19e-03  7.65e-05  4.08e-03  2.10e-03     1.5
               *** Restarting incremental Fock matrix formation ***
    7    -1635.3483440875284032    -1.01e-04  5.94e-05  2.37e-03  2.28e-04     1.6
    8    -1635.3483358243988732     8.26e-06  2.31e-05  1.27e-03  4.32e-04     1.3
    9    -1635.3483544460418670    -1.86e-05  1.61e-05  1.05e-03  1.08e-04     1.3
   10    -1635.3483535067994126     9.39e-07  7.48e-06  3.53e-04  1.98e-04     1.3
   11    -1635.3483551557542341    -1.65e-06  7.36e-06  6.03e-04  4.97e-05     1.3
   12    -1635.3483550677697167     8.80e-08  3.67e-06  2.79e-04  5.33e-05     1.2
   13    -1635.3483553152559580    -2.47e-07  2.99e-06  1.84e-04  3.05e-05     1.3
   14    -1635.3483552742713982     4.10e-08  1.78e-06  9.80e-05  4.53e-05     1.2
   15    -1635.3483553563096393    -8.20e-08  8.83e-07  6.87e-05  4.74e-06     1.2
   16    -1635.3483553215405664     3.48e-08  5.11e-07  4.28e-05  5.02e-06     1.2
   17    -1635.3483553420023782    -2.05e-08  2.86e-07  1.38e-05  1.95e-06     1.1
                  *** Gradient check signals convergence ***

               *****************************************************
               *                     SUCCESS                       *
               *           SCF CONVERGED AFTER  17 CYCLES          *
               *****************************************************

             **** ENERGY FILE WAS UPDATED (data/geom_opt_P_BP86/87708/87708.en.tmp) ****

----------------
TOTAL SCF ENERGY
----------------

Total Energy       :      -1635.34835534200238 Eh          -44500.09109 eV

Components:
Nuclear Repulsion  :       2557.65821580133570 Eh           69597.41832 eV
Electronic Energy  :      -4193.00657114333808 Eh         -114097.50941 eV
One Electron Energy:      -7325.73021952789895 Eh         -199343.25369 eV
Two Electron Energy:       3132.72364838456133 Eh           85245.74428 eV

Virial components:
Potential Energy   :      -3257.40934935830865 Eh          -88638.61470 eV
Kinetic Energy     :       1622.06099401630627 Eh           44138.52361 eV
Virial Ratio       :          2.00819165331927

DFT components:
N(Alpha)           :      100.999994973279 electrons
N(Beta)            :      100.999994973279 electrons
N(Total)           :      201.999989946558 electrons
E(X)               :     -181.850833123778 Eh       
E(C)               :       -7.520114879839 Eh       
E(XC)              :     -189.370948003616 Eh       

---------------
SCF CONVERGENCE
---------------

  Last Energy change         ...    2.0462e-08  Tolerance :   1.0000e-08
  Last MAX-Density change    ...    1.3779e-05  Tolerance :   1.0000e-07
  Last RMS-Density change    ...    2.8585e-07  Tolerance :   5.0000e-09
  Last DIIS Error            ...    2.1010e-03  Tolerance :   5.0000e-07
  Last Orbital Gradient      ...    1.9501e-06  Tolerance :   1.0000e-05
  Last Orbital Rotation      ...    8.3376e-06  Tolerance :   1.0000e-05


----------------
ORBITAL ENERGIES
----------------

  NO   OCC          E(Eh)            E(eV) 
   0   2.0000     -76.336171     -2077.2128 
   1   2.0000     -65.498775     -1782.3123 
   2   2.0000     -18.773035      -510.8403 
   3   2.0000     -18.772142      -510.8159 
   4   2.0000     -18.767321      -510.6848 
   5   2.0000      -9.961879      -271.0765 
   6   2.0000      -9.960342      -271.0347 
   7   2.0000      -9.954416      -270.8734 
   8   2.0000      -9.925908      -270.0977 
   9   2.0000      -9.924094      -270.0483 
  10   2.0000      -9.923537      -270.0332 
  11   2.0000      -9.922484      -270.0045 
  12   2.0000      -9.921181      -269.9691 
  13   2.0000      -9.920725      -269.9567 
  14   2.0000      -9.920496      -269.9504 
  15   2.0000      -9.919777      -269.9309 
  16   2.0000      -9.918773      -269.9035 
  17   2.0000      -9.917767      -269.8762 
  18   2.0000      -9.916446      -269.8402 
  19   2.0000      -9.916200      -269.8335 
  20   2.0000      -9.913594      -269.7626 
  21   2.0000      -9.904285      -269.5093 
  22   2.0000      -9.902875      -269.4709 
  23   2.0000      -9.902591      -269.4632 
  24   2.0000      -9.899442      -269.3775 
  25   2.0000      -6.306521      -171.6092 
  26   2.0000      -5.099612      -138.7675 
  27   2.0000      -4.527988      -123.2128 
  28   2.0000      -4.527661      -123.2039 
  29   2.0000      -4.524138      -123.1081 
  30   2.0000      -3.516401       -95.6861 
  31   2.0000      -3.515507       -95.6618 
  32   2.0000      -3.511890       -95.5634 
  33   2.0000      -0.928304       -25.2604 
  34   2.0000      -0.904885       -24.6232 
  35   2.0000      -0.899051       -24.4644 
  36   2.0000      -0.780852       -21.2481 
  37   2.0000      -0.773766       -21.0552 
  38   2.0000      -0.711816       -19.3695 
  39   2.0000      -0.681803       -18.5528 
  40   2.0000      -0.675315       -18.3763 
  41   2.0000      -0.674501       -18.3541 
  42   2.0000      -0.671248       -18.2656 
  43   2.0000      -0.670785       -18.2530 
  44   2.0000      -0.668325       -18.1861 
  45   2.0000      -0.666494       -18.1362 
  46   2.0000      -0.592455       -16.1215 
  47   2.0000      -0.558713       -15.2034 
  48   2.0000      -0.550746       -14.9866 
  49   2.0000      -0.548121       -14.9151 
  50   2.0000      -0.545431       -14.8419 
  51   2.0000      -0.542590       -14.7646 
  52   2.0000      -0.538691       -14.6585 
  53   2.0000      -0.537192       -14.6177 
  54   2.0000      -0.501029       -13.6337 
  55   2.0000      -0.485882       -13.2215 
  56   2.0000      -0.470539       -12.8040 
  57   2.0000      -0.449593       -12.2340 
  58   2.0000      -0.447512       -12.1774 
  59   2.0000      -0.441219       -12.0062 
  60   2.0000      -0.428739       -11.6666 
  61   2.0000      -0.424470       -11.5504 
  62   2.0000      -0.414374       -11.2757 
  63   2.0000      -0.411798       -11.2056 
  64   2.0000      -0.411060       -11.1855 
  65   2.0000      -0.404253       -11.0003 
  66   2.0000      -0.402860       -10.9624 
  67   2.0000      -0.397817       -10.8252 
  68   2.0000      -0.379014       -10.3135 
  69   2.0000      -0.376820       -10.2538 
  70   2.0000      -0.374499       -10.1906 
  71   2.0000      -0.373126       -10.1533 
  72   2.0000      -0.364141        -9.9088 
  73   2.0000      -0.363040        -9.8788 
  74   2.0000      -0.359620        -9.7858 
  75   2.0000      -0.351171        -9.5559 
  76   2.0000      -0.343126        -9.3369 
  77   2.0000      -0.339157        -9.2289 
  78   2.0000      -0.336295        -9.1510 
  79   2.0000      -0.335261        -9.1229 
  80   2.0000      -0.333321        -9.0701 
  81   2.0000      -0.328733        -8.9453 
  82   2.0000      -0.324509        -8.8303 
  83   2.0000      -0.319506        -8.6942 
  84   2.0000      -0.317795        -8.6476 
  85   2.0000      -0.315600        -8.5879 
  86   2.0000      -0.307568        -8.3693 
  87   2.0000      -0.305654        -8.3173 
  88   2.0000      -0.292336        -7.9549 
  89   2.0000      -0.287222        -7.8157 
  90   2.0000      -0.277612        -7.5542 
  91   2.0000      -0.267113        -7.2685 
  92   2.0000      -0.257403        -7.0043 
  93   2.0000      -0.247736        -6.7412 
  94   2.0000      -0.240417        -6.5421 
  95   2.0000      -0.240059        -6.5323 
  96   2.0000      -0.237780        -6.4703 
  97   2.0000      -0.234071        -6.3694 
  98   2.0000      -0.229845        -6.2544 
  99   2.0000      -0.229363        -6.2413 
 100   2.0000      -0.178993        -4.8707 
 101   0.0000      -0.057575        -1.5667 
 102   0.0000      -0.049528        -1.3477 
 103   0.0000      -0.044731        -1.2172 
 104   0.0000      -0.038945        -1.0597 
 105   0.0000       0.016665         0.4535 
 106   0.0000       0.030797         0.8380 
 107   0.0000       0.035644         0.9699 
 108   0.0000       0.038557         1.0492 
 109   0.0000       0.045568         1.2400 
 110   0.0000       0.054606         1.4859 
 111   0.0000       0.059225         1.6116 
*Only the first 10 virtual orbitals were printed.

                    ********************************
                    * MULLIKEN POPULATION ANALYSIS *
                    ********************************

-----------------------
MULLIKEN ATOMIC CHARGES
-----------------------
   0 C :   -0.046135
   1 C :    0.136814
   2 O :   -0.450520
   3 Si:    0.758984
   4 C :   -0.220006
   5 C :   -0.166576
   6 P :    0.225704
   7 C :   -0.119237
   8 C :    0.000789
   9 C :    0.011002
  10 C :    0.011477
  11 C :    0.007333
  12 C :    0.007801
  13 C :   -0.082647
  14 C :   -0.014311
  15 C :    0.009634
  16 C :    0.004457
  17 C :    0.011901
  18 C :   -0.025886
  19 O :   -0.438184
  20 C :    0.146429
  21 C :   -0.048349
  22 O :   -0.438849
  23 C :    0.137789
  24 C :   -0.051537
  25 H :    0.033804
  26 H :    0.023859
  27 H :    0.031963
  28 H :    0.021017
  29 H :    0.027435
  30 H :    0.067160
  31 H :    0.063127
  32 H :    0.061489
  33 H :    0.064588
  34 H :    0.009578
  35 H :   -0.004190
  36 H :   -0.003042
  37 H :   -0.002475
  38 H :   -0.006370
  39 H :   -0.002227
  40 H :   -0.005325
  41 H :   -0.006467
  42 H :   -0.006354
  43 H :   -0.009690
  44 H :    0.020074
  45 H :    0.029318
  46 H :    0.029288
  47 H :    0.021372
  48 H :    0.034087
  49 H :    0.015921
  50 H :    0.035106
  51 H :    0.033508
  52 H :    0.032697
  53 H :    0.022870
Sum of atomic charges:   -0.0000000

--------------------------------
MULLIKEN REDUCED ORBITAL CHARGES
--------------------------------
  0 C s       :     3.004044  s :     3.004044
      pz      :     0.992432  p :     3.016876
      px      :     1.027797
      py      :     0.996647
      dz2     :     0.006574  d :     0.025215
      dxz     :     0.004747
      dyz     :     0.004622
      dx2y2   :     0.007203
      dxy     :     0.002070

  1 C s       :     2.995746  s :     2.995746
      pz      :     1.025032  p :     2.806233
      px      :     1.034457
      py      :     0.746744
      dz2     :     0.010926  d :     0.061207
      dxz     :     0.005818
      dyz     :     0.015687
      dx2y2   :     0.016631
      dxy     :     0.012145

  2 O s       :     3.770340  s :     3.770340
      pz      :     1.589757  p :     4.669724
      px      :     1.747221
      py      :     1.332746
      dz2     :     0.002499  d :     0.010456
      dxz     :     0.001487
      dyz     :     0.001957
      dx2y2   :     0.002593
      dxy     :     0.001920

  3 Sis       :     4.941848  s :     4.941848
      pz      :     2.519587  p :     7.744979
      px      :     2.688461
      py      :     2.536931
      dz2     :     0.132183  d :     0.554189
      dxz     :     0.091344
      dyz     :     0.111760
      dx2y2   :     0.125171
      dxy     :     0.093731

  4 C s       :     3.094702  s :     3.094702
      pz      :     0.991956  p :     3.102327
      px      :     1.096987
      py      :     1.013384
      dz2     :     0.007087  d :     0.022977
      dxz     :     0.003770
      dyz     :     0.004237
      dx2y2   :     0.006057
      dxy     :     0.001826

  5 C s       :     3.085771  s :     3.085771
      pz      :     1.021975  p :     3.050561
      px      :     0.992186
      py      :     1.036399
      dz2     :     0.007630  d :     0.030244
      dxz     :     0.006088
      dyz     :     0.005193
      dx2y2   :     0.008252
      dxy     :     0.003081

  6 P s       :     5.688124  s :     5.688124
      pz      :     3.186433  p :     8.913369
      px      :     2.902569
      py      :     2.824367
      dz2     :     0.036236  d :     0.172804
      dxz     :     0.019758
      dyz     :     0.031443
      dx2y2   :     0.054877
      dxy     :     0.030490

  7 C s       :     3.072612  s :     3.072612
      pz      :     1.009084  p :     3.011383
      px      :     1.014649
      py      :     0.987650
      dz2     :     0.009508  d :     0.035241
      dxz     :     0.006174
      dyz     :     0.011437
      dx2y2   :     0.004388
      dxy     :     0.003734

  8 C s       :     3.229460  s :     3.229460
      pz      :     0.912418  p :     2.736893
      px      :     0.955921
      py      :     0.868554
      dz2     :     0.007885  d :     0.032858
      dxz     :     0.004043
      dyz     :     0.011913
      dx2y2   :     0.004279
      dxy     :     0.004739

  9 C s       :     3.170020  s :     3.170020
[...]
      px      :     0.014523
      py      :     0.029055

 35 H s       :     0.901101  s :     0.901101
      pz      :     0.039674  p :     0.065846
      px      :     0.013751
      py      :     0.012420

 36 H s       :     0.901798  s :     0.901798
      pz      :     0.013527  p :     0.065903
      px      :     0.014535
      py      :     0.037840

 37 H s       :     0.901652  s :     0.901652
      pz      :     0.024975  p :     0.065795
      px      :     0.014420
      py      :     0.026400

 38 H s       :     0.905353  s :     0.905353
      pz      :     0.040299  p :     0.066707
      px      :     0.013889
      py      :     0.012518

 39 H s       :     0.902607  s :     0.902607
      pz      :     0.016837  p :     0.066590
      px      :     0.027666
      py      :     0.022087

 40 H s       :     0.901689  s :     0.901689
      pz      :     0.016316  p :     0.065725
      px      :     0.036826
      py      :     0.012584

 41 H s       :     0.902480  s :     0.902480
      pz      :     0.030615  p :     0.065958
      px      :     0.012218
      py      :     0.023125

 42 H s       :     0.900863  s :     0.900863
      pz      :     0.016701  p :     0.065806
      px      :     0.027523
      py      :     0.021581

 43 H s       :     0.899431  s :     0.899431
      pz      :     0.016631  p :     0.072427
      px      :     0.043188
      py      :     0.012608

 44 H s       :     0.925672  s :     0.925672
      pz      :     0.026876  p :     0.063182
      px      :     0.024231
      py      :     0.012075

 45 H s       :     0.921975  s :     0.921975
      pz      :     0.015314  p :     0.063576
      px      :     0.008921
      py      :     0.039342

 46 H s       :     0.905050  s :     0.905050
      pz      :     0.014847  p :     0.063749
      px      :     0.011835
      py      :     0.037067

 47 H s       :     0.903419  s :     0.903419
      pz      :     0.016237  p :     0.063588
      px      :     0.033833
      py      :     0.013518

 48 H s       :     0.902811  s :     0.902811
      pz      :     0.027092  p :     0.063859
      px      :     0.024547
      py      :     0.012220

 49 H s       :     0.918729  s :     0.918729
      pz      :     0.011841  p :     0.061528
      px      :     0.018328
      py      :     0.031359

 50 H s       :     0.922227  s :     0.922227
      pz      :     0.040682  p :     0.064374
      px      :     0.012258
      py      :     0.011434

 51 H s       :     0.906922  s :     0.906922
      pz      :     0.037891  p :     0.064197
      px      :     0.013224
      py      :     0.013082

 52 H s       :     0.906293  s :     0.906293
      pz      :     0.013971  p :     0.065231
      px      :     0.019107
      py      :     0.032153

 53 H s       :     0.901628  s :     0.901628
      pz      :     0.019797  p :     0.063905
      px      :     0.016633
      py      :     0.027475



                      *****************************
                      * MAYER POPULATION ANALYSIS *
                      *****************************

  NA   - Mulliken gross atomic population
  ZA   - Total nuclear charge
  QA   - Mulliken gross atomic charge
  VA   - Mayer's total valence
  BVA  - Mayer's bonded valence
  FA   - Mayer's free valence

  ATOM       NA         ZA         QA         VA         BVA        FA
  0 C      6.0625     6.0000    -0.0625     4.0068     4.0068    -0.0000
  1 C      5.8733     6.0000     0.1267     4.0554     4.0554    -0.0000
  2 O      8.4557     8.0000    -0.4557     2.1631     2.1631    -0.0000
  3 Si    13.2258    14.0000     0.7742     4.5653     4.5653    -0.0000
  4 C      6.1925     6.0000    -0.1925     3.8545     3.8545    -0.0000
  5 C      6.1853     6.0000    -0.1853     3.9495     3.9495    -0.0000
  6 P     14.7641    15.0000     0.2359     3.0209     3.0209    -0.0000
  7 C      6.1297     6.0000    -0.1297     3.8310     3.8310    -0.0000
  8 C      6.0043     6.0000    -0.0043     3.8993     3.8993    -0.0000
  9 C      5.9971     6.0000     0.0029     3.8426     3.8426    -0.0000
 10 C      5.9983     6.0000     0.0017     3.8280     3.8280    -0.0000
 11 C      6.0006     6.0000    -0.0006     3.8527     3.8527    -0.0000
 12 C      5.9967     6.0000     0.0033     3.8630     3.8630    -0.0000
 13 C      6.1252     6.0000    -0.1252     3.7717     3.7717    -0.0000
 14 C      6.0054     6.0000    -0.0054     3.8884     3.8884    -0.0000
 15 C      6.0000     6.0000    -0.0000     3.8622     3.8622    -0.0000
 16 C      6.0007     6.0000    -0.0007     3.8203     3.8203    -0.0000
 17 C      5.9973     6.0000     0.0027     3.8595     3.8595    -0.0000
 18 C      6.0251     6.0000    -0.0251     3.9012     3.9012    -0.0000
 19 O      8.4262     8.0000    -0.4262     2.1965     2.1965    -0.0000
 20 C      5.8719     6.0000     0.1281     4.0459     4.0459    -0.0000
 21 C      6.0576     6.0000    -0.0576     4.0083     4.0083    -0.0000
 22 O      8.4522     8.0000    -0.4522     2.1791     2.1791    -0.0000
 23 C      5.8471     6.0000     0.1529     4.0538     4.0538    -0.0000
 24 C      6.0922     6.0000    -0.0922     4.0093     4.0093    -0.0000
 25 H      0.9599     1.0000     0.0401     0.9934     0.9934     0.0000
 26 H      0.9698     1.0000     0.0302     0.9875     0.9875    -0.0000
 27 H      0.9594     1.0000     0.0406     0.9934     0.9934    -0.0000
 28 H      0.9793     1.0000     0.0207     0.9718     0.9718    -0.0000
 29 H      0.9733     1.0000     0.0267     0.9724     0.9724     0.0000
 30 H      0.9316     1.0000     0.0684     0.9855     0.9855    -0.0000
 31 H      0.9276     1.0000     0.0724     1.0121     1.0121    -0.0000
 32 H      0.9409     1.0000     0.0591     0.9817     0.9817    -0.0000
 33 H      0.9278     1.0000     0.0722     0.9856     0.9856    -0.0000
 34 H      0.9763     1.0000     0.0237     0.9923     0.9923     0.0000
 35 H      0.9978     1.0000     0.0022     0.9790     0.9790    -0.0000
 36 H      0.9964     1.0000     0.0036     0.9787     0.9787     0.0000
 37 H      0.9973     1.0000     0.0027     0.9787     0.9787    -0.0000
 38 H      1.0008     1.0000    -0.0008     0.9908     0.9908    -0.0000
 39 H      0.9969     1.0000     0.0031     0.9909     0.9909    -0.0000
 40 H      0.9977     1.0000     0.0023     0.9785     0.9785    -0.0000
 41 H      0.9985     1.0000     0.0015     0.9786     0.9786     0.0000
 42 H      0.9992     1.0000     0.0008     0.9783     0.9783     0.0000
 43 H      1.0032     1.0000    -0.0032     1.0341     1.0341     0.0000
 44 H      0.9773     1.0000     0.0227     0.9725     0.9725    -0.0000
 45 H      0.9730     1.0000     0.0270     0.9814     0.9814    -0.0000
 46 H      0.9624     1.0000     0.0376     0.9928     0.9928     0.0000
 47 H      0.9729     1.0000     0.0271     0.9876     0.9876    -0.0000
 48 H      0.9582     1.0000     0.0418     0.9932     0.9932    -0.0000
 49 H      0.9768     1.0000     0.0232     0.9696     0.9696     0.0000
 50 H      0.9730     1.0000     0.0270     0.9856     0.9856     0.0000
 51 H      0.9583     1.0000     0.0417     0.9918     0.9918    -0.0000
 52 H      0.9574     1.0000     0.0426     1.0113     1.0113    -0.0000
 53 H      0.9700     1.0000     0.0300     0.9888     0.9888    -0.0000

  Mayer bond orders larger than 0.100000
B(  0-C ,  1-C ) :   1.1174 B(  0-C , 25-H ) :   0.9661 B(  0-C , 26-H ) :   0.9531 
B(  0-C , 27-H ) :   0.9648 B(  1-C ,  2-O ) :   0.9737 B(  1-C , 28-H ) :   0.9352 
B(  1-C , 29-H ) :   0.9336 B(  2-O ,  3-Si) :   1.0509 B(  3-Si,  4-C ) :   0.9629 
B(  3-Si, 19-O ) :   1.1593 B(  3-Si, 22-O ) :   1.0585 B(  4-C ,  5-C ) :   1.0102 
B(  4-C , 30-H ) :   0.9209 B(  4-C , 31-H ) :   0.9177 B(  5-C ,  6-P ) :   0.9724 
B(  5-C , 32-H ) :   0.9362 B(  5-C , 33-H ) :   0.9193 B(  6-P ,  7-C ) :   0.9354 
B(  6-P , 13-C ) :   0.9247 B(  7-C ,  8-C ) :   1.3824 B(  7-C , 12-C ) :   1.3684 
B(  8-C ,  9-C ) :   1.3919 B(  8-C , 34-H ) :   0.9597 B(  9-C , 10-C ) :   1.3771 
B(  9-C , 35-H ) :   0.9739 B( 10-C , 11-C ) :   1.3794 B( 10-C , 36-H ) :   0.9756 
B( 11-C , 12-C ) :   1.3974 B( 11-C , 37-H ) :   0.9756 B( 12-C , 38-H ) :   0.9700 
B( 13-C , 14-C ) :   1.3489 B( 13-C , 18-C ) :   1.3703 B( 14-C , 15-C ) :   1.4172 
B( 14-C , 39-H ) :   0.9712 B( 15-C , 16-C ) :   1.3658 B( 15-C , 40-H ) :   0.9755 
B( 16-C , 17-C ) :   1.3810 B( 16-C , 41-H ) :   0.9760 B( 17-C , 18-C ) :   1.3997 
B( 17-C , 42-H ) :   0.9736 B( 18-C , 43-H ) :   0.9564 B( 19-O , 20-C ) :   0.9545 
B( 20-C , 21-C ) :   1.1177 B( 20-C , 44-H ) :   0.9371 B( 20-C , 45-H ) :   0.9370 
B( 21-C , 46-H ) :   0.9655 B( 21-C , 47-H ) :   0.9526 B( 21-C , 48-H ) :   0.9646 
B( 22-O , 23-C ) :   0.9570 B( 23-C , 24-C ) :   1.1220 B( 23-C , 49-H ) :   0.9447 
B( 23-C , 50-H ) :   0.9340 B( 24-C , 51-H ) :   0.9598 B( 24-C , 52-H ) :   0.9583 
B( 24-C , 53-H ) :   0.9512 

-------
TIMINGS
-------

Total SCF time: 0 days 0 hours 0 min 9 sec 

Total time                  ....       9.015 sec
Sum of individual times     ....       8.871 sec  ( 98.4%)

SCF preparation             ....       0.201 sec  (  2.2%)
Fock matrix formation       ....       7.699 sec  ( 85.4%)
  Startup                   ....       0.038 sec  (  0.5% of F)
  Split-RI-J                ....       2.989 sec  ( 38.8% of F)
  XC integration            ....       4.534 sec  ( 58.9% of F)
    Basis function eval.    ....       1.450 sec  ( 32.0% of XC)
    Density eval.           ....       1.422 sec  ( 31.4% of XC)
    XC-Functional eval.     ....       0.115 sec  (  2.5% of XC)
    XC-Potential eval.      ....       0.985 sec  ( 21.7% of XC)
Diagonalization             ....       0.000 sec  (  0.0%)
Density matrix formation    ....       0.101 sec  (  1.1%)
Total Energy calculation    ....       0.033 sec  (  0.4%)
Population analysis         ....       0.207 sec  (  2.3%)
Orbital Transformation      ....       0.089 sec  (  1.0%)
Orbital Orthonormalization  ....       0.000 sec  (  0.0%)
DIIS solution               ....       0.105 sec  (  1.2%)
SOSCF solution              ....       0.436 sec  (  4.8%)
Finished LeanSCF after   9.1 sec

Maximum memory used throughout the entire LEANSCF-calculation: 59.9 MB


-------------------------------------------------------------------------------
                          DFT DISPERSION CORRECTION                            
                                                                               
                              DFTD3 V3.1  Rev 1                                
                          USING Becke-Johnson damping                          
-------------------------------------------------------------------------------
The BP86 functional is recognized
Active option DFTDOPT                   ...         4   

molecular C6(AA) [au] = 31972.964843 


            DFT-D V3
 parameters
 s6 scaling factor         :     1.0000 
 a1 scaling factor         :     0.3946 
 s8 scaling factor         :     3.2822 
 a2 scaling factor         :     4.8516 
 ad hoc parameters k1-k3   :    16.0000     1.3333    -4.0000 

 Edisp/kcal,au: -71.387879263160  -0.113763814889 
 E6   /kcal   : -26.560885369 
 E8   /kcal   : -44.826993894 
 % E8         :  62.793564337 

-------------------------   ----------------
Dispersion correction           -0.113763815
-------------------------   ----------------


-------------------------   --------------------
FINAL SINGLE POINT ENERGY     -1635.474761740501
-------------------------   --------------------

                                *** OPTIMIZATION RUN DONE ***



           ************************************************************
           *        Program running with 6 parallel MPI-processes     *
           *              working on a common directory               *
           ************************************************************

------------------------------------------------------------------------------
                              ORCA PROPERTY CALCULATIONS
------------------------------------------------------------------------------

GBWName                                 ... data/geom_opt_P_BP86/87708/87708.gbw
Number of atoms                         ...     54
Number of basis functions               ...    503
Max core memory                         ...   1024 MB

Electric properties:
Dipole moment                           ... YES
Quadrupole moment                       ...  NO
Static polarizability (Dipole/Dipole)   ...  NO
Static polarizability (Dipole/Quad.)    ...  NO
Static polarizability (Quad./Quad.)     ...  NO
Static polarizability (Velocity)        ...  NO

Atomic electric properties:
Dipole moment                           ...  NO
Quadrupole moment                       ...  NO
Static polarizability                   ...  NO

Choice of electric origin               ... Center of mass
Position of electric origin             ...    -0.888041     0.050556     0.224645

General magnetic properties:
Magnetizability                         ...  NO

EPR properties:
g-Tensor (aka g-matrix)                 ...  NO
Zero-Field splitting spin-orbit         ...  NO
Zero-field splitting spin-spin          ...  NO
Hyperfine couplings                     ...  NO (   0 nuclei)
Quadrupole couplings                    ...  NO (   0 nuclei)
Contact density                         ...  NO (   0 nuclei)

NMR properties:
Chemical shifts                         ...  NO (   0 nuclei)
Spin-rotation constants                 ...  NO (   0 nuclei)
Spin-spin couplings                     ...  NO (   0 nuclei,    0 pairs)

Choice of magnetic origin               ... GIAO
Position of magnetic origin             ...     0.000000     0.000000     0.000000

Properties with geometric perturbations:
SCF Hessian                             ...  NO
IR spectrum                             ...  NO
VCD spectrum                            ...  NO
X-ray spectroscopy properties:
SCF XES/XAS/RIXS spectra                ...  NO


-------------
DIPOLE MOMENT
-------------

Method             : SCF
Type of density    : Electron Density
Multiplicity       :   1
Irrep              :   0
Energy             : -1635.3609979256125371 Eh
Relativity type    : 
Basis              : AO
                                X                 Y                 Z
Electronic contribution:    -28.932066318       0.312805261       0.649833623
Nuclear contribution   :     29.784923166      -0.679700548      -0.655255563
                        -----------------------------------------
Total Dipole Moment    :      0.852856848      -0.366895287      -0.005421941
                        -----------------------------------------
Magnitude (a.u.)       :      0.928442972
Magnitude (Debye)      :      2.359914490



--------------------
Rotational spectrum 
--------------------
 
Rotational constants in cm-1:             0.007401             0.004223             0.003468 
Rotational constants in MHz :           221.876560           126.604441           103.958810 

Dipole components along the rotational axes: 
x,y,z [a.u.] :     0.788165    -0.415382    -0.261268 
x,y,z [Debye]:     2.003355    -1.055817    -0.664090 

 

Dipole moment calculation done in   0.1 sec 

Maximum memory used throughout the entire PROP-calculation: 32.1 MB

--------------------------------
SUGGESTED CITATIONS FOR THIS RUN
--------------------------------

Below you find a list of papers that are relevant to this ORCA run
We neither can nor want to force you to cite these papers, but we appreciate if you do
You receive ORCA, which is the product of decades of hard work by many enthusiastic individuals, for free
The only thing we kindly ask in return is that you cite our papers,
We deeply appreciate it, if you show your appreciation for ORCA by not just citing the generic ORCA reference.

Please note that relegating all ORCA citations to the supporting information does *not* help us.
SI sections are not indexed - citations you put there will not count into any citation statistics
But we need these citations in order to attract the funding resources that allow us to do what we are doing

Therefore, if you are a happy ORCA user, please consider citing a few of the papers listed below in the main body of your paper

In addition to the list printed below, the program has created the file data/geom_opt_P_BP86/87708/87708.bibtex that contains the list in bibtex format
You can import this file easily into all common literature databanks and citation aid programs


List of essential papers. We consider these as the minimum necessary citations

  1. Neese,F.
     Software update: the ORCA program system, version 5.0
     WIRES Comput. Molec. Sci., 2022 12(1)e1606
     doi.org/10.1002/wcms.1606

List of papers to cite with high priority. The work reported in these papers was absolutely
necessary for this run to complete.
Our perspective: the developers of density functionals and basis sets usually get cited in chemistry papers
Good! But without the algorithms to do something with them, the functionals or basis sets would not do anything.
Hence, in our opinion, the algorithm design and method developments papers are equally worthy of getting cited

  1. Neese,F.
     An improvement of the resolution of the identity approximation for the formation of the Coulomb matrix
     J. Comp. Chem., 2003 24(14)1740-1747
     doi.org/10.1002/jcc.10318
  2. Neese,F.
     The SHARK Integral Generation and Digestion System
     J. Comp. Chem., 2022  1-16
     doi.org/10.1002/jcc.26942
  3. Grimme,S.; Antony,J.; Ehrlich,S.; Krieg,H.
     A consistent and accurate ab initio parametrization of density functional dispersion correction (DFT-D) for the 94 elements H-Pu
     J. Chem. Phys., 2010 132 154104-XXXX
     doi.org/10.1063/1.3382344
  4. Grimme,S.; Ehrlich,S.; Goerigk,L.
     Effect of the damping function in dispersion corrected density functional theory
     J. Comput. Chem., 2011 32(7)1456-1465
     doi.org/10.1002/jcc.21759

List of suggested additional citations. These are papers that are important in the 'surrounding' of 
of this run, or papers that preceded the highly important papers. If you like your results we are grateful for a citation.

  1. Neese,F.
     The ORCA program system
     WIRES Comput. Molec. Sci., 2012 2(1)73-78
     doi.org/10.1002/wcms.81
  2. Neese,F.
     Software update: the ORCA program system, version 4.0
     WIRES Comput. Molec. Sci., 2018 8(1)1-6
     doi.org/10.1002/wcms.1327
  3. Neese,F.; Wennmohs,F.; Becker,U.; Riplinger,C.
     The ORCA quantum chemistry program package
     J. Chem. Phys., 2020 152 Art. No. L224108
     doi.org/10.1063/5.0004608

List of optional additional citations

  1. Neese,F.
     Approximate second-order SCF convergence for spin unrestricted wavefunctions
     Chem. Phys. Lett., 2000 325(1-3)93-98
     doi.org/10.1016/s0009-2614(00)00662-x

Timings for individual modules:

Sum of individual times          ...      809.478 sec (=  13.491 min)
Startup calculation              ...       64.710 sec (=   1.079 min)   8.0 %
SCF iterations                   ...      471.815 sec (=   7.864 min)  58.3 %
Property calculations            ...        0.272 sec (=   0.005 min)   0.0 %
SCF Gradient evaluation          ...      271.699 sec (=   4.528 min)  33.6 %
Geometry relaxation              ...        0.982 sec (=   0.016 min)   0.1 %
                             ****ORCA TERMINATED NORMALLY****
TOTAL RUN TIME: 0 days 0 hours 13 minutes 35 seconds 827 msec
