
                                 *****************
                                 * O   R   C   A *
                                 *****************

                                            #,                                       
                                            ###                                      
                                            ####                                     
                                            #####                                    
                                            ######                                   
                                           ########,                                 
                                     ,,################,,,,,                         
                               ,,#################################,,                 
                          ,,##########################################,,             
                       ,#########################################, ''#####,          
                    ,#############################################,,   '####,        
                  ,##################################################,,,,####,       
                ,###########''''           ''''###############################       
              ,#####''   ,,,,##########,,,,          '''####'''          '####       
            ,##' ,,,,###########################,,,                        '##       
           ' ,,###''''                  '''############,,,                           
         ,,##''                                '''############,,,,        ,,,,,,###''
      ,#''                                            '''#######################'''  
     '                                                          ''''####''''         
             ,#######,   #######,   ,#######,      ##                                
            ,#'     '#,  ##    ##  ,#'     '#,    #''#        ,####,   ,####,        
            ##       ##  ##   ,#'  ##            #'  '#       #'       #'  '#        
            ##       ##  #######   ##           ,######,      #####,   #    #        
            '#,     ,#'  ##    ##  '#,     ,#' ,#      #,     #,   #   #,  ,#        
             '#######'   ##     ##  '#######'  #'      '#     '####' # '####'        



                #########################################################
                #                        -***-                          #
                #          Department of theory and spectroscopy        #
                #                                                       #
                #                      Frank Neese                      #
                #                                                       #
                #     Directorship, Architecture, Infrastructure        #
                #                    SHARK, DRIVERS                     #
                #        Core code/Algorithms in most modules           #
                #                                                       #
                #        Max Planck Institute fuer Kohlenforschung      #
                #                Kaiser Wilhelm Platz 1                 #
                #                 D-45470 Muelheim/Ruhr                 #
                #                      Germany                          #
                #                                                       #
                #                  All rights reserved                  #
                #                        -***-                          #
                #########################################################


                         Program Version 6.0.0  -   RELEASE   -


 With contributions from (in alphabetic order):
   Daniel Aravena         : Magnetic Suceptibility
   Michael Atanasov       : Ab Initio Ligand Field Theory (pilot matlab implementation)
   Alexander A. Auer      : GIAO ZORA, VPT2 properties, NMR spectrum
   Ute Becker             : All parallelization in ORCA, NUMFREQ, NUMCALC
   Giovanni Bistoni       : ED, misc. LED, open-shell LED, HFLD
   Martin Brehm           : Molecular dynamics
   Dmytro Bykov           : pre 5.0 version of the SCF Hessian
   Marcos Casanova-Páez   : Triplet and SCS-CIS(D). UHF-(DLPNO)-IP/EA/STEOM-CCSD. UHF-CVS-IP/STEOM-CCSD
   Vijay G. Chilkuri      : MRCI spin determinant printing, contributions to CSF-ICE
   Pauline Colinet        : FMM embedding
   Dipayan Datta          : RHF DLPNO-CCSD density
   Achintya Kumar Dutta   : EOM-CC, STEOM-CC
   Nicolas Foglia         : Exact transition moments, OPA infrastructure, MCD improvements
   Dmitry Ganyushin       : Spin-Orbit,Spin-Spin,Magnetic field MRCI
   Miquel Garcia          : C-PCM and meta-GGA Hessian, CCSD/C-PCM, Gaussian charge scheme
   Tiago L. C. Gouveia    : GS-ROHF, GS-ROCIS
   Yang Guo               : DLPNO-NEVPT2, F12-NEVPT2, CIM, IAO-localization
   Andreas Hansen         : Spin unrestricted coupled pair/coupled cluster methods
   Ingolf Harden          : AUTO-CI MPn and infrastructure 
   Benjamin Helmich-Paris : MC-RPA, TRAH-(SCF,CASSCF), AVAS, COSX integrals, SCF dyn. polar.
   Lee Huntington         : MR-EOM, pCC
   Robert Izsak           : Overlap fitted RIJCOSX, COSX-SCS-MP3, EOM
   Riya Kayal             : Wick's Theorem for AUTO-CI, AUTO-CI UHF-CCSDT
   Emily Kempfer          : AUTO-CI, RHF CISDT and CCSDT
   Christian Kollmar      : KDIIS, OOCD, Brueckner-CCSD(T), CCSD density, CASPT2, CASPT2-K, improved NEVPT2
   Axel Koslowski         : Symmetry handling
   Simone Kossmann        : Meta GGA functionals, TD-DFT gradient, OOMP2, (MP2 Hessian; deprecated post 5.0)
   Lucas Lang             : DCDCAS
   Marvin Lechner         : AUTO-CI (C++ implementation), FIC-MRCC
   Spencer Leger          : CASSCF response
   Dagmar Lenk            : GEPOL surface, SMD, ORCA-2-JSON
   Dimitrios Liakos       : Extrapolation schemes; Compound Job, initial MDCI parallelization
   Dimitrios Manganas     : Further ROCIS development; embedding schemes. LFT, Crystal Embedding
   Dimitrios Pantazis     : SARC Basis sets
   Anastasios Papadopoulos: AUTO-CI, single reference methods and gradients
   Taras Petrenko         : pre 6.0 DFT Hessian and TD-DFT gradient, (ASA, deprecated), ECA, 1-Electron XAS/XES, NRVS
   Peter Pinski           : DLPNO-MP2, DLPNO-MP2 Gradient
   Christoph Reimann      : Effective Core Potentials
   Marius Retegan         : Local ZFS, SOC
   Christoph Riplinger    : Optimizer, TS searches, QM/MM, DLPNO-CCSD(T), (RO)-DLPNO pert. Triples
   Michael Roemelt        : Original ROCIS implementation
   Masaaki Saitow         : Open-shell DLPNO-CCSD energy and density
   Barbara Sandhoefer     : DKH picture change effects
   Kantharuban Sivalingam : CASSCF convergence/infrastructure, NEVPT2 and variants, FIC-MRCI
   Bernardo de Souza      : ESD, SOC TD-DFT
   Georgi Stoychev        : AutoAux, RI-MP2 NMR, DLPNO-MP2 response, X2C
   Van Anh Tran           : RI-MP2 g-tensors
   Willem Van den Heuvel  : Paramagnetic NMR
   Zikuan Wang            : NOTCH, Electric field optimization 
   Frank Wennmohs         : Technical directorship and infrastructure
   Hang Xu                : AUTO-CI-Response properties 


 We gratefully acknowledge several colleagues who have allowed us to
 interface, adapt or use parts of their codes:
   Stefan Grimme, W. Hujo, H. Kruse, P. Pracht,  : VdW corrections, initial TS optimization,
                  C. Bannwarth, S. Ehlert,         DFT functionals, gCP, sTDA/sTD-DF
                  L. Wittmann, M. Mueller
   Ed Valeev, F. Pavosevic, A. Kumar             : LibInt (2-el integral package), F12 methods
   Garnet Chan, S. Sharma, J. Yang, R. Olivares  : DMRG
   Ulf Ekstrom                                   : XCFun DFT Library
   Mihaly Kallay                                 : mrcc  (arbitrary order and MRCC methods)
   Frank Weinhold                                : gennbo (NPA and NBO analysis)
   Simon Mueller                                 : openCOSMO-RS
   Christopher J. Cramer and Donald G. Truhlar   : smd solvation model
   Lars Goerigk                                  : TD-DFT with DH, B97 family of functionals
   V. Asgeirsson, H. Jonsson                     : NEB implementation
   FAccTs GmbH                                   : IRC, NEB, NEB-TS, DLPNO-Multilevel, CI-OPT
                                                   MM, QMMM, 2- and 3-layer-ONIOM, Crystal-QMMM,
                                                   LR-CPCM, SF, NACMEs, symmetry and pop. for TD-DFT,
                                                   nearIR, NL-DFT gradient (VV10), updates on ESD,
                                                   ML-optimized integration grids, MBIS, APM,
                                                   GOAT, DOCKER, SOLVATOR, interface openCOSMO-RS
   S Lehtola, MJT Oliveira, MAL Marques          : LibXC Library
   Liviu Ungur et al                             : ANISO software


 Your calculation uses the libint2 library for the computation of 2-el integrals
 For citations please refer to: http://libint.valeyev.net

 Your ORCA version has been built with support for libXC version: 6.2.2
 For citations please refer to: https://libxc.gitlab.io

 This ORCA versions uses:
   CBLAS   interface :  Fast vector & matrix operations
   LAPACKE interface :  Fast linear algebra routines
   Shared memory     :  Shared parallel matrices


Your calculation utilizes the atom-pairwise dispersion correction
with the Becke-Johnson damping scheme (D3BJ)


Warning: RI is on but no J-basis has been assigned. Assigning Def2/J (nothing to worry about!)
================================================================================

----- Orbital basis set information -----
Your calculation utilizes the basis: def2-SVP
   F. Weigend and R. Ahlrichs, Phys. Chem. Chem. Phys. 7, 3297 (2005).

----- AuxJ basis set information -----
Your calculation utilizes the auxiliary basis: def2/J
   F. Weigend, Phys. Chem. Chem. Phys. 8, 1057 (2006).

================================================================================
                                        WARNINGS
                       Please study these warnings very carefully!
================================================================================


WARNING: Geometry Optimization
  ===> : Switching off AutoStart
         For restart on a previous wavefunction, please use MOREAD

================================================================================
                                       INPUT FILE
================================================================================
NAME = data/geom_opt/603962/603962.inp
|  1> ! RIJONX B3LYP def2-SVP D3BJ TIGHTSCF Opt
|  2> %pal
|  3> nprocs 6
|  4> end
|  5> 
|  6> * xyz 0 1
|  7> C     -1.542124   -3.912666    0.707674
|  8> C     -0.223742   -3.812667    0.275043
|  9> C      0.221111   -2.644223   -0.351148
| 10> C     -0.636200   -1.544687   -0.540296
| 11> C     -1.969476   -1.681842   -0.122714
| 12> C     -2.416475   -2.849385    0.504720
| 13> P     -0.038806   -0.054266   -1.415456
| 14> C     -0.958517    1.332816   -0.691762
| 15> C     -1.291523    2.425899   -1.490339
| 16> C     -1.991089    3.490684   -0.926389
| 17> C     -2.338858    3.440498    0.416564
| 18> C     -1.969415    2.322605    1.142697
| 19> N     -1.291519    1.276410    0.621680
| 20> C      1.584577    0.227380   -0.650991
| 21> C      1.811785    0.265684    0.722928
| 22> C      3.106310    0.479750    1.190392
| 23> C      4.139427    0.648527    0.278542
| 24> C      3.832943    0.595083   -1.069746
| 25> N      2.587954    0.388280   -1.552183
| 26> H     -1.890066   -4.820102    1.193321
| 27> H      0.460978   -4.644625    0.416281
| 28> H      1.252830   -2.607754   -0.697597
| 29> H     -2.684107   -0.876036   -0.275148
| 30> H     -3.450573   -2.924514    0.830154
| 31> H     -1.009696    2.459144   -2.538626
| 32> H     -2.257983    4.351568   -1.532637
| 33> H     -2.881912    4.252603    0.886321
| 34> H     -2.215539    2.233697    2.196925
| 35> H      0.996624    0.130363    1.427868
| 36> H      3.301062    0.513773    2.258255
| 37> H      5.157599    0.817447    0.609595
| 38> H      4.604423    0.720557   -1.823931
| 39> **                         ****END OF INPUT****
================================================================================

                       *****************************
                       * Geometry Optimization Run *
                       *****************************

Geometry optimization settings:
Update method            Update   .... BFGS
Choice of coordinates    CoordSys .... (2022) Redundant Internals
Initial Hessian          InHess   .... Almloef's Model
Max. no of cycles        MaxIter  .... 96

Convergence Tolerances:
Energy Change            TolE     ....  5.0000e-06 Eh
Max. Gradient            TolMAXG  ....  3.0000e-04 Eh/bohr
RMS Gradient             TolRMSG  ....  1.0000e-04 Eh/bohr
Max. Displacement        TolMAXD  ....  4.0000e-03 bohr
RMS Displacement         TolRMSD  ....  2.0000e-03 bohr
Strict Convergence                .... False

------------------------------------------------------------------------------
                        ORCA OPTIMIZATION COORDINATE SETUP
------------------------------------------------------------------------------

The optimization will be done in redundant internal coordinates (2022)
Making redundant internal coordinates   ...  (2022 redundants) done
Evaluating the initial hessian          ...  (Almloef) done
Evaluating the coordinates              ...  done
Calculating the B-matrix                .... done
Calculating the G-matrix                .... done
Diagonalizing the G-matrix              .... done
Small eigenvalue found = 4.978e-03
Small eigenvalue found = 7.668e-03
Small eigenvalue found = 1.068e-02
Small eigenvalue found = 2.780e-02
The first mode is                       ....   73
The number of degrees of freedom        ....   90

    -----------------------------------------------------------------
                    Redundant Internal Coordinates


    -----------------------------------------------------------------
         Definition                    Initial Value    Approx d2E/dq
    -----------------------------------------------------------------
      1. B(C   1,C   0)                  1.3912         0.622161   
      2. B(C   2,C   1)                  1.3983         0.606011   
      3. B(C   3,C   2)                  1.4070         0.586902   
      4. B(C   4,C   3)                  1.4039         0.593789   
      5. B(C   5,C   4)                  1.3988         0.604924   
      6. B(C   5,C   0)                  1.3915         0.621384   
      7. B(P   6,C   3)                  1.8287         0.419099   
      8. B(C   7,P   6)                  1.8148         0.441009   
      9. B(C   8,C   7)                  1.3941         0.615510   
     10. B(C   9,C   8)                  1.3933         0.617337   
     11. B(C  10,C   9)                  1.3882         0.629037   
     12. B(C  11,C  10)                  1.3833         0.640431   
     13. B(N  12,C  11)                  1.3511         0.645514   
     14. B(N  12,C   7)                  1.3562         0.633645   
     15. B(C  13,P   6)                  1.8163         0.438560   
     16. B(C  14,C  13)                  1.3931         0.617708   
     17. B(C  15,C  14)                  1.3929         0.618199   
     18. B(C  16,C  15)                  1.3883         0.628786   
     19. B(C  17,C  16)                  1.3837         0.639388   
     20. B(N  18,C  17)                  1.3511         0.645527   
     21. B(N  18,C  13)                  1.3582         0.628862   
     22. B(H  19,C   0)                  1.0864         0.364837   
     23. B(H  20,C   1)                  1.0867         0.364475   
     24. B(H  21,C   2)                  1.0889         0.361498   
     25. B(H  22,C   4)                  1.0878         0.363054   
     26. B(H  23,C   5)                  1.0867         0.364496   
     27. B(H  24,C   8)                  1.0860         0.365405   
     28. B(H  25,C   9)                  1.0862         0.365125   
     29. B(H  26,C  10)                  1.0840         0.368102   
     30. B(H  27,C  11)                  1.0862         0.365133   
     31. B(H  28,C  14)                  1.0862         0.365218   
     32. B(H  29,C  15)                  1.0860         0.365417   
     33. B(H  30,C  16)                  1.0839         0.368282   
     34. B(H  31,C  17)                  1.0861         0.365230   
     35. A(C   1,C   0,H  19)          120.1694         0.353899   
     36. A(C   1,C   0,C   5)          119.6830         0.434512   
     37. A(C   5,C   0,H  19)          120.1451         0.353824   
     38. A(C   2,C   1,H  20)          119.8329         0.352268   
     39. A(C   0,C   1,H  20)          120.1109         0.353840   
     40. A(C   0,C   1,C   2)          120.0547         0.432559   
     41. A(C   3,C   2,H  21)          120.5536         0.349881   
     42. A(C   1,C   2,C   3)          121.2889         0.428052   
     43. A(C   1,C   2,H  21)          118.1562         0.351780   
     44. A(C   2,C   3,P   6)          120.1450         0.427400   
     45. A(C   4,C   3,P   6)          122.1564         0.428294   
     46. A(C   2,C   3,C   4)          117.5380         0.426492   
     47. A(C   5,C   4,H  22)          118.1143         0.351928   
     48. A(C   3,C   4,C   5)          121.2292         0.428810   
     49. A(C   3,C   4,H  22)          120.6558         0.350825   
     50. A(C   0,C   5,C   4)          120.1607         0.432322   
     51. A(C   4,C   5,H  23)          119.7440         0.352164   
     52. A(C   0,C   5,H  23)          120.0949         0.353768   
     53. A(C   3,P   6,C   7)          105.4580         0.433153   
     54. A(C   3,P   6,C  13)          102.5288         0.432720   
     55. A(C   7,P   6,C  13)           99.5896         0.436707   
     56. A(C   8,C   7,N  12)          121.9207         0.432352   
     57. A(P   6,C   7,N  12)          118.6104         0.434448   
     58. A(P   6,C   7,C   8)          119.4663         0.435033   
     59. A(C   7,C   8,C   9)          119.1635         0.433163   
     60. A(C   9,C   8,H  24)          119.8419         0.353526   
     61. A(C   7,C   8,H  24)          120.9940         0.353349   
     62. A(C   8,C   9,C  10)          119.3239         0.434861   
     63. A(C   8,C   9,H  25)          120.2087         0.353480   
     64. A(C  10,C   9,H  25)          120.4671         0.354607   
     65. A(C   9,C  10,C  11)          118.0441         0.437748   
     66. A(C   9,C  10,H  26)          121.1751         0.355095   
     67. A(C  11,C  10,H  26)          120.7806         0.356178   
     68. A(N  12,C  11,H  27)          115.1233         0.353968   
     69. A(C  10,C  11,H  27)          121.0047         0.355689   
     70. A(C  10,C  11,N  12)          123.8721         0.436908   
     71. A(C   7,N  12,C  11)          117.6753         0.433215   
     72. A(C  14,C  13,N  18)          122.0476         0.432040   
     73. A(P   6,C  13,N  18)          113.5388         0.433422   
     74. A(P   6,C  13,C  14)          124.4104         0.434876   
     75. A(C  15,C  14,H  28)          119.9227         0.353579   
     76. A(C  13,C  14,H  28)          120.9477         0.353531   
     77. A(C  13,C  14,C  15)          119.1297         0.433550   
     78. A(C  16,C  15,H  29)          120.5700         0.354631   
     79. A(C  14,C  15,H  29)          120.0978         0.353612   
     80. A(C  14,C  15,C  16)          119.3322         0.434939   
     81. A(C  17,C  16,H  30)          120.7769         0.356110   
     82. A(C  15,C  16,H  30)          121.1574         0.355101   
     83. A(C  15,C  16,C  17)          118.0656         0.437588   
     84. A(N  18,C  17,H  31)          115.1029         0.353986   
     85. A(C  16,C  17,H  31)          120.9842         0.355607   
     86. A(C  16,C  17,N  18)          123.9129         0.436782   
     87. A(C  13,N  18,C  17)          117.5116         0.432626   
     88. D(C   2,C   1,C   0,H  19)    179.9245         0.026796   
     89. D(H  20,C   1,C   0,C   5)   -179.0615         0.026796   
     90. D(H  20,C   1,C   0,H  19)      0.3651         0.026796   
     91. D(C   2,C   1,C   0,C   5)      0.4979         0.026796   
     92. D(C   3,C   2,C   1,H  20)   -179.4922         0.025345   
     93. D(H  21,C   2,C   1,C   0)   -178.6440         0.025345   
     94. D(C   3,C   2,C   1,C   0)      0.9472         0.025345   
     95. D(H  21,C   2,C   1,H  20)      0.9166         0.025345   
     96. D(P   6,C   3,C   2,H  21)      1.7351         0.023692   
     97. D(P   6,C   3,C   2,C   1)   -177.8463         0.023692   
     98. D(C   4,C   3,C   2,H  21)    177.2281         0.023692   
     99. D(C   4,C   3,C   2,C   1)     -2.3533         0.023692   
    100. D(H  22,C   4,C   3,C   2)   -177.9272         0.024280   
    101. D(C   5,C   4,C   3,C   2)      2.3945         0.024280   
    102. D(C   5,C   4,C   3,P   6)    177.7906         0.024280   
    103. D(H  22,C   4,C   3,P   6)     -2.5311         0.024280   
    104. D(H  23,C   5,C   4,H  22)     -0.5048         0.025249   
    105. D(C   0,C   5,C   4,H  22)    179.2791         0.025249   
    106. D(C   0,C   5,C   4,C   3)     -1.0347         0.025249   
    107. D(H  23,C   5,C   0,H  19)     -0.0999         0.026726   
    108. D(H  23,C   5,C   0,C   1)    179.3268         0.026726   
    109. D(H  23,C   5,C   4,C   3)    179.1815         0.025249   
    110. D(C   4,C   5,C   0,H  19)   -179.8830         0.026726   
    111. D(C   4,C   5,C   0,C   1)     -0.4563         0.026726   
    112. D(C  13,P   6,C   3,C   4)    138.9586         0.003683   
    113. D(C  13,P   6,C   3,C   2)    -45.7624         0.003683   
    114. D(C   7,P   6,C   3,C   4)     35.1600         0.003683   
    115. D(C   7,P   6,C   3,C   2)   -149.5610         0.003683   
    116. D(N  12,C   7,P   6,C   3)     33.5431         0.003926   
    117. D(C   8,C   7,P   6,C  13)    107.0046         0.003926   
    118. D(C   8,C   7,P   6,C   3)   -147.0345         0.003926   
    119. D(N  12,C   7,P   6,C  13)    -72.4179         0.003926   
    120. D(H  24,C   8,C   7,N  12)    179.4615         0.026193   
    121. D(H  24,C   8,C   7,P   6)      0.0588         0.026193   
    122. D(C   9,C   8,C   7,N  12)     -0.2380         0.026193   
    123. D(C   9,C   8,C   7,P   6)   -179.6407         0.026193   
    124. D(H  25,C   9,C   8,H  24)      0.2063         0.026358   
    125. D(H  25,C   9,C   8,C   7)    179.9094         0.026358   
    126. D(C  10,C   9,C   8,H  24)   -179.6138         0.026358   
    127. D(C  10,C   9,C   8,C   7)      0.0892         0.026358   
    128. D(H  26,C  10,C   9,H  25)      0.0991         0.027430   
    129. D(H  26,C  10,C   9,C   8)    179.9188         0.027430   
    130. D(C  11,C  10,C   9,H  25)   -179.7605         0.027430   
    131. D(C  11,C  10,C   9,C   8)      0.0592         0.027430   
    132. D(H  27,C  11,C  10,H  26)      0.0562         0.028499   
    133. D(H  27,C  11,C  10,C   9)    179.9164         0.028499   
    134. D(N  12,C  11,C  10,H  26)   -179.9345         0.028499   
    135. D(N  12,C  11,C  10,C   9)     -0.0743         0.028499   
    136. D(C   7,N  12,C  11,H  27)    179.9431         0.030761   
    137. D(C   7,N  12,C  11,C  10)     -0.0657         0.030761   
    138. D(C  11,N  12,C   7,C   8)      0.2233         0.029553   
    139. D(C  11,N  12,C   7,P   6)    179.6309         0.029553   
    140. D(N  18,C  13,P   6,C   7)   -122.2131         0.003898   
    141. D(N  18,C  13,P   6,C   3)    129.4594         0.003898   
    142. D(C  14,C  13,P   6,C   7)     58.4391         0.003898   
    143. D(C  14,C  13,P   6,C   3)    -49.8883         0.003898   
    144. D(H  28,C  14,C  13,N  18)   -179.7225         0.026391   
    145. D(H  28,C  14,C  13,P   6)     -0.4280         0.026391   
    146. D(C  15,C  14,C  13,N  18)      0.2114         0.026391   
    147. D(C  15,C  14,C  13,P   6)    179.5059         0.026391   
    148. D(H  29,C  15,C  14,C  13)    179.9246         0.026436   
    149. D(C  16,C  15,C  14,H  28)    179.8722         0.026436   
    150. D(C  16,C  15,C  14,C  13)     -0.0623         0.026436   
    151. D(H  29,C  15,C  14,H  28)     -0.1409         0.026436   
    152. D(H  30,C  16,C  15,H  29)     -0.0241         0.027406   
    153. D(H  30,C  16,C  15,C  14)    179.9627         0.027406   
    154. D(C  17,C  16,C  15,H  29)    179.9772         0.027406   
    155. D(C  17,C  16,C  15,C  14)     -0.0360         0.027406   
    156. D(H  31,C  17,C  16,H  30)      0.0260         0.028400   
    157. D(H  31,C  17,C  16,C  15)   -179.9753         0.028400   
    158. D(N  18,C  17,C  16,H  30)    179.9954         0.028400   
    159. D(N  18,C  17,C  16,C  15)     -0.0059         0.028400   
    160. D(C  13,N  18,C  17,H  31)   -179.8830         0.030762   
    161. D(C  13,N  18,C  17,C  16)      0.1459         0.030762   
    162. D(C  17,N  18,C  13,C  14)     -0.2484         0.029075   
    163. D(C  17,N  18,C  13,P   6)   -179.6135         0.029075   
    -----------------------------------------------------------------

Number of atoms                         .... 32
Number of degrees of freedom            .... 163


         *************************************************************
         *                GEOMETRY OPTIMIZATION CYCLE   1            *
         *************************************************************
---------------------------------
CARTESIAN COORDINATES (ANGSTROEM)
---------------------------------
  C     -1.542124   -3.912666    0.707674
  C     -0.223742   -3.812667    0.275043
  C      0.221111   -2.644223   -0.351148
  C     -0.636200   -1.544687   -0.540296
  C     -1.969476   -1.681842   -0.122714
  C     -2.416475   -2.849385    0.504720
  P     -0.038806   -0.054266   -1.415456
  C     -0.958517    1.332816   -0.691762
  C     -1.291523    2.425899   -1.490339
  C     -1.991089    3.490684   -0.926389
  C     -2.338858    3.440498    0.416564
  C     -1.969415    2.322605    1.142697
  N     -1.291519    1.276410    0.621680
  C      1.584577    0.227380   -0.650991
  C      1.811785    0.265684    0.722928
  C      3.106310    0.479750    1.190392
  C      4.139427    0.648527    0.278542
  C      3.832943    0.595083   -1.069746
  N      2.587954    0.388280   -1.552183
  H     -1.890066   -4.820102    1.193321
  H      0.460978   -4.644625    0.416281
  H      1.252830   -2.607754   -0.697597
  H     -2.684107   -0.876036   -0.275148
  H     -3.450573   -2.924514    0.830154
  H     -1.009696    2.459144   -2.538626
  H     -2.257983    4.351568   -1.532637
  H     -2.881912    4.252603    0.886321
  H     -2.215539    2.233697    2.196925
  H      0.996624    0.130363    1.427868
  H      3.301062    0.513773    2.258255
  H      5.157599    0.817447    0.609595
  H      4.604423    0.720557   -1.823931

----------------------------
CARTESIAN COORDINATES (A.U.)
----------------------------
  NO LB      ZA    FRAG     MASS         X           Y           Z
   0 C     6.0000    0    12.011   -2.914192   -7.393867    1.337310
   1 C     6.0000    0    12.011   -0.422811   -7.204896    0.519756
   2 C     6.0000    0    12.011    0.417839   -4.996857   -0.663574
   3 C     6.0000    0    12.011   -1.202244   -2.919035   -1.021011
   4 C     6.0000    0    12.011   -3.721770   -3.178221   -0.231896
   5 C     6.0000    0    12.011   -4.566476   -5.384557    0.953783
   6 P    15.0000    0    30.974   -0.073333   -0.102548   -2.674824
   7 C     6.0000    0    12.011   -1.811335    2.518657   -1.307241
   8 C     6.0000    0    12.011   -2.440625    4.584285   -2.816333
   9 C     6.0000    0    12.011   -3.762613    6.596437   -1.750622
  10 C     6.0000    0    12.011   -4.419801    6.501599    0.787192
  11 C     6.0000    0    12.011   -3.721655    4.389087    2.159384
  12 N     7.0000    0    14.007   -2.440617    2.412065    1.174805
  13 C     6.0000    0    12.011    2.994417    0.429686   -1.230195
  14 C     6.0000    0    12.011    3.423777    0.502070    1.366136
  15 C     6.0000    0    12.011    5.870075    0.906596    2.249515
  16 C     6.0000    0    12.011    7.822383    1.225538    0.526368
  17 C     6.0000    0    12.011    7.243213    1.124544   -2.021527
  18 N     7.0000    0    14.007    4.890524    0.733743   -2.933201
  19 H     1.0000    0     1.008   -3.571707   -9.108673    2.255050
  20 H     1.0000    0     1.008    0.871122   -8.777069    0.786657
  21 H     1.0000    0     1.008    2.367506   -4.927941   -1.318267
  22 H     1.0000    0     1.008   -5.072227   -1.655468   -0.519954
  23 H     1.0000    0     1.008   -6.520638   -5.526531    1.568764
  24 H     1.0000    0     1.008   -1.908049    4.647109   -4.797308
  25 H     1.0000    0     1.008   -4.266969    8.223272   -2.896264
  26 H     1.0000    0     1.008   -5.446024    8.036255    1.674904
  27 H     1.0000    0     1.008   -4.186762    4.221076    4.151587
  28 H     1.0000    0     1.008    1.883346    0.246350    2.698279
  29 H     1.0000    0     1.008    6.238103    0.970890    4.267483
  30 H     1.0000    0     1.008    9.746450    1.544751    1.151968
  31 H     1.0000    0     1.008    8.701098    1.361655   -3.446730

--------------------------------
INTERNAL COORDINATES (ANGSTROEM)
--------------------------------
 C      0   0   0     0.000000000000     0.00000000     0.00000000
 C      1   0   0     1.391150775468     0.00000000     0.00000000
 C      2   1   0     1.398309958924   120.05474042     0.00000000
 C      3   2   1     1.407031816243   121.28892899     0.94719868
 C      4   3   2     1.403855802041   117.53802005   357.64666456
 C      1   2   3     1.391490740996   119.68302092     0.49786684
 P      4   3   2     1.828698819947   120.14500041   182.15370763
 C      7   4   3     1.814827210475   105.45799055   210.43895652
 C      8   7   4     1.394076276914   119.46629230   212.96553379
 C      9   8   7     1.393269280176   119.16348327   180.35932567
 C     10   9   8     1.388158734499   119.32392215     0.08920582
 C     11  10   9     1.383272215938   118.04408633     0.05918152
 N     12  11  10     1.351120157177   123.87205129   359.92572412
 C      7   4   3     1.816343461526   102.52875255   314.23759813
 C     14   7   4     1.393105914940   124.41036085   310.11167179
 C     15  14   7     1.392889736942   119.12966216   179.50587564
 C     16  15  14     1.388267565680   119.33219882   359.93771285
 C     17  16  15     1.383715734657   118.06564792   359.96402327
 N     18  17  16     1.351114558392   123.91286912     0.00000000
 H      1   2   3     1.086442238717   120.16940063   179.92447993
 H      2   1   3     1.086712365260   120.11092338   180.44064733
 H      3   2   1     1.088944898754   118.15619188   181.35602293
 H      5   4   3     1.087776125934   120.65576598   182.07282748
 H      6   1   2     1.086696981040   120.09493842   179.32683199
 H      9   8   7     1.086019024844   120.99395713     0.05883711
 H     10   9   8     1.086227557281   120.20870098   179.90935912
 H     11  10   9     1.084017443121   121.17514863   179.91880836
 H     12  11  10     1.086222045359   121.00466560   179.91637922
 H     15  14   7     1.086158198681   120.94765354   359.57204207
 H     16  15  14     1.086009803272   120.09784494   179.92462220
 H     17  16  15     1.083883885291   121.15744772   179.96274683
 H     18  17  16     1.086149220550   120.98419219   180.02473727

---------------------------
INTERNAL COORDINATES (A.U.)
---------------------------
 C      0   0   0     0.000000000000     0.00000000     0.00000000
 C      1   0   0     2.628893976627     0.00000000     0.00000000
 C      2   1   0     2.642422872701   120.05474042     0.00000000
 C      3   2   1     2.658904794414   121.28892899     0.94719868
 C      4   3   2     2.652902997374   117.53802005   357.64666456
 C      1   2   3     2.629536418370   119.68302092     0.49786684
 P      4   3   2     3.455739951126   120.14500041   182.15370763
 C      7   4   3     3.429526408186   105.45799055   210.43895652
 C      8   7   4     2.634422373164   119.46629230   212.96553379
 C      9   8   7     2.632897370337   119.16348327   180.35932567
 C     10   9   8     2.623239838614   119.32392215     0.08920582
 C     11  10   9     2.614005656786   118.04408633     0.05918152
 N     12  11  10     2.553247071085   123.87205129   359.92572412
 C      7   4   3     3.432391707424   102.52875255   314.23759813
 C     14   7   4     2.632588654783   124.41036085   310.11167179
 C     15  14   7     2.632180137569   119.12966216   179.50587564
 C     16  15  14     2.623445499740   119.33219882   359.93771285
 C     17  16  15     2.614843785698   118.06564792   359.96402327
 N     18  17  16     2.553236490915   123.91286912     0.00000000
 H      1   2   3     2.053078291500   120.16940063   179.92447993
 H      2   1   3     2.053588756686   120.11092338   180.44064733
 H      3   2   1     2.057807633576   118.15619188   181.35602293
 H      5   4   3     2.055598973034   120.65576598   182.07282748
 H      6   1   2     2.053559684724   120.09493842   179.32683199
 H      9   8   7     2.052278533183   120.99395713     0.05883711
 H     10   9   8     2.052672602379   120.20870098   179.90935912
 H     11  10   9     2.048496091892   121.17514863   179.91880836
 H     12  11  10     2.052662186356   121.00466560   179.91637922
 H     15  14   7     2.052541533620   120.94765354   359.57204207
 H     16  15  14     2.052261106937   120.09784494   179.92462220
 H     17  16  15     2.048243704170   121.15744772   179.96274683
 H     18  17  16     2.052524567411   120.98419219   180.02473727

---------------------
BASIS SET INFORMATION
---------------------
There are 4 groups of distinct atoms

 Group   1 Type C   : 7s4p1d contracted to 3s2p1d pattern {511/31/1}
 Group   2 Type P   : 10s7p1d contracted to 4s3p1d pattern {5311/511/1}
 Group   3 Type N   : 7s4p1d contracted to 3s2p1d pattern {511/31/1}
 Group   4 Type H   : 4s1p contracted to 2s1p pattern {31/1}

Atom   0C    basis set group =>   1
Atom   1C    basis set group =>   1
Atom   2C    basis set group =>   1
Atom   3C    basis set group =>   1
Atom   4C    basis set group =>   1
Atom   5C    basis set group =>   1
Atom   6P    basis set group =>   2
Atom   7C    basis set group =>   1
Atom   8C    basis set group =>   1
Atom   9C    basis set group =>   1
Atom  10C    basis set group =>   1
Atom  11C    basis set group =>   1
Atom  12N    basis set group =>   3
Atom  13C    basis set group =>   1
Atom  14C    basis set group =>   1
Atom  15C    basis set group =>   1
Atom  16C    basis set group =>   1
Atom  17C    basis set group =>   1
Atom  18N    basis set group =>   3
Atom  19H    basis set group =>   4
Atom  20H    basis set group =>   4
Atom  21H    basis set group =>   4
Atom  22H    basis set group =>   4
Atom  23H    basis set group =>   4
Atom  24H    basis set group =>   4
Atom  25H    basis set group =>   4
Atom  26H    basis set group =>   4
Atom  27H    basis set group =>   4
Atom  28H    basis set group =>   4
Atom  29H    basis set group =>   4
Atom  30H    basis set group =>   4
Atom  31H    basis set group =>   4
---------------------------------
AUXILIARY/J BASIS SET INFORMATION
---------------------------------
There are 4 groups of distinct atoms

 Group   1 Type C   : 12s5p4d2f1g contracted to 6s4p3d1f1g pattern {711111/2111/211/2/1}
 Group   2 Type P   : 14s5p5d2f1g contracted to 8s4p3d1f1g pattern {71111111/2111/311/2/1}
 Group   3 Type N   : 12s5p4d2f1g contracted to 6s4p3d1f1g pattern {711111/2111/211/2/1}
 Group   4 Type H   : 5s2p1d contracted to 3s1p1d pattern {311/2/1}

Atom   0C    basis set group =>   1
Atom   1C    basis set group =>   1
Atom   2C    basis set group =>   1
Atom   3C    basis set group =>   1
Atom   4C    basis set group =>   1
Atom   5C    basis set group =>   1
Atom   6P    basis set group =>   2
Atom   7C    basis set group =>   1
Atom   8C    basis set group =>   1
Atom   9C    basis set group =>   1
Atom  10C    basis set group =>   1
Atom  11C    basis set group =>   1
Atom  12N    basis set group =>   3
Atom  13C    basis set group =>   1
Atom  14C    basis set group =>   1
Atom  15C    basis set group =>   1
Atom  16C    basis set group =>   1
Atom  17C    basis set group =>   1
Atom  18N    basis set group =>   3
Atom  19H    basis set group =>   4
Atom  20H    basis set group =>   4
Atom  21H    basis set group =>   4
Atom  22H    basis set group =>   4
Atom  23H    basis set group =>   4
Atom  24H    basis set group =>   4
Atom  25H    basis set group =>   4
Atom  26H    basis set group =>   4
Atom  27H    basis set group =>   4
Atom  28H    basis set group =>   4
Atom  29H    basis set group =>   4
Atom  30H    basis set group =>   4
Atom  31H    basis set group =>   4


           ************************************************************
           *        Program running with 6 parallel MPI-processes     *
           *              working on a common directory               *
           ************************************************************
------------------------------------------------------------------------------
                             ORCA STARTUP CALCULATIONS
                           -- RI-GTO INTEGRALS CHOSEN --
------------------------------------------------------------------------------
------------------------------------------------------------------------------
                   ___                                                        
                  /   \      - P O W E R E D   B Y -                         
                 /     \                                                     
                 |  |  |   _    _      __       _____    __    __             
                 |  |  |  | |  | |    /  \     |  _  \  |  |  /  |          
                  \  \/   | |  | |   /    \    | | | |  |  | /  /          
                 / \  \   | |__| |  /  /\  \   | |_| |  |  |/  /          
                |  |  |   |  __  | /  /__\  \  |    /   |      \           
                |  |  |   | |  | | |   __   |  |    \   |  |\   \          
                \     /   | |  | | |  |  |  |  | |\  \  |  | \   \       
                 \___/    |_|  |_| |__|  |__|  |_| \__\ |__|  \__/        
                                                                              
                      - O R C A' S   B I G   F R I E N D -                    
                                      &                                       
                       - I N T E G R A L  F E E D E R -                       
                                                                              
 v1 FN, 2020, v2 2021, v3 2022-2024                                           
------------------------------------------------------------------------------


----------------------
SHARK INTEGRAL PACKAGE
----------------------

Number of atoms                             ...     32
Number of basis functions                   ...    335
Number of shells                            ...    155
Maximum angular momentum                    ...      2
Integral batch strategy                     ... SHARK/LIBINT Hybrid
RI-J (if used) integral strategy            ... SPLIT-RIJ (Revised 2003 algorithm where possible)
Printlevel                                  ...      1
Contraction scheme used                     ... SEGMENTED contraction
Prescreening option                         ... SCHWARTZ
   Thresh                                   ... 2.500e-11
   Tcut                                     ... 2.500e-12
   Tpresel                                  ... 2.500e-12 
Coulomb Range Separation                    ... NOT USED
Exchange Range Separation                   ... NOT USED
Multipole approximations                    ... NOT USED
Finite Nucleus Model                        ... NOT USED
CABS basis                                  ... NOT available
Auxiliary Coulomb fitting basis             ... AVAILABLE
   # of basis functions in Aux-J            ...   1076
   # of shells in Aux-J                     ...    352
   Maximum angular momentum in Aux-J        ...      4
Auxiliary J/K fitting basis                 ... NOT available
Auxiliary Correlation fitting basis         ... NOT available
Auxiliary 'external' fitting basis          ... NOT available

Checking pre-screening integrals            ... done (  0.0 sec) Dimension = 155
Check shell pair data                       ... done (  0.0 sec)
Shell pair information
Shell pair cut-off parameter TPreSel        ...   2.5e-12
Total number of shell pairs                 ...     12090
Shell pairs after pre-screening             ...      9495
Total number of primitive shell pairs       ...     45146
Primitive shell pairs kept                  ...     22863
          la=0 lb=0:   2847 shell pairs
          la=1 lb=0:   3505 shell pairs
          la=1 lb=1:   1123 shell pairs
          la=2 lb=0:   1182 shell pairs
          la=2 lb=1:    719 shell pairs
          la=2 lb=2:    119 shell pairs

Calculating one electron integrals          ... done (  0.0 sec)
Calculating RI/J V-Matrix + Cholesky decomp.... done (  0.1 sec)
Calculating Nuclear repulsion               ... done (  0.0 sec) ENN=   1423.779373583872 Eh

Diagonalization of the overlap matrix:
Smallest eigenvalue                        ... 2.943e-04
Time for diagonalization                   ...    0.014 sec
Threshold for overlap eigenvalues          ... 1.000e-07
Number of eigenvalues below threshold      ... 0
Time for construction of square roots      ...    0.009 sec
Total time needed                          ...    0.025 sec

-------------------
DFT GRID GENERATION
-------------------

General Integration Accuracy     IntAcc      ... 4.388
Radial Grid Type                 RadialGrid  ... OptM3 with GC (2021)
Angular Grid (max. ang.)         AngularGrid ... 4 (Lebedev-302)
Angular grid pruning method      GridPruning ... 4 (adaptive)
Weight generation scheme         WeightScheme... mBecke (2022)
Basis function cutoff            BFCut       ... 1.0000e-11
Integration weight cutoff        WCut        ... 1.0000e-14
Partially contracted basis set               ... off
Rotationally invariant grid construction     ... off
Angular grids for H and He will be reduced by one unit

Total number of grid points                  ...   156520
Total number of batches                      ...     2464
Average number of points per batch           ...       63
Average number of grid points per atom       ...     4891
Initializing property integral containers    ... done (  0.0 sec)

SHARK setup successfully completed in   1.2 seconds

Maximum memory used throughout the entire STARTUP-calculation: 41.6 MB


           ************************************************************
           *        Program running with 6 parallel MPI-processes     *
           *              working on a common directory               *
           ************************************************************
-------------------------------------------------------------------------------
                                 ORCA GUESS
                   Start orbitals & Density for SCF / CASSCF
-------------------------------------------------------------------------------

------------
SCF SETTINGS
------------
Hamiltonian:
 Density Functional     Method          .... DFT(GTOs)
 Exchange Functional    Exchange        .... B88
   X-Alpha parameter    XAlpha          ....  0.666667
   Becke's b parameter  XBeta           ....  0.004200
 Correlation Functional Correlation     .... LYP
 LDA part of GGA corr.  LDAOpt          .... VWN-5
 Gradients option       PostSCFGGA      .... off
 Hybrid DFT is turned on
   Fraction HF Exchange ScalHFX         ....  0.200000
   Scaling of DF-GGA-X  ScalDFX         ....  0.720000
   Scaling of DF-GGA-C  ScalDFC         ....  0.810000
   Scaling of DF-LDA-C  ScalLDAC        ....  1.000000
   Perturbative correction              ....  0.000000
   NL short-range parameter             ....  4.800000
 RI-approximation to the Coulomb term is turned on
   Number of AuxJ basis functions       .... 1076
   RIJ-ON(X) (HFX calculated with O(N)) .... on


General Settings:
 Integral files         IntName         .... data/geom_opt/603962/603962
 Hartree-Fock type      HFTyp           .... RHF
 Total Charge           Charge          ....    0
 Multiplicity           Mult            ....    1
 Number of Electrons    NEL             ....  138
 Basis Dimension        Dim             ....  335
 Nuclear Repulsion      ENuc            ....   1423.7793735839 Eh

Convergence Acceleration:
 AO-DIIS                CNVDIIS         .... on
   Start iteration      DIISMaxIt       ....    12
   Startup error        DIISStart       ....  0.200000
   # of expansion vecs  DIISMaxEq       ....     5
   Bias factor          DIISBfac        ....   1.050
   Max. coefficient     DIISMaxC        ....  10.000
 MO-DIIS                CNVKDIIS        .... off
 Trust-Rad. Augm. Hess. CNVTRAH         .... auto
   Auto Start mean grad. ratio tolernc. ....  1.125000
   Auto Start start iteration           ....    50
   Auto Start num. interpolation iter.  ....    10
   Max. Number of Micro iterations      ....    24
   Max. Number of Macro iterations      .... Maxiter - #DIIS iter
   Number of Davidson start vectors     ....     2
   Converg. threshold    (grad. norm)   ....   1.000e-05
   Grad. Scal. Fac. for Micro threshold ....   0.100
   Minimum threshold for Micro iter.    ....   1.000e-02
   NR start threshold (gradient norm)   ....   1.000e-04
   Initial trust radius                 ....   0.400
   Minimum AH scaling param. (alpha)    ....   1.000
   Maximum AH scaling param. (alpha)    .... 1000.000
   Quad. conv. algorithm                .... NR
   White noise on init. David. guess    .... on
   Maximum white noise                  ....   0.010
   Pseudo random numbers                .... off
   Inactive MOs                         .... canonical
   Orbital update algorithm             .... Taylor
   Preconditioner                       .... Diag
   Full preconditioner red. dimension   ....   250
   COSX micro iterations for RIJONX calc.... off
 SOSCF                  CNVSOSCF        .... on
   Start iteration      SOSCFMaxIt      ....   150
   Startup grad/error   SOSCFStart      ....  0.003300
   Hessian update       SOSCFHessUp     .... L-BFGS
 Level Shifting         CNVShift        .... on
   Level shift para.    LevelShift      ....    0.2500
   Turn off err/grad.   ShiftErr        ....    0.0010
 Zerner damping         CNVZerner       .... off
 Static damping         CNVDamp         .... on
   Fraction old density DampFac         ....    0.7000
   Max. Damping (<1)    DampMax         ....    0.9800
   Min. Damping (>=0)   DampMin         ....    0.0000
   Turn off err/grad.   DampErr         ....    0.1000

SCF Procedure:
 Maximum # iterations   MaxIter         ....   125
 SCF integral mode      SCFMode         .... Direct
   Integral package                     .... SHARK and LIBINT hybrid scheme
 Reset frequency        DirectResetFreq ....    20
 Integral Threshold     Thresh          ....  2.500e-11 Eh
 Primitive CutOff       TCut            ....  2.500e-12 Eh

Convergence Tolerance:
 Convergence Check Mode ConvCheckMode   .... Total+1el-Energy
 Convergence forced     ConvForced      .... 0
 Energy Change          TolE            ....  1.000e-08 Eh
 1-El. energy change                    ....  1.000e-05 Eh
 Orbital Gradient       TolG            ....  1.000e-05
 Orbital Rotation angle TolX            ....  1.000e-05
 DIIS Error             TolErr          ....  5.000e-07

------------------------------
INITIAL GUESS: MODEL POTENTIAL
------------------------------
Loading Hartree-Fock densities                     ... done
Calculating cut-offs                               ... done
Initializing the effective Hamiltonian             ... done
Setting up the integral package (SHARK)            ... done
Starting the Coulomb interaction                   ... done (   0.1 sec)
Making the grid                                    ... done (   0.3 sec)
Mapping shells                                     ... done
Starting the XC term evaluation                    ... done (   0.1 sec)
  promolecular density results
     # of electrons  =    137.997866011
     EX              =   -121.879415886
     EC              =     -4.758605559
     EX+EC           =   -126.638021446
Transforming the Hamiltonian                       ... done (   0.0 sec)
Diagonalizing the Hamiltonian                      ... done (   0.0 sec)
Back transforming the eigenvectors                 ... done (   0.0 sec)
Now organizing SCF variables                       ... done
                      ------------------
                      INITIAL GUESS DONE (   0.6 sec)
                      ------------------
             **** ENERGY FILE WAS UPDATED (data/geom_opt/603962/603962.en.tmp) ****
Finished Guess after   0.7 sec
Maximum memory used throughout the entire GUESS-calculation: 23.6 MB


           ************************************************************
           *        Program running with 6 parallel MPI-processes     *
           *              working on a common directory               *
           ************************************************************

-------------------------------------------------------------------------------------------
                                      ORCA LEAN-SCF
                              memory conserving SCF solver
-------------------------------------------------------------------------------------------

----------------------------------------D-I-I-S--------------------------------------------
Iteration    Energy (Eh)           Delta-E    RMSDP     MaxDP     DIISErr   Damp  Time(sec)
-------------------------------------------------------------------------------------------
               ***  Starting incremental Fock matrix formation  ***
    1    -1066.8714256498021768     0.00e+00  2.34e-03  7.42e-02  1.68e-01  0.700   4.0
    2    -1067.0361110464730245    -1.65e-01  1.69e-03  4.09e-02  8.27e-02  0.700   3.6
                               ***Turning on AO-DIIS***
    3    -1067.1068000532497990    -7.07e-02  8.22e-04  3.79e-02  3.07e-02  0.700   3.5
    4    -1067.1482226165805969    -4.14e-02  1.61e-03  8.65e-02  1.77e-02  0.000   3.3
    5    -1067.2373286487652422    -8.91e-02  2.26e-04  1.47e-02  4.71e-03  0.000   3.4
                              *** Initializing SOSCF ***
---------------------------------------S-O-S-C-F--------------------------------------
Iteration    Energy (Eh)           Delta-E    RMSDP     MaxDP     MaxGrad    Time(sec)
--------------------------------------------------------------------------------------
    6    -1067.2378022231062005    -4.74e-04  7.33e-05  3.38e-03  1.03e-03     3.1
               *** Restarting incremental Fock matrix formation ***
    7    -1067.2378328455813516    -3.06e-05  5.66e-05  2.96e-03  2.09e-04     4.0
    8    -1067.2378294168595403     3.43e-06  2.29e-05  8.68e-04  5.10e-04     2.8
    9    -1067.2378372624659733    -7.85e-06  1.34e-05  7.04e-04  8.30e-05     2.5
   10    -1067.2378371679612883     9.45e-08  5.96e-06  2.06e-04  7.01e-05     2.4
   11    -1067.2378377075822300    -5.40e-07  3.74e-06  2.84e-04  2.23e-05     2.2
   12    -1067.2378376825934083     2.50e-08  2.21e-06  1.26e-04  3.23e-05     2.1
   13    -1067.2378377314837508    -4.89e-08  7.51e-07  5.61e-05  4.09e-06     2.1
   14    -1067.2378377339225608    -2.44e-09  4.06e-07  2.09e-05  6.13e-06     1.8
                 **** Energy Check signals convergence ****

               *****************************************************
               *                     SUCCESS                       *
               *           SCF CONVERGED AFTER  14 CYCLES          *
               *****************************************************

             **** ENERGY FILE WAS UPDATED (data/geom_opt/603962/603962.en.tmp) ****

----------------
TOTAL SCF ENERGY
----------------

Total Energy       :      -1067.23783773392256 Eh          -29041.01798 eV

Components:
Nuclear Repulsion  :       1423.77937358387157 Eh           38743.00641 eV
Electronic Energy  :      -2491.01721131779414 Eh          -67784.02439 eV
One Electron Energy:      -4283.07584788900567 Eh         -116548.41903 eV
Two Electron Energy:       1792.05863657121176 Eh           48764.39464 eV

Virial components:
Potential Energy   :      -2126.32406598889884 Eh          -57860.21939 eV
Kinetic Energy     :       1059.08622825497650 Eh           28819.20141 eV
Virial Ratio       :          2.00769683266713

DFT components:
N(Alpha)           :       68.999991950218 electrons
N(Beta)            :       68.999991950218 electrons
N(Total)           :      137.999983900437 electrons
E(X)               :      -97.903928334707 Eh       
E(C)               :       -5.605479057639 Eh       
E(XC)              :     -103.509407392346 Eh       

---------------
SCF CONVERGENCE
---------------

  Last Energy change         ...    2.4388e-09  Tolerance :   1.0000e-08
  Last MAX-Density change    ...    2.0895e-05  Tolerance :   1.0000e-07
  Last RMS-Density change    ...    4.0567e-07  Tolerance :   5.0000e-09
  Last DIIS Error            ...    1.0336e-03  Tolerance :   5.0000e-07
  Last Orbital Gradient      ...    6.1266e-06  Tolerance :   1.0000e-05
  Last Orbital Rotation      ...    8.6416e-06  Tolerance :   1.0000e-05


----------------
ORBITAL ENERGIES
----------------

  NO   OCC          E(Eh)            E(eV) 
   0   2.0000     -77.039478     -2096.3508 
   1   2.0000     -14.329543      -389.9267 
   2   2.0000     -14.320476      -389.6800 
   3   2.0000     -10.227734      -278.3108 
   4   2.0000     -10.224963      -278.2354 
   5   2.0000     -10.218518      -278.0600 
   6   2.0000     -10.218239      -278.0524 
   7   2.0000     -10.212832      -277.9053 
   8   2.0000     -10.204407      -277.6760 
   9   2.0000     -10.204228      -277.6712 
  10   2.0000     -10.203665      -277.6558 
  11   2.0000     -10.197283      -277.4822 
  12   2.0000     -10.193706      -277.3849 
  13   2.0000     -10.186038      -277.1762 
  14   2.0000     -10.183071      -277.0955 
  15   2.0000     -10.181647      -277.0567 
  16   2.0000     -10.180910      -277.0366 
  17   2.0000     -10.180341      -277.0212 
  18   2.0000     -10.179152      -276.9888 
  19   2.0000      -6.538491      -177.9214 
  20   2.0000      -4.703805      -127.9970 
  21   2.0000      -4.703629      -127.9922 
  22   2.0000      -4.700761      -127.9142 
  23   2.0000      -0.936616       -25.4866 
  24   2.0000      -0.927041       -25.2261 
  25   2.0000      -0.839429       -22.8420 
  26   2.0000      -0.803522       -21.8649 
  27   2.0000      -0.795021       -21.6336 
  28   2.0000      -0.776996       -21.1431 
  29   2.0000      -0.755314       -20.5531 
  30   2.0000      -0.734753       -19.9937 
  31   2.0000      -0.728526       -19.8242 
  32   2.0000      -0.664387       -18.0789 
  33   2.0000      -0.632389       -17.2082 
  34   2.0000      -0.623132       -16.9563 
  35   2.0000      -0.620249       -16.8778 
  36   2.0000      -0.596783       -16.2393 
  37   2.0000      -0.590653       -16.0725 
  38   2.0000      -0.561462       -15.2782 
  39   2.0000      -0.523561       -14.2468 
  40   2.0000      -0.514631       -14.0038 
  41   2.0000      -0.498332       -13.5603 
  42   2.0000      -0.490058       -13.3352 
  43   2.0000      -0.482515       -13.1299 
  44   2.0000      -0.461581       -12.5603 
  45   2.0000      -0.451246       -12.2790 
  46   2.0000      -0.445496       -12.1226 
  47   2.0000      -0.438891       -11.9428 
  48   2.0000      -0.424598       -11.5539 
  49   2.0000      -0.422621       -11.5001 
  50   2.0000      -0.413321       -11.2470 
  51   2.0000      -0.407242       -11.0816 
  52   2.0000      -0.401578       -10.9275 
  53   2.0000      -0.395706       -10.7677 
  54   2.0000      -0.394593       -10.7374 
  55   2.0000      -0.375608       -10.2208 
  56   2.0000      -0.362763        -9.8713 
  57   2.0000      -0.348280        -9.4772 
  58   2.0000      -0.336316        -9.1516 
  59   2.0000      -0.332638        -9.0515 
  60   2.0000      -0.296764        -8.0754 
  61   2.0000      -0.289045        -7.8653 
  62   2.0000      -0.278919        -7.5898 
  63   2.0000      -0.276383        -7.5208 
  64   2.0000      -0.261827        -7.1247 
  65   2.0000      -0.256837        -6.9889 
  66   2.0000      -0.249409        -6.7868 
  67   2.0000      -0.243187        -6.6175 
  68   2.0000      -0.209269        -5.6945 
  69   0.0000      -0.050688        -1.3793 
  70   0.0000      -0.033588        -0.9140 
  71   0.0000      -0.023567        -0.6413 
  72   0.0000      -0.019459        -0.5295 
  73   0.0000      -0.006683        -0.1819 
  74   0.0000       0.001926         0.0524 
  75   0.0000       0.060646         1.6503 
  76   0.0000       0.067607         1.8397 
  77   0.0000       0.069219         1.8835 
  78   0.0000       0.086402         2.3511 
  79   0.0000       0.097619         2.6563 
*Only the first 10 virtual orbitals were printed.

                    ********************************
                    * MULLIKEN POPULATION ANALYSIS *
                    ********************************

-----------------------
MULLIKEN ATOMIC CHARGES
-----------------------
   0 C :    0.021833
   1 C :    0.025080
   2 C :   -0.004313
   3 C :   -0.096830
   4 C :    0.015245
   5 C :    0.020850
   6 P :    0.396282
   7 C :   -0.179516
   8 C :    0.059490
   9 C :    0.058094
  10 C :    0.014212
  11 C :    0.047946
  12 N :   -0.109894
  13 C :   -0.188273
  14 C :    0.071202
  15 C :    0.062463
  16 C :    0.010532
  17 C :    0.043558
  18 N :   -0.118628
  19 H :   -0.024926
  20 H :   -0.024005
  21 H :   -0.016615
  22 H :   -0.027536
  23 H :   -0.025438
  24 H :   -0.005612
  25 H :   -0.003096
  26 H :   -0.007044
  27 H :    0.000691
  28 H :    0.006539
  29 H :   -0.009396
  30 H :   -0.010790
  31 H :   -0.002105
Sum of atomic charges:   -0.0000000

--------------------------------
MULLIKEN REDUCED ORBITAL CHARGES
--------------------------------
  0 C s       :     3.155793  s :     3.155793
      pz      :     0.960316  p :     2.786923
      px      :     0.951210
      py      :     0.875397
      dz2     :     0.003016  d :     0.035451
      dxz     :     0.006584
      dyz     :     0.004725
      dx2y2   :     0.010684
      dxy     :     0.010442

  1 C s       :     3.155824  s :     3.155824
      pz      :     0.984262  p :     2.783761
      px      :     0.909713
      py      :     0.889786
      dz2     :     0.004581  d :     0.035336
      dxz     :     0.005847
      dyz     :     0.004363
      dx2y2   :     0.009068
      dxy     :     0.011477

  2 C s       :     3.213093  s :     3.213093
      pz      :     0.963080  p :     2.756456
      px      :     0.866094
      py      :     0.927282
      dz2     :     0.003789  d :     0.034764
      dxz     :     0.004255
      dyz     :     0.006254
      dx2y2   :     0.011431
      dxy     :     0.009035

  3 C s       :     3.042813  s :     3.042813
      pz      :     0.981341  p :     3.017784
      px      :     1.018355
      py      :     1.018088
      dz2     :     0.004192  d :     0.036233
      dxz     :     0.006296
      dyz     :     0.005527
      dx2y2   :     0.010115
      dxy     :     0.010103

  4 C s       :     3.209981  s :     3.209981
      pz      :     0.962642  p :     2.739875
      px      :     0.919449
      py      :     0.857784
      dz2     :     0.004323  d :     0.034899
      dxz     :     0.005688
      dyz     :     0.004310
      dx2y2   :     0.008924
      dxy     :     0.011654

  5 C s       :     3.157562  s :     3.157562
      pz      :     0.971735  p :     2.786280
      px      :     0.844813
      py      :     0.969732
      dz2     :     0.003867  d :     0.035308
      dxz     :     0.004378
      dyz     :     0.006306
      dx2y2   :     0.011437
      dxy     :     0.009320

  6 P s       :     5.683702  s :     5.683702
      pz      :     3.293712  p :     8.746488
      px      :     2.723816
      py      :     2.728961
      dz2     :     0.013162  d :     0.173528
      dxz     :     0.034776
      dyz     :     0.040200
      dx2y2   :     0.041427
      dxy     :     0.043963

  7 C s       :     3.154392  s :     3.154392
      pz      :     0.961406  p :     2.970334
      px      :     0.985370
      py      :     1.023558
      dz2     :     0.015668  d :     0.054790
      dxz     :     0.010985
      dyz     :     0.017914
      dx2y2   :     0.004556
      dxy     :     0.005668

  8 C s       :     3.176266  s :     3.176266
      pz      :     0.856176  p :     2.730393
      px      :     0.945005
      py      :     0.929212
      dz2     :     0.008435  d :     0.033851
      dxz     :     0.004694
      dyz     :     0.009121
      dx2y2   :     0.005818
      dxy     :     0.005783

  9 C s       :     3.135820  s :     3.135820
      pz      :     0.930069  p :     2.770070
      px      :     0.941702
      py      :     0.898299
      dz2     :     0.008977  d :     0.036016
      dxz     :     0.006700
      dyz     :     0.011078
      dx2y2   :     0.004942
      dxy     :     0.004318

 10 C s       :     3.149645  s :     3.149645
      pz      :     0.942390  p :     2.801815
      px      :     0.954588
      py      :     0.904837
      dz2     :     0.008922  d :     0.034329
      dxz     :     0.006416
      dyz     :     0.010623
      dx2y2   :     0.003820
      dxy     :     0.004548

 11 C s       :     3.133397  s :     3.133397
      pz      :     0.901349  p :     2.765468
      px      :     0.936971
      py      :     0.927147
      dz2     :     0.013836  d :     0.053189
      dxz     :     0.006950
      dyz     :     0.012696
      dx2y2   :     0.009836
      dxy     :     0.009871

 12 N s       :     3.515997  s :     3.515997
      pz      :     1.136220  p :     3.566270
      px      :     1.100806
      py      :     1.329244
      dz2     :     0.008392  d :     0.027627
      dxz     :     0.004207
      dyz     :     0.005512
      dx2y2   :     0.004345
      dxy     :     0.005171

 13 C s       :     3.152687  s :     3.152687
      pz      :     0.972069  p :     2.980629
      px      :     1.021375
      py      :     0.987184
      dz2     :     0.016392  d :     0.054957
      dxz     :     0.018167
      dyz     :     0.007710
      dx2y2   :     0.007397
      dxy     :     0.005291

 14 C s       :     3.173261  s :     3.173261
      pz      :     0.926514  p :     2.721570
      px      :     0.848381
      py      :     0.946676
      dz2     :     0.009086  d :     0.033967
      dxz     :     0.011940
      dyz     :     0.004337
      dx2y2   :     0.004561
      dxy     :     0.004043

 15 C s       :     3.133458  s :     3.133458
      pz      :     0.854243  p :     2.768029
      px      :     0.965113
      py      :     0.948673
      dz2     :     0.010087  d :     0.036050
      dxz     :     0.011250
      dyz     :     0.002937
      dx2y2   :     0.005628
      dxy     :     0.006148

 16 C s       :     3.151047  s :     3.151047
      pz      :     0.954100  p :     2.803980
      px      :     0.865886
      py      :     0.983994
      dz2     :     0.010440  d :     0.034442
      dxz     :     0.010919
      dyz     :     0.005460
      dx2y2   :     0.004473
      dxy     :     0.003149

 17 C s       :     3.132881  s :     3.132881
      pz      :     0.908940  p :     2.770607
      px      :     0.912929
      py      :     0.948739
      dz2     :     0.011785  d :     0.052954
      dxz     :     0.021120
      dyz     :     0.005667
      dx2y2   :     0.007886
      dxy     :     0.006497

 18 N s       :     3.509785  s :     3.509785
      pz      :     1.515836  p :     3.581080
      px      :     0.979944
      py      :     1.085300
      dz2     :     0.004787  d :     0.027763
      dxz     :     0.010562
      dyz     :     0.004180
      dx2y2   :     0.003944
      dxy     :     0.004289

 19 H s       :     1.001907  s :     1.001907
      pz      :     0.006795  p :     0.023019
      px      :     0.004673
      py      :     0.011551

 20 H s       :     1.000983  s :     1.000983
      pz      :     0.004690  p :     0.023022
      px      :     0.008033
      py      :     0.010299

 21 H s       :     0.993443  s :     0.993443
      pz      :     0.005656  p :     0.023172
      px      :     0.013785
      py      :     0.003730

 22 H s       :     1.004253  s :     1.004253
      pz      :     0.004693  p :     0.023284
      px      :     0.008269
      py      :     0.010321

 23 H s       :     1.002438  s :     1.002438
      pz      :     0.005528  p :     0.023001
      px      :     0.013804
      py      :     0.003669

 24 H s       :     0.982167  s :     0.982167
      pz      :     0.014716  p :     0.023445
      px      :     0.005099
      py      :     0.003630

 25 H s       :     0.980112  s :     0.980112
      pz      :     0.007160  p :     0.022984
      px      :     0.004804
      py      :     0.011020

 26 H s       :     0.983812  s :     0.983812
      pz      :     0.005634  p :     0.023232
      px      :     0.007287
      py      :     0.010311

 27 H s       :     0.978138  s :     0.978138
      pz      :     0.014399  p :     0.021172
      px      :     0.004055
      py      :     0.002718

 28 H s       :     0.969546  s :     0.969546
      pz      :     0.008353  p :     0.023914
      px      :     0.011049
      py      :     0.004512

 29 H s       :     0.986430  s :     0.986430
      pz      :     0.014801  p :     0.022966
      px      :     0.003824
      py      :     0.004340

 30 H s       :     0.987600  s :     0.987600
      pz      :     0.004512  p :     0.023190
      px      :     0.013815
      py      :     0.004864

 31 H s       :     0.980948  s :     0.980948
      pz      :     0.009186  p :     0.021158
      px      :     0.007776
      py      :     0.004196



                     *******************************
                     * LOEWDIN POPULATION ANALYSIS *
                     *******************************

----------------------
LOEWDIN ATOMIC CHARGES
----------------------
   0 C :   -0.029087
   1 C :   -0.026349
   2 C :   -0.031829
   3 C :   -0.169519
   4 C :   -0.024961
   5 C :   -0.025699
   6 P :    0.514010
   7 C :   -0.136448
   8 C :   -0.036895
   9 C :    0.007870
  10 C :   -0.039239
  11 C :    0.024542
  12 N :   -0.091058
  13 C :   -0.137933
  14 C :   -0.026676
  15 C :    0.002328
  16 C :   -0.038919
  17 C :    0.018914
  18 N :   -0.096519
  19 H :    0.023381
  20 H :    0.024827
  21 H :    0.023483
  22 H :    0.020357
  23 H :    0.024285
  24 H :    0.032045
  25 H :    0.031877
  26 H :    0.031505
  27 H :    0.020239
  28 H :    0.032778
  29 H :    0.029620
  30 H :    0.029705
  31 H :    0.019367

-------------------------------
LOEWDIN REDUCED ORBITAL CHARGES
-------------------------------
  0 C s       :     2.858312  s :     2.858312
      pz      :     0.985856  p :     3.078723
      px      :     1.060500
      py      :     1.032367
      dz2     :     0.006938  d :     0.092051
      dxz     :     0.015860
      dyz     :     0.010870
      dx2y2   :     0.029349
      dxy     :     0.029033

  1 C s       :     2.859205  s :     2.859205
      pz      :     0.991951  p :     3.075582
      px      :     1.050008
      py      :     1.033623
      dz2     :     0.010195  d :     0.091563
      dxz     :     0.014312
      dyz     :     0.010884
      dx2y2   :     0.025457
      dxy     :     0.030715

  2 C s       :     2.862741  s :     2.862741
      pz      :     0.992219  p :     3.078360
      px      :     1.034384
      py      :     1.051757
      dz2     :     0.008371  d :     0.090728
      dxz     :     0.009837
      dyz     :     0.015670
      dx2y2   :     0.031479
      dxy     :     0.025371

  3 C s       :     2.913017  s :     2.913017
      pz      :     1.004691  p :     3.165702
      px      :     1.085257
      py      :     1.075755
      dz2     :     0.009119  d :     0.090799
      dxz     :     0.014893
      dyz     :     0.012170
      dx2y2   :     0.027161
      dxy     :     0.027456

  4 C s       :     2.862360  s :     2.862360
      pz      :     0.986147  p :     3.071399
      px      :     1.047624
      py      :     1.037628
      dz2     :     0.009487  d :     0.091202
      dxz     :     0.014087
      dyz     :     0.010723
      dx2y2   :     0.025015
      dxy     :     0.031890

  5 C s       :     2.859569  s :     2.859569
      pz      :     0.989190  p :     3.074740
      px      :     1.032846
      py      :     1.052704
      dz2     :     0.008664  d :     0.091390
      dxz     :     0.010019
      dyz     :     0.015737
      dx2y2   :     0.030766
      dxy     :     0.026204

  6 P s       :     5.249916  s :     5.249916
      pz      :     3.414501  p :     8.993152
      px      :     2.792750
      py      :     2.785902
      dz2     :     0.019670  d :     0.242922
      dxz     :     0.047409
      dyz     :     0.053998
      dx2y2   :     0.059599
      dxy     :     0.062246

  7 C s       :     2.914451  s :     2.914451
      pz      :     1.036395  p :     3.092733
      px      :     0.982539
      py      :     1.073799
      dz2     :     0.039681  d :     0.129264
      dxz     :     0.023626
      dyz     :     0.044607
      dx2y2   :     0.009611
      dxy     :     0.011739

  8 C s       :     2.868484  s :     2.868484
      pz      :     1.043867  p :     3.077065
      px      :     0.982428
      py      :     1.050771
      dz2     :     0.023854  d :     0.091346
      dxz     :     0.011217
      dyz     :     0.025890
      dx2y2   :     0.014590
      dxy     :     0.015795

  9 C s       :     2.861129  s :     2.861129
      pz      :     1.055469  p :     3.038391
      px      :     0.958822
      py      :     1.024099
      dz2     :     0.024884  d :     0.092610
      dxz     :     0.016426
      dyz     :     0.029452
      dx2y2   :     0.011112
      dxy     :     0.010736

 10 C s       :     2.862832  s :     2.862832
      pz      :     1.060513  p :     3.084804
      px      :     0.986558
      py      :     1.037733
      dz2     :     0.025788  d :     0.091603
      dxz     :     0.015695
      dyz     :     0.029490
      dx2y2   :     0.009049
      dxy     :     0.011580

 11 C s       :     2.861374  s :     2.861374
      pz      :     1.027438  p :     2.985647
      px      :     0.945942
      py      :     1.012267
      dz2     :     0.034434  d :     0.128438
      dxz     :     0.015171
      dyz     :     0.031977
      dx2y2   :     0.022441
      dxy     :     0.024414

 12 N s       :     3.242167  s :     3.242167
      pz      :     1.266242  p :     3.790485
      px      :     1.134383
      py      :     1.389860
      dz2     :     0.019614  d :     0.058406
      dxz     :     0.009596
      dyz     :     0.012301
      dx2y2   :     0.007022
      dxy     :     0.009872

 13 C s       :     2.913628  s :     2.913628
      pz      :     1.084281  p :     3.095051
      px      :     1.048107
      py      :     0.962663
      dz2     :     0.042518  d :     0.129253
      dxz     :     0.047139
      dyz     :     0.015754
      dx2y2   :     0.014827
      dxy     :     0.009015

 14 C s       :     2.868282  s :     2.868282
      pz      :     1.069145  p :     3.066810
      px      :     1.052692
      py      :     0.944973
      dz2     :     0.026657  d :     0.091583
      dxz     :     0.035372
      dyz     :     0.009537
      dx2y2   :     0.011904
      dxy     :     0.008114

 15 C s       :     2.860884  s :     2.860884
      pz      :     1.041974  p :     3.043844
      px      :     1.069468
      py      :     0.932403
      dz2     :     0.026816  d :     0.092944
      dxz     :     0.031849
      dyz     :     0.005320
      dx2y2   :     0.015450
      dxy     :     0.013508

 16 C s       :     2.863432  s :     2.863432
      pz      :     1.075156  p :     3.083621
      px      :     1.041109
      py      :     0.967356
      dz2     :     0.030046  d :     0.091866
      dxz     :     0.032467
      dyz     :     0.012204
      dx2y2   :     0.011250
      dxy     :     0.005899

 17 C s       :     2.860900  s :     2.860900
      pz      :     1.059043  p :     2.992125
      px      :     0.998398
      py      :     0.934685
      dz2     :     0.031148  d :     0.128061
      dxz     :     0.054956
      dyz     :     0.011755
      dx2y2   :     0.018040
      dxy     :     0.012162

 18 N s       :     3.248125  s :     3.248125
      pz      :     1.558227  p :     3.790173
      px      :     1.142455
      py      :     1.089491
      dz2     :     0.008687  d :     0.058221
      dxz     :     0.023999
      dyz     :     0.005038
      dx2y2   :     0.011213
      dxy     :     0.009284

 19 H s       :     0.909046  s :     0.909046
      pz      :     0.019993  p :     0.067574
      px      :     0.014683
      py      :     0.032898

 20 H s       :     0.907752  s :     0.907752
      pz      :     0.014327  p :     0.067421
      px      :     0.023555
      py      :     0.029539

 21 H s       :     0.908060  s :     0.908060
      pz      :     0.016970  p :     0.068456
      px      :     0.039794
      py      :     0.011692

 22 H s       :     0.911197  s :     0.911197
      pz      :     0.014307  p :     0.068446
      px      :     0.024645
      py      :     0.029495

 23 H s       :     0.908312  s :     0.908312
      pz      :     0.016555  p :     0.067403
      px      :     0.039016
      py      :     0.011833

 24 H s       :     0.898188  s :     0.898188
      pz      :     0.042354  p :     0.069768
      px      :     0.015751
      py      :     0.011662

 25 H s       :     0.900686  s :     0.900686
      pz      :     0.021344  p :     0.067437
      px      :     0.014519
      py      :     0.031574

 26 H s       :     0.899551  s :     0.899551
      pz      :     0.017384  p :     0.068944
      px      :     0.021596
      py      :     0.029963

 27 H s       :     0.913369  s :     0.913369
      pz      :     0.042349  p :     0.066392
      px      :     0.013728
      py      :     0.010315

 28 H s       :     0.895858  s :     0.895858
      pz      :     0.025212  p :     0.071365
      px      :     0.032253
      py      :     0.013900

 29 H s       :     0.902893  s :     0.902893
      pz      :     0.041813  p :     0.067486
      px      :     0.012494
      py      :     0.013180

 30 H s       :     0.901408  s :     0.901408
      pz      :     0.014758  p :     0.068888
      px      :     0.039075
      py      :     0.015055

 31 H s       :     0.914300  s :     0.914300
      pz      :     0.027147  p :     0.066332
      px      :     0.025473
      py      :     0.013713



                      *****************************
                      * MAYER POPULATION ANALYSIS *
                      *****************************

  NA   - Mulliken gross atomic population
  ZA   - Total nuclear charge
  QA   - Mulliken gross atomic charge
  VA   - Mayer's total valence
  BVA  - Mayer's bonded valence
  FA   - Mayer's free valence

  ATOM       NA         ZA         QA         VA         BVA        FA
  0 C      5.9782     6.0000     0.0218     3.8316     3.8316    -0.0000
  1 C      5.9749     6.0000     0.0251     3.8633     3.8633    -0.0000
  2 C      6.0043     6.0000    -0.0043     3.8951     3.8951    -0.0000
  3 C      6.0968     6.0000    -0.0968     3.7948     3.7948    -0.0000
  4 C      5.9848     6.0000     0.0152     3.9159     3.9159    -0.0000
  5 C      5.9791     6.0000     0.0209     3.8666     3.8666    -0.0000
  6 P     14.6037    15.0000     0.3963     2.9047     2.9047    -0.0000
  7 C      6.1795     6.0000    -0.1795     3.9129     3.9129    -0.0000
  8 C      5.9405     6.0000     0.0595     3.8363     3.8363    -0.0000
  9 C      5.9419     6.0000     0.0581     3.8975     3.8975    -0.0000
 10 C      5.9858     6.0000     0.0142     3.8301     3.8301    -0.0000
 11 C      5.9521     6.0000     0.0479     4.0091     4.0091    -0.0000
 12 N      7.1099     7.0000    -0.1099     3.1175     3.1175    -0.0000
 13 C      6.1883     6.0000    -0.1883     3.9364     3.9364    -0.0000
 14 C      5.9288     6.0000     0.0712     3.8376     3.8376    -0.0000
 15 C      5.9375     6.0000     0.0625     3.8864     3.8864    -0.0000
 16 C      5.9895     6.0000     0.0105     3.8358     3.8358    -0.0000
 17 C      5.9564     6.0000     0.0436     4.0150     4.0150    -0.0000
 18 N      7.1186     7.0000    -0.1186     3.1045     3.1045    -0.0000
 19 H      1.0249     1.0000    -0.0249     0.9764     0.9764    -0.0000
 20 H      1.0240     1.0000    -0.0240     0.9767     0.9767    -0.0000
 21 H      1.0166     1.0000    -0.0166     0.9893     0.9893    -0.0000
 22 H      1.0275     1.0000    -0.0275     0.9939     0.9939    -0.0000
 23 H      1.0254     1.0000    -0.0254     0.9764     0.9764    -0.0000
 24 H      1.0056     1.0000    -0.0056     0.9985     0.9985    -0.0000
 25 H      1.0031     1.0000    -0.0031     0.9795     0.9795    -0.0000
 26 H      1.0070     1.0000    -0.0070     0.9821     0.9821     0.0000
[...]
      px      :     0.975851
      py      :     1.011556
      dz2     :     0.023926  d :     0.091013
      dxz     :     0.019248
      dyz     :     0.025092
      dx2y2   :     0.009721
      dxy     :     0.013027

 10 C s       :     2.870752  s :     2.870752
      pz      :     1.064725  p :     3.081697
      px      :     1.001918
      py      :     1.015054
      dz2     :     0.026848  d :     0.088345
      dxz     :     0.019983
      dyz     :     0.024008
      dx2y2   :     0.006119
      dxy     :     0.011386

 11 C s       :     2.862280  s :     2.862280
      pz      :     1.036087  p :     2.984613
      px      :     0.968106
      py      :     0.980420
      dz2     :     0.031366  d :     0.130571
      dxz     :     0.019853
      dyz     :     0.033711
      dx2y2   :     0.019576
      dxy     :     0.026065

 12 N s       :     3.219640  s :     3.219640
      pz      :     1.347037  p :     3.799827
      px      :     1.238501
      py      :     1.214289
      dz2     :     0.020663  d :     0.060747
      dxz     :     0.008613
      dyz     :     0.011855
      dx2y2   :     0.007821
      dxy     :     0.011795

 13 C s       :     2.916414  s :     2.916414
      pz      :     1.010722  p :     3.074768
      px      :     1.040283
      py      :     1.023763
      dz2     :     0.017035  d :     0.130243
      dxz     :     0.015445
      dyz     :     0.031629
      dx2y2   :     0.033626
      dxy     :     0.032507

 14 C s       :     2.869897  s :     2.869897
      pz      :     1.015547  p :     3.089867
      px      :     1.032319
      py      :     1.042001
      dz2     :     0.013390  d :     0.089324
      dxz     :     0.017179
      dyz     :     0.015599
      dx2y2   :     0.020888
      dxy     :     0.022268

 15 C s       :     2.865052  s :     2.865052
      pz      :     0.979890  p :     3.040731
      px      :     1.019270
      py      :     1.041572
      dz2     :     0.010135  d :     0.091653
      dxz     :     0.014581
      dyz     :     0.018812
      dx2y2   :     0.023415
      dxy     :     0.024710

 16 C s       :     2.870100  s :     2.870100
      pz      :     1.016100  p :     3.091690
      px      :     1.020203
      py      :     1.055387
      dz2     :     0.011207  d :     0.088229
      dxz     :     0.012989
      dyz     :     0.019802
      dx2y2   :     0.021682
      dxy     :     0.022550

 17 C s       :     2.861981  s :     2.861981
      pz      :     0.980972  p :     2.984994
      px      :     0.981768
      py      :     1.022253
      dz2     :     0.021650  d :     0.131258
      dxz     :     0.028704
      dyz     :     0.017768
      dx2y2   :     0.029118
      dxy     :     0.034018

 18 N s       :     3.219404  s :     3.219404
      pz      :     1.307427  p :     3.815347
      px      :     1.204561
      py      :     1.303359
      dz2     :     0.007955  d :     0.060469
      dxz     :     0.012142
      dyz     :     0.009109
      dx2y2   :     0.018686
      dxy     :     0.012578

 19 H s       :     0.906955  s :     0.906955
      pz      :     0.018112  p :     0.066414
      px      :     0.018831
      py      :     0.029471

 20 H s       :     0.906602  s :     0.906602
      pz      :     0.018224  p :     0.066584
      px      :     0.014036
      py      :     0.034324

 21 H s       :     0.909263  s :     0.909263
      pz      :     0.040320  p :     0.067587
      px      :     0.016069
      py      :     0.011199

 22 H s       :     0.900818  s :     0.900818
      pz      :     0.017838  p :     0.072794
      px      :     0.013300
      py      :     0.041656

 23 H s       :     0.907073  s :     0.907073
      pz      :     0.038932  p :     0.066495
      px      :     0.016100
      py      :     0.011463

 24 H s       :     0.902029  s :     0.902029
      pz      :     0.039961  p :     0.068485
      px      :     0.012630
      py      :     0.015893

 25 H s       :     0.901509  s :     0.901509
      pz      :     0.026658  p :     0.066306
      px      :     0.021055
      py      :     0.018593

 26 H s       :     0.901242  s :     0.901242
      pz      :     0.013471  p :     0.067646
      px      :     0.022460
      py      :     0.031714

 27 H s       :     0.914743  s :     0.914743
      pz      :     0.041188  p :     0.064613
      px      :     0.011035
      py      :     0.012390

 28 H s       :     0.898665  s :     0.898665
      pz      :     0.013633  p :     0.070227
      px      :     0.018231
      py      :     0.038364

 29 H s       :     0.903640  s :     0.903640
      pz      :     0.024869  p :     0.066119
      px      :     0.017472
      py      :     0.023779

 30 H s       :     0.903372  s :     0.903372
      pz      :     0.020255  p :     0.067743
      px      :     0.033114
      py      :     0.014374

 31 H s       :     0.916134  s :     0.916134
      pz      :     0.012252  p :     0.064377
      px      :     0.013515
      py      :     0.038610



                      *****************************
                      * MAYER POPULATION ANALYSIS *
                      *****************************

  NA   - Mulliken gross atomic population
  ZA   - Total nuclear charge
  QA   - Mulliken gross atomic charge
  VA   - Mayer's total valence
  BVA  - Mayer's bonded valence
  FA   - Mayer's free valence

  ATOM       NA         ZA         QA         VA         BVA        FA
  0 C      5.9746     6.0000     0.0254     3.8240     3.8240    -0.0000
  1 C      5.9822     6.0000     0.0178     3.8426     3.8426    -0.0000
  2 C      5.9786     6.0000     0.0214     3.8646     3.8646    -0.0000
  3 C      6.1823     6.0000    -0.1823     3.8212     3.8212    -0.0000
  4 C      5.9737     6.0000     0.0263     3.8486     3.8486    -0.0000
  5 C      5.9755     6.0000     0.0245     3.8261     3.8261    -0.0000
  6 P     14.6195    15.0000     0.3805     2.8914     2.8914    -0.0000
  7 C      6.1411     6.0000    -0.1411     3.9483     3.9483    -0.0000
  8 C      5.9512     6.0000     0.0488     3.8481     3.8481    -0.0000
  9 C      5.9419     6.0000     0.0581     3.8939     3.8939    -0.0000
 10 C      6.0016     6.0000    -0.0016     3.8389     3.8389    -0.0000
 11 C      5.9559     6.0000     0.0441     4.0175     4.0175    -0.0000
 12 N      7.0925     7.0000    -0.0925     3.1611     3.1611    -0.0000
 13 C      6.1338     6.0000    -0.1338     3.9294     3.9294    -0.0000
 14 C      5.9708     6.0000     0.0292     3.8777     3.8777     0.0000
 15 C      5.9409     6.0000     0.0591     3.9005     3.9005    -0.0000
 16 C      6.0060     6.0000    -0.0060     3.8412     3.8412    -0.0000
 17 C      5.9605     6.0000     0.0395     4.0317     4.0317    -0.0000
 18 N      7.1159     7.0000    -0.1159     3.1411     3.1411    -0.0000
 19 H      1.0156     1.0000    -0.0156     0.9771     0.9771     0.0000
 20 H      1.0165     1.0000    -0.0165     0.9776     0.9776    -0.0000
 21 H      1.0200     1.0000    -0.0200     0.9938     0.9938    -0.0000
 22 H      1.0021     1.0000    -0.0021     1.0370     1.0370    -0.0000
 23 H      1.0184     1.0000    -0.0184     0.9777     0.9777     0.0000
 24 H      1.0083     1.0000    -0.0083     0.9970     0.9970     0.0000
 25 H      1.0013     1.0000    -0.0013     0.9797     0.9797     0.0000
 26 H      1.0046     1.0000    -0.0046     0.9823     0.9823    -0.0000
 27 H      0.9986     1.0000     0.0014     0.9811     0.9811    -0.0000
 28 H      0.9969     1.0000     0.0031     0.9948     0.9948     0.0000
 29 H      1.0073     1.0000    -0.0073     0.9792     0.9792    -0.0000
 30 H      1.0101     1.0000    -0.0101     0.9821     0.9821    -0.0000
 31 H      1.0019     1.0000    -0.0019     0.9812     0.9812    -0.0000

  Mayer bond orders larger than 0.100000
B(  0-C ,  1-C ) :   1.3931 B(  0-C ,  5-C ) :   1.3652 B(  0-C , 19-H ) :   0.9845 
B(  1-C ,  2-C ) :   1.3787 B(  1-C , 20-H ) :   0.9853 B(  2-C ,  3-C ) :   1.3924 
B(  2-C , 21-H ) :   0.9856 B(  3-C ,  4-C ) :   1.3622 B(  3-C ,  6-P ) :   0.9316 
B(  4-C ,  5-C ) :   1.3982 B(  4-C , 22-H ) :   0.9693 B(  5-C , 23-H ) :   0.9852 
B(  6-P ,  7-C ) :   0.9170 B(  6-P , 13-C ) :   0.9122 B(  7-C ,  8-C ) :   1.3821 
B(  7-C , 12-N ) :   1.4513 B(  8-C ,  9-C ) :   1.4016 B(  8-C , 24-H ) :   0.9703 
B(  9-C , 10-C ) :   1.4182 B(  9-C , 25-H ) :   0.9783 B( 10-C , 11-C ) :   1.3650 
B( 10-C , 26-H ) :   0.9710 B( 11-C , 12-N ) :   1.5363 B( 11-C , 27-H ) :   0.9725 
B( 13-C , 14-C ) :   1.3764 B( 13-C , 18-N ) :   1.4457 B( 14-C , 15-C ) :   1.4187 
B( 14-C , 28-H ) :   0.9631 B( 15-C , 16-C ) :   1.4115 B( 15-C , 29-H ) :   0.9766 
B( 16-C , 17-C ) :   1.3718 B( 16-C , 30-H ) :   0.9701 B( 17-C , 18-N ) :   1.5496 
B( 17-C , 31-H ) :   0.9712 

-------
TIMINGS
-------

Total SCF time: 0 days 0 hours 0 min 16 sec 

Total time                  ....      16.395 sec
Sum of individual times     ....      16.321 sec  ( 99.5%)

SCF preparation             ....       0.129 sec  (  0.8%)
Fock matrix formation       ....      15.759 sec  ( 96.1%)
  Startup                   ....       0.019 sec  (  0.1% of F)
  Exchange formation        ....      11.938 sec  ( 75.8% of F)
  Split-RI-J                ....       1.334 sec  (  8.5% of F)
  XC integration            ....       2.390 sec  ( 15.2% of F)
    Basis function eval.    ....       0.753 sec  ( 31.5% of XC)
    Density eval.           ....       0.709 sec  ( 29.7% of XC)
    XC-Functional eval.     ....       0.071 sec  (  3.0% of XC)
    XC-Potential eval.      ....       0.532 sec  ( 22.3% of XC)
Diagonalization             ....       0.000 sec  (  0.0%)
Density matrix formation    ....       0.044 sec  (  0.3%)
Total Energy calculation    ....       0.017 sec  (  0.1%)
Population analysis         ....       0.129 sec  (  0.8%)
Orbital Transformation      ....       0.034 sec  (  0.2%)
Orbital Orthonormalization  ....       0.000 sec  (  0.0%)
DIIS solution               ....       0.040 sec  (  0.2%)
SOSCF solution              ....       0.169 sec  (  1.0%)
Finished LeanSCF after  16.5 sec

Maximum memory used throughout the entire LEANSCF-calculation: 35.9 MB


-------------------------------------------------------------------------------
                          DFT DISPERSION CORRECTION                            
                                                                               
                              DFTD3 V3.1  Rev 1                                
                          USING Becke-Johnson damping                          
-------------------------------------------------------------------------------
The B3LYP functional is recognized
Active option DFTDOPT                   ...         4   

molecular C6(AA) [au] = 15364.153000 


            DFT-D V3
 parameters
 s6 scaling factor         :     1.0000 
 a1 scaling factor         :     0.3981 
 s8 scaling factor         :     1.9889 
 a2 scaling factor         :     4.4211 
 ad hoc parameters k1-k3   :    16.0000     1.3333    -4.0000 

 Edisp/kcal,au: -50.005536951994  -0.079688887076 
 E6   /kcal   : -22.584966413 
 E8   /kcal   : -27.420570539 
 % E8         :  54.835068696 

-------------------------   ----------------
Dispersion correction           -0.079688887
-------------------------   ----------------


-------------------------   --------------------
FINAL SINGLE POINT ENERGY     -1067.326989616103
-------------------------   --------------------

                                *** OPTIMIZATION RUN DONE ***



           ************************************************************
           *        Program running with 6 parallel MPI-processes     *
           *              working on a common directory               *
           ************************************************************

------------------------------------------------------------------------------
                              ORCA PROPERTY CALCULATIONS
------------------------------------------------------------------------------

GBWName                                 ... data/geom_opt/603962/603962.gbw
Number of atoms                         ...     32
Number of basis functions               ...    335
Max core memory                         ...   1024 MB

Electric properties:
Dipole moment                           ... YES
Quadrupole moment                       ...  NO
Static polarizability (Dipole/Dipole)   ...  NO
Static polarizability (Dipole/Quad.)    ...  NO
Static polarizability (Quad./Quad.)     ...  NO
Static polarizability (Velocity)        ...  NO

Atomic electric properties:
Dipole moment                           ...  NO
Quadrupole moment                       ...  NO
Static polarizability                   ...  NO

Choice of electric origin               ... Center of mass
Position of electric origin             ...     0.152047     0.125941    -0.384112

General magnetic properties:
Magnetizability                         ...  NO

EPR properties:
g-Tensor (aka g-matrix)                 ...  NO
Zero-Field splitting spin-orbit         ...  NO
Zero-field splitting spin-spin          ...  NO
Hyperfine couplings                     ...  NO (   0 nuclei)
Quadrupole couplings                    ...  NO (   0 nuclei)
Contact density                         ...  NO (   0 nuclei)

NMR properties:
Chemical shifts                         ...  NO (   0 nuclei)
Spin-rotation constants                 ...  NO (   0 nuclei)
Spin-spin couplings                     ...  NO (   0 nuclei,    0 pairs)

Choice of magnetic origin               ... GIAO
Position of magnetic origin             ...     0.000000     0.000000     0.000000

Properties with geometric perturbations:
SCF Hessian                             ...  NO
IR spectrum                             ...  NO
VCD spectrum                            ...  NO
X-ray spectroscopy properties:
SCF XES/XAS/RIXS spectra                ...  NO


-------------
DIPOLE MOMENT
-------------

Method             : SCF
Type of density    : Electron Density
Multiplicity       :   1
Irrep              :   0
Energy             : -1067.2473007290266196 Eh
Relativity type    : 
Basis              : AO
                                X                 Y                 Z
Electronic contribution:      1.924133981       1.903022545      -5.344081158
Nuclear contribution   :     -2.272845071      -1.841374695       5.799650192
                        -----------------------------------------
Total Dipole Moment    :     -0.348711089       0.061647851       0.455569033
                        -----------------------------------------
Magnitude (a.u.)       :      0.577012154
Magnitude (Debye)      :      1.466648338



--------------------
Rotational spectrum 
--------------------
 
Rotational constants in cm-1:             0.012850             0.011355             0.007292 
Rotational constants in MHz :           385.242422           340.400833           218.614284 

Dipole components along the rotational axes: 
x,y,z [a.u.] :    -0.076730     0.240985     0.518635 
x,y,z [Debye]:    -0.195033     0.612535     1.318264 

 

Dipole moment calculation done in   0.0 sec 

Maximum memory used throughout the entire PROP-calculation: 18.8 MB

--------------------------------
SUGGESTED CITATIONS FOR THIS RUN
--------------------------------

Below you find a list of papers that are relevant to this ORCA run
We neither can nor want to force you to cite these papers, but we appreciate if you do
You receive ORCA, which is the product of decades of hard work by many enthusiastic individuals, for free
The only thing we kindly ask in return is that you cite our papers,
We deeply appreciate it, if you show your appreciation for ORCA by not just citing the generic ORCA reference.

Please note that relegating all ORCA citations to the supporting information does *not* help us.
SI sections are not indexed - citations you put there will not count into any citation statistics
But we need these citations in order to attract the funding resources that allow us to do what we are doing

Therefore, if you are a happy ORCA user, please consider citing a few of the papers listed below in the main body of your paper

In addition to the list printed below, the program has created the file data/geom_opt/603962/603962.bibtex that contains the list in bibtex format
You can import this file easily into all common literature databanks and citation aid programs


List of essential papers. We consider these as the minimum necessary citations

  1. Neese,F.
     Software update: the ORCA program system, version 5.0
     WIRES Comput. Molec. Sci., 2022 12(1)e1606
     doi.org/10.1002/wcms.1606

List of papers to cite with high priority. The work reported in these papers was absolutely
necessary for this run to complete.
Our perspective: the developers of density functionals and basis sets usually get cited in chemistry papers
Good! But without the algorithms to do something with them, the functionals or basis sets would not do anything.
Hence, in our opinion, the algorithm design and method developments papers are equally worthy of getting cited

  1. Neese,F.
     An improvement of the resolution of the identity approximation for the formation of the Coulomb matrix
     J. Comp. Chem., 2003 24(14)1740-1747
     doi.org/10.1002/jcc.10318
  2. Neese,F.
     The SHARK Integral Generation and Digestion System
     J. Comp. Chem., 2022  1-16
     doi.org/10.1002/jcc.26942
  3. Grimme,S.; Antony,J.; Ehrlich,S.; Krieg,H.
     A consistent and accurate ab initio parametrization of density functional dispersion correction (DFT-D) for the 94 elements H-Pu
     J. Chem. Phys., 2010 132 154104-XXXX
     doi.org/10.1063/1.3382344
  4. Grimme,S.; Ehrlich,S.; Goerigk,L.
     Effect of the damping function in dispersion corrected density functional theory
     J. Comput. Chem., 2011 32(7)1456-1465
     doi.org/10.1002/jcc.21759

List of suggested additional citations. These are papers that are important in the 'surrounding' of 
of this run, or papers that preceded the highly important papers. If you like your results we are grateful for a citation.

  1. Neese,F.
     The ORCA program system
     WIRES Comput. Molec. Sci., 2012 2(1)73-78
     doi.org/10.1002/wcms.81
  2. Neese,F.
     Software update: the ORCA program system, version 4.0
     WIRES Comput. Molec. Sci., 2018 8(1)1-6
     doi.org/10.1002/wcms.1327
  3. Neese,F.; Wennmohs,F.; Becker,U.; Riplinger,C.
     The ORCA quantum chemistry program package
     J. Chem. Phys., 2020 152 Art. No. L224108
     doi.org/10.1063/5.0004608

List of optional additional citations

  1. Neese,F.
     Approximate second-order SCF convergence for spin unrestricted wavefunctions
     Chem. Phys. Lett., 2000 325(1-3)93-98
     doi.org/10.1016/s0009-2614(00)00662-x

Timings for individual modules:

Sum of individual times          ...     1270.614 sec (=  21.177 min)
Startup calculation              ...       34.885 sec (=   0.581 min)   2.7 %
SCF iterations                   ...      837.838 sec (=  13.964 min)  65.9 %
Property calculations            ...        0.175 sec (=   0.003 min)   0.0 %
SCF Gradient evaluation          ...      397.341 sec (=   6.622 min)  31.3 %
Geometry relaxation              ...        0.375 sec (=   0.006 min)   0.0 %
                             ****ORCA TERMINATED NORMALLY****
TOTAL RUN TIME: 0 days 0 hours 21 minutes 15 seconds 903 msec
