
                                 *****************
                                 * O   R   C   A *
                                 *****************

                                            #,                                       
                                            ###                                      
                                            ####                                     
                                            #####                                    
                                            ######                                   
                                           ########,                                 
                                     ,,################,,,,,                         
                               ,,#################################,,                 
                          ,,##########################################,,             
                       ,#########################################, ''#####,          
                    ,#############################################,,   '####,        
                  ,##################################################,,,,####,       
                ,###########''''           ''''###############################       
              ,#####''   ,,,,##########,,,,          '''####'''          '####       
            ,##' ,,,,###########################,,,                        '##       
           ' ,,###''''                  '''############,,,                           
         ,,##''                                '''############,,,,        ,,,,,,###''
      ,#''                                            '''#######################'''  
     '                                                          ''''####''''         
             ,#######,   #######,   ,#######,      ##                                
            ,#'     '#,  ##    ##  ,#'     '#,    #''#        ,####,   ,####,        
            ##       ##  ##   ,#'  ##            #'  '#       #'       #'  '#        
            ##       ##  #######   ##           ,######,      #####,   #    #        
            '#,     ,#'  ##    ##  '#,     ,#' ,#      #,     #,   #   #,  ,#        
             '#######'   ##     ##  '#######'  #'      '#     '####' # '####'        



                #########################################################
                #                        -***-                          #
                #          Department of theory and spectroscopy        #
                #                                                       #
                #                      Frank Neese                      #
                #                                                       #
                #     Directorship, Architecture, Infrastructure        #
                #                    SHARK, DRIVERS                     #
                #        Core code/Algorithms in most modules           #
                #                                                       #
                #        Max Planck Institute fuer Kohlenforschung      #
                #                Kaiser Wilhelm Platz 1                 #
                #                 D-45470 Muelheim/Ruhr                 #
                #                      Germany                          #
                #                                                       #
                #                  All rights reserved                  #
                #                        -***-                          #
                #########################################################


                         Program Version 6.0.0  -   RELEASE   -


 With contributions from (in alphabetic order):
   Daniel Aravena         : Magnetic Suceptibility
   Michael Atanasov       : Ab Initio Ligand Field Theory (pilot matlab implementation)
   Alexander A. Auer      : GIAO ZORA, VPT2 properties, NMR spectrum
   Ute Becker             : All parallelization in ORCA, NUMFREQ, NUMCALC
   Giovanni Bistoni       : ED, misc. LED, open-shell LED, HFLD
   Martin Brehm           : Molecular dynamics
   Dmytro Bykov           : pre 5.0 version of the SCF Hessian
   Marcos Casanova-Páez   : Triplet and SCS-CIS(D). UHF-(DLPNO)-IP/EA/STEOM-CCSD. UHF-CVS-IP/STEOM-CCSD
   Vijay G. Chilkuri      : MRCI spin determinant printing, contributions to CSF-ICE
   Pauline Colinet        : FMM embedding
   Dipayan Datta          : RHF DLPNO-CCSD density
   Achintya Kumar Dutta   : EOM-CC, STEOM-CC
   Nicolas Foglia         : Exact transition moments, OPA infrastructure, MCD improvements
   Dmitry Ganyushin       : Spin-Orbit,Spin-Spin,Magnetic field MRCI
   Miquel Garcia          : C-PCM and meta-GGA Hessian, CCSD/C-PCM, Gaussian charge scheme
   Tiago L. C. Gouveia    : GS-ROHF, GS-ROCIS
   Yang Guo               : DLPNO-NEVPT2, F12-NEVPT2, CIM, IAO-localization
   Andreas Hansen         : Spin unrestricted coupled pair/coupled cluster methods
   Ingolf Harden          : AUTO-CI MPn and infrastructure 
   Benjamin Helmich-Paris : MC-RPA, TRAH-(SCF,CASSCF), AVAS, COSX integrals, SCF dyn. polar.
   Lee Huntington         : MR-EOM, pCC
   Robert Izsak           : Overlap fitted RIJCOSX, COSX-SCS-MP3, EOM
   Riya Kayal             : Wick's Theorem for AUTO-CI, AUTO-CI UHF-CCSDT
   Emily Kempfer          : AUTO-CI, RHF CISDT and CCSDT
   Christian Kollmar      : KDIIS, OOCD, Brueckner-CCSD(T), CCSD density, CASPT2, CASPT2-K, improved NEVPT2
   Axel Koslowski         : Symmetry handling
   Simone Kossmann        : Meta GGA functionals, TD-DFT gradient, OOMP2, (MP2 Hessian; deprecated post 5.0)
   Lucas Lang             : DCDCAS
   Marvin Lechner         : AUTO-CI (C++ implementation), FIC-MRCC
   Spencer Leger          : CASSCF response
   Dagmar Lenk            : GEPOL surface, SMD, ORCA-2-JSON
   Dimitrios Liakos       : Extrapolation schemes; Compound Job, initial MDCI parallelization
   Dimitrios Manganas     : Further ROCIS development; embedding schemes. LFT, Crystal Embedding
   Dimitrios Pantazis     : SARC Basis sets
   Anastasios Papadopoulos: AUTO-CI, single reference methods and gradients
   Taras Petrenko         : pre 6.0 DFT Hessian and TD-DFT gradient, (ASA, deprecated), ECA, 1-Electron XAS/XES, NRVS
   Peter Pinski           : DLPNO-MP2, DLPNO-MP2 Gradient
   Christoph Reimann      : Effective Core Potentials
   Marius Retegan         : Local ZFS, SOC
   Christoph Riplinger    : Optimizer, TS searches, QM/MM, DLPNO-CCSD(T), (RO)-DLPNO pert. Triples
   Michael Roemelt        : Original ROCIS implementation
   Masaaki Saitow         : Open-shell DLPNO-CCSD energy and density
   Barbara Sandhoefer     : DKH picture change effects
   Kantharuban Sivalingam : CASSCF convergence/infrastructure, NEVPT2 and variants, FIC-MRCI
   Bernardo de Souza      : ESD, SOC TD-DFT
   Georgi Stoychev        : AutoAux, RI-MP2 NMR, DLPNO-MP2 response, X2C
   Van Anh Tran           : RI-MP2 g-tensors
   Willem Van den Heuvel  : Paramagnetic NMR
   Zikuan Wang            : NOTCH, Electric field optimization 
   Frank Wennmohs         : Technical directorship and infrastructure
   Hang Xu                : AUTO-CI-Response properties 


 We gratefully acknowledge several colleagues who have allowed us to
 interface, adapt or use parts of their codes:
   Stefan Grimme, W. Hujo, H. Kruse, P. Pracht,  : VdW corrections, initial TS optimization,
                  C. Bannwarth, S. Ehlert,         DFT functionals, gCP, sTDA/sTD-DF
                  L. Wittmann, M. Mueller
   Ed Valeev, F. Pavosevic, A. Kumar             : LibInt (2-el integral package), F12 methods
   Garnet Chan, S. Sharma, J. Yang, R. Olivares  : DMRG
   Ulf Ekstrom                                   : XCFun DFT Library
   Mihaly Kallay                                 : mrcc  (arbitrary order and MRCC methods)
   Frank Weinhold                                : gennbo (NPA and NBO analysis)
   Simon Mueller                                 : openCOSMO-RS
   Christopher J. Cramer and Donald G. Truhlar   : smd solvation model
   Lars Goerigk                                  : TD-DFT with DH, B97 family of functionals
   V. Asgeirsson, H. Jonsson                     : NEB implementation
   FAccTs GmbH                                   : IRC, NEB, NEB-TS, DLPNO-Multilevel, CI-OPT
                                                   MM, QMMM, 2- and 3-layer-ONIOM, Crystal-QMMM,
                                                   LR-CPCM, SF, NACMEs, symmetry and pop. for TD-DFT,
                                                   nearIR, NL-DFT gradient (VV10), updates on ESD,
                                                   ML-optimized integration grids, MBIS, APM,
                                                   GOAT, DOCKER, SOLVATOR, interface openCOSMO-RS
   S Lehtola, MJT Oliveira, MAL Marques          : LibXC Library
   Liviu Ungur et al                             : ANISO software


 Your calculation uses the libint2 library for the computation of 2-el integrals
 For citations please refer to: http://libint.valeyev.net

 Your ORCA version has been built with support for libXC version: 6.2.2
 For citations please refer to: https://libxc.gitlab.io

 This ORCA versions uses:
   CBLAS   interface :  Fast vector & matrix operations
   LAPACKE interface :  Fast linear algebra routines
   Shared memory     :  Shared parallel matrices


Your calculation utilizes the atom-pairwise dispersion correction
with the Becke-Johnson damping scheme (D3BJ)


Warning: RI is on but no J-basis has been assigned. Assigning Def2/J (nothing to worry about!)
================================================================================

----- Orbital basis set information -----
Your calculation utilizes the basis: def2-SVP
   F. Weigend and R. Ahlrichs, Phys. Chem. Chem. Phys. 7, 3297 (2005).

----- AuxJ basis set information -----
Your calculation utilizes the auxiliary basis: def2/J
   F. Weigend, Phys. Chem. Chem. Phys. 8, 1057 (2006).

================================================================================
                                        WARNINGS
                       Please study these warnings very carefully!
================================================================================


WARNING: Geometry Optimization
  ===> : Switching off AutoStart
         For restart on a previous wavefunction, please use MOREAD

================================================================================
                                       INPUT FILE
================================================================================
NAME = data/geom_opt/143061/143061.inp
|  1> ! RIJONX B3LYP def2-SVP D3BJ TIGHTSCF Opt
|  2> %pal
|  3> nprocs 6
|  4> end
|  5> 
|  6> * xyz 0 1
|  7> C     -0.354281    1.604614   -0.251965
|  8> N     -0.985615    0.761620    0.745860
|  9> C     -1.612444   -0.386852    0.118983
| 10> N     -0.630079   -1.144464   -0.633253
| 11> C      0.002039   -0.305674   -1.634120
| 12> N      0.625315    0.842619   -1.003385
| 13> C      1.799489    0.499333   -0.226224
| 14> P      1.232683   -0.572262    1.108714
| 15> C     -0.098406    0.403905    1.834625
| 16> C      0.320463   -1.841722    0.209842
| 17> H      0.100204    2.492767    0.207708
| 18> H     -1.114465    2.010864   -0.933228
| 19> H     -2.419228   -0.054364   -0.548541
| 20> H     -2.118213   -1.018622    0.861772
| 21> H     -0.744947    0.029821   -2.366577
| 22> H      0.728473   -0.875488   -2.229332
| 23> H      2.284114    1.402622    0.161093
| 24> H      2.545809   -0.000364   -0.854012
| 25> H     -0.638180   -0.160458    2.603355
| 26> H      0.285860    1.302148    2.330917
| 27> H      0.988573   -2.465211   -0.394888
| 28> H     -0.197162   -2.524831    0.892656
| 29> **                         ****END OF INPUT****
================================================================================

                       *****************************
                       * Geometry Optimization Run *
                       *****************************

Geometry optimization settings:
Update method            Update   .... BFGS
Choice of coordinates    CoordSys .... (2022) Redundant Internals
Initial Hessian          InHess   .... Almloef's Model
Max. no of cycles        MaxIter  .... 66

Convergence Tolerances:
Energy Change            TolE     ....  5.0000e-06 Eh
Max. Gradient            TolMAXG  ....  3.0000e-04 Eh/bohr
RMS Gradient             TolRMSG  ....  1.0000e-04 Eh/bohr
Max. Displacement        TolMAXD  ....  4.0000e-03 bohr
RMS Displacement         TolRMSD  ....  2.0000e-03 bohr
Strict Convergence                .... False

------------------------------------------------------------------------------
                        ORCA OPTIMIZATION COORDINATE SETUP
------------------------------------------------------------------------------

The optimization will be done in redundant internal coordinates (2022)
Making redundant internal coordinates   ...  (2022 redundants) done
Evaluating the initial hessian          ...  (Almloef) done
Evaluating the coordinates              ...  done
Calculating the B-matrix                .... done
Calculating the G-matrix                .... done
Diagonalizing the G-matrix              .... done
The first mode is                       ....   72
The number of degrees of freedom        ....   60

    -----------------------------------------------------------------
                    Redundant Internal Coordinates


    -----------------------------------------------------------------
         Definition                    Initial Value    Approx d2E/dq
    -----------------------------------------------------------------
      1. B(N   1,C   0)                  1.4508         0.447551   
      2. B(C   2,N   1)                  1.4508         0.447550   
      3. B(N   3,C   2)                  1.4508         0.447551   
      4. B(C   4,N   3)                  1.4508         0.447551   
      5. B(N   5,C   4)                  1.4508         0.447551   
      6. B(N   5,C   0)                  1.4508         0.447551   
      7. B(C   6,N   5)                  1.4493         0.450034   
      8. B(P   7,C   6)                  1.8032         0.460201   
      9. B(C   8,P   7)                  1.8032         0.460200   
     10. B(C   8,N   1)                  1.4493         0.450034   
     11. B(C   9,P   7)                  1.8032         0.460201   
     12. B(C   9,N   3)                  1.4493         0.450034   
     13. B(H  10,C   0)                  1.0985         0.349047   
     14. B(H  11,C   0)                  1.0987         0.348833   
     15. B(H  12,C   2)                  1.0987         0.348834   
     16. B(H  13,C   2)                  1.0985         0.349047   
     17. B(H  14,C   4)                  1.0987         0.348833   
     18. B(H  15,C   4)                  1.0985         0.349047   
     19. B(H  16,C   6)                  1.0958         0.352491   
     20. B(H  17,C   6)                  1.0958         0.352490   
     21. B(H  18,C   8)                  1.0958         0.352491   
     22. B(H  19,C   8)                  1.0958         0.352491   
     23. B(H  20,C   9)                  1.0958         0.352491   
     24. B(H  21,C   9)                  1.0958         0.352490   
     25. A(N   1,C   0,N   5)          110.1730         0.381853   
     26. A(N   5,C   0,H  11)          109.8913         0.330381   
     27. A(N   1,C   0,H  11)          109.8912         0.330381   
     28. A(N   1,C   0,H  10)          111.2248         0.330415   
     29. A(N   5,C   0,H  10)          111.2247         0.330415   
     30. A(H  10,C   0,H  11)          104.2876         0.287983   
     31. A(C   0,N   1,C   2)          110.5359         0.381853   
     32. A(C   0,N   1,C   8)          113.1847         0.382220   
     33. A(C   2,N   1,C   8)          113.1848         0.382220   
     34. A(N   3,C   2,H  13)          111.2248         0.330415   
     35. A(N   1,C   2,H  13)          111.2247         0.330415   
     36. A(N   3,C   2,H  12)          109.8913         0.330381   
     37. A(N   1,C   2,H  12)          109.8913         0.330381   
     38. A(H  12,C   2,H  13)          104.2876         0.287984   
     39. A(N   1,C   2,N   3)          110.1730         0.381853   
     40. A(C   2,N   3,C   4)          110.5360         0.381853   
     41. A(C   4,N   3,C   9)          113.1848         0.382220   
     42. A(C   2,N   3,C   9)          113.1848         0.382220   
     43. A(N   5,C   4,H  14)          109.8913         0.330381   
     44. A(N   3,C   4,H  14)          109.8913         0.330381   
     45. A(N   3,C   4,N   5)          110.1730         0.381853   
     46. A(H  14,C   4,H  15)          104.2876         0.287983   
     47. A(N   3,C   4,H  15)          111.2248         0.330415   
     48. A(N   5,C   4,H  15)          111.2248         0.330415   
     49. A(C   0,N   5,C   6)          113.1848         0.382220   
     50. A(C   0,N   5,C   4)          110.5360         0.381853   
     51. A(C   4,N   5,C   6)          113.1848         0.382220   
     52. A(H  16,C   6,H  17)          106.0919         0.288897   
     53. A(N   5,C   6,H  17)          110.6451         0.331255   
     54. A(N   5,C   6,P   7)          106.4437         0.411802   
     55. A(P   7,C   6,H  16)          111.5435         0.355362   
     56. A(N   5,C   6,H  16)          110.6450         0.331255   
     57. A(P   7,C   6,H  17)          111.5435         0.355361   
     58. A(C   6,P   7,C   8)          102.0253         0.443924   
     59. A(C   8,P   7,C   9)          102.0253         0.443924   
     60. A(C   6,P   7,C   9)          102.0253         0.443924   
     61. A(N   1,C   8,P   7)          106.4437         0.411802   
     62. A(P   7,C   8,H  19)          111.5436         0.355361   
     63. A(N   1,C   8,H  19)          110.6450         0.331255   
     64. A(P   7,C   8,H  18)          111.5435         0.355361   
     65. A(N   1,C   8,H  18)          110.6450         0.331255   
     66. A(H  18,C   8,H  19)          106.0919         0.288898   
     67. A(H  20,C   9,H  21)          106.0919         0.288897   
     68. A(P   7,C   9,H  21)          111.5435         0.355361   
     69. A(N   3,C   9,H  21)          110.6451         0.331255   
     70. A(P   7,C   9,H  20)          111.5435         0.355361   
     71. A(N   3,C   9,H  20)          110.6450         0.331255   
     72. A(N   3,C   9,P   7)          106.4437         0.411802   
     73. D(C   2,N   1,C   0,N   5)    -57.7690         0.017085   
     74. D(C   2,N   1,C   0,H  11)     63.4560         0.017085   
     75. D(C   2,N   1,C   0,H  10)    178.4211         0.017085   
     76. D(C   8,N   1,C   0,H  10)    -53.4243         0.017085   
     77. D(C   8,N   1,C   0,N   5)     70.3855         0.017085   
     78. D(H  12,C   2,N   1,C   0)    -63.4560         0.017085   
     79. D(H  12,C   2,N   1,C   8)    168.3895         0.017085   
     80. D(N   3,C   2,N   1,C   0)     57.7690         0.017085   
     81. D(H  13,C   2,N   1,C   0)   -178.4211         0.017085   
     82. D(N   3,C   2,N   1,C   8)    -70.3855         0.017085   
     83. D(C   4,N   3,C   2,H  12)     63.4559         0.017085   
     84. D(C   9,N   3,C   2,H  12)   -168.3895         0.017085   
     85. D(C   4,N   3,C   2,H  13)    178.4211         0.017085   
     86. D(C   9,N   3,C   2,N   1)     70.3855         0.017085   
     87. D(C   4,N   3,C   2,N   1)    -57.7691         0.017085   
     88. D(H  15,C   4,N   3,C   2)   -178.4211         0.017085   
     89. D(H  14,C   4,N   3,C   9)    168.3895         0.017085   
     90. D(H  14,C   4,N   3,C   2)    -63.4559         0.017085   
     91. D(N   5,C   4,N   3,C   9)    -70.3856         0.017085   
     92. D(N   5,C   4,N   3,C   2)     57.7690         0.017085   
     93. D(C   6,N   5,C   4,H  14)   -168.3895         0.017085   
     94. D(C   0,N   5,C   4,H  15)    178.4211         0.017085   
     95. D(C   0,N   5,C   4,N   3)    -57.7690         0.017085   
     96. D(C   6,N   5,C   4,N   3)     70.3856         0.017085   
     97. D(C   6,N   5,C   0,H  10)     53.4244         0.017085   
     98. D(C   0,N   5,C   4,H  14)     63.4560         0.017085   
     99. D(C   6,N   5,C   0,N   1)    -70.3855         0.017085   
    100. D(C   4,N   5,C   0,H  11)    -63.4559         0.017085   
    101. D(C   4,N   5,C   0,H  10)   -178.4210         0.017085   
    102. D(C   4,N   5,C   0,N   1)     57.7691         0.017085   
    103. D(P   7,C   6,N   5,C   0)     63.3838         0.017277   
    104. D(H  17,C   6,N   5,C   0)   -175.2609         0.017277   
    105. D(H  16,C   6,N   5,C   4)    175.2609         0.017277   
    106. D(H  16,C   6,N   5,C   0)    -57.9716         0.017277   
    107. D(P   7,C   6,N   5,C   4)    -63.3838         0.017277   
    108. D(C   9,P   7,C   6,H  16)    173.4093         0.004392   
    109. D(C   9,P   7,C   6,N   5)     52.6292         0.004392   
    110. D(C   8,P   7,C   6,H  17)   -173.4093         0.004392   
    111. D(C   8,P   7,C   6,H  16)     68.1508         0.004392   
    112. D(C   8,P   7,C   6,N   5)    -52.6293         0.004392   
    113. D(H  19,C   8,P   7,C   6)    -68.1508         0.004392   
    114. D(H  18,C   8,P   7,C   9)     68.1508         0.004392   
    115. D(H  18,C   8,P   7,C   6)    173.4093         0.004392   
    116. D(N   1,C   8,P   7,C   9)    -52.6292         0.004392   
    117. D(N   1,C   8,P   7,C   6)     52.6293         0.004392   
    118. D(H  19,C   8,N   1,C   0)     57.9717         0.017277   
    119. D(H  18,C   8,N   1,C   2)    -57.9716         0.017277   
    120. D(H  18,C   8,N   1,C   0)    175.2609         0.017277   
    121. D(P   7,C   8,N   1,C   2)     63.3837         0.017277   
    122. D(P   7,C   8,N   1,C   0)    -63.3838         0.017277   
    123. D(H  21,C   9,P   7,C   6)   -173.4093         0.004392   
    124. D(H  20,C   9,P   7,C   6)     68.1508         0.004392   
    125. D(N   3,C   9,P   7,C   8)     52.6293         0.004392   
    126. D(N   3,C   9,P   7,C   6)    -52.6292         0.004392   
    127. D(H  21,C   9,N   3,C   2)     57.9716         0.017277   
    128. D(H  20,C   9,N   3,C   4)    -57.9716         0.017277   
    129. D(H  20,C   9,N   3,C   2)    175.2608         0.017277   
    130. D(H  20,C   9,P   7,C   8)    173.4093         0.004392   
    131. D(P   7,C   9,N   3,C   4)     63.3838         0.017277   
    132. D(P   7,C   9,N   3,C   2)    -63.3838         0.017277   
    -----------------------------------------------------------------

Number of atoms                         .... 22
Number of degrees of freedom            .... 132


         *************************************************************
         *                GEOMETRY OPTIMIZATION CYCLE   1            *
         *************************************************************
---------------------------------
CARTESIAN COORDINATES (ANGSTROEM)
---------------------------------
  C     -0.354281    1.604614   -0.251965
  N     -0.985615    0.761620    0.745860
  C     -1.612444   -0.386852    0.118983
  N     -0.630079   -1.144464   -0.633253
  C      0.002039   -0.305674   -1.634120
  N      0.625315    0.842619   -1.003385
  C      1.799489    0.499333   -0.226224
  P      1.232683   -0.572262    1.108714
  C     -0.098406    0.403905    1.834625
  C      0.320463   -1.841722    0.209842
  H      0.100204    2.492767    0.207708
  H     -1.114465    2.010864   -0.933228
  H     -2.419228   -0.054364   -0.548541
  H     -2.118213   -1.018622    0.861772
  H     -0.744947    0.029821   -2.366577
  H      0.728473   -0.875488   -2.229332
  H      2.284114    1.402622    0.161093
  H      2.545809   -0.000364   -0.854012
  H     -0.638180   -0.160458    2.603355
  H      0.285860    1.302148    2.330917
  H      0.988573   -2.465211   -0.394888
  H     -0.197162   -2.524831    0.892656

----------------------------
CARTESIAN COORDINATES (A.U.)
----------------------------
  NO LB      ZA    FRAG     MASS         X           Y           Z
   0 C     6.0000    0    12.011   -0.669494    3.032281   -0.476145
   1 N     7.0000    0    14.007   -1.862542    1.439253    1.409471
   2 C     6.0000    0    12.011   -3.047078   -0.731044    0.224845
   3 N     7.0000    0    14.007   -1.190677   -2.162724   -1.196675
   4 C     6.0000    0    12.011    0.003853   -0.577640   -3.088039
   5 N     7.0000    0    14.007    1.181674    1.592319   -1.896123
   6 C     6.0000    0    12.011    3.400541    0.943603   -0.427501
   7 P    15.0000    0    30.974    2.329433   -1.081418    2.095166
   8 C     6.0000    0    12.011   -0.185960    0.763270    3.466939
   9 C     6.0000    0    12.011    0.605587   -3.480350    0.396544
  10 H     1.0000    0     1.008    0.189358    4.710647    0.392511
  11 H     1.0000    0     1.008   -2.106034    3.799982   -1.763545
  12 H     1.0000    0     1.008   -4.571678   -0.102733   -1.036592
  13 H     1.0000    0     1.008   -4.002842   -1.924917    1.628513
  14 H     1.0000    0     1.008   -1.407746    0.056354   -4.472182
  15 H     1.0000    0     1.008    1.376614   -1.654433   -4.212827
  16 H     1.0000    0     1.008    4.316350    2.650571    0.304422
  17 H     1.0000    0     1.008    4.810882   -0.000688   -1.613849
  18 H     1.0000    0     1.008   -1.205985   -0.303222    4.919628
  19 H     1.0000    0     1.008    0.540197    2.460703    4.404795
  20 H     1.0000    0     1.008    1.868132   -4.658574   -0.746230
  21 H     1.0000    0     1.008   -0.372582   -4.771239    1.686875

--------------------------------
INTERNAL COORDINATES (ANGSTROEM)
--------------------------------
 C      0   0   0     0.000000000000     0.00000000     0.00000000
 N      1   0   0     1.450819159722     0.00000000     0.00000000
 C      2   1   0     1.450819528113   110.53593917     0.00000000
 N      3   2   1     1.450819056762   110.17304672    57.76903061
 C      4   3   2     1.450819279481   110.53598784   302.23092811
 N      5   4   3     1.450819225903   110.17299195    57.76904855
 C      6   5   4     1.449313313260   113.18475847    70.38555663
 P      7   6   5     1.803231640557   106.44369655   296.61621024
 C      2   1   3     1.449313305028   113.18473368   128.15453760
 C      4   3   2     1.449312937689   113.18475591    70.38553425
 H      1   2   3     1.098486064346   111.22481687   178.42111748
 H      1   2   3     1.098652834850   109.89123593    63.45601960
 H      3   2   1     1.098652348733   109.89125254   296.54403263
 H      3   2   1     1.098485827301   111.22470881   181.57892710
 H      5   4   3     1.098652918837   109.89127220   296.54406709
 H      5   4   3     1.098486083615   111.22479532   181.57894358
 H      7   6   5     1.095813335671   110.64504197   175.26087831
 H      7   6   5     1.095814038582   110.64506282    57.97152717
 H      9   2   1     1.095813569794   110.64502992   175.26091780
 H      9   2   1     1.095813211761   110.64501924    57.97165607
 H     10   4   3     1.095813797194   110.64500745   175.26083147
 H     10   4   3     1.095814083274   110.64506011    57.97156408

---------------------------
INTERNAL COORDINATES (A.U.)
---------------------------
 C      0   0   0     0.000000000000     0.00000000     0.00000000
 N      1   0   0     2.741650881721     0.00000000     0.00000000
 C      2   1   0     2.741651577878   110.53593917     0.00000000
 N      3   2   1     2.741650687155   110.17304672    57.76903061
 C      4   3   2     2.741651108032   110.53598784   302.23092811
 N      5   4   3     2.741651006784   110.17299195    57.76904855
 C      6   5   4     2.738805244308   113.18475847    70.38555663
 P      7   6   5     3.407613956674   106.44369655   296.61621024
 C      2   1   3     2.738805228751   113.18473368   128.15453760
 C      4   3   2     2.738804534581   113.18475591    70.38553425
 H      1   2   3     2.075837823543   111.22481687   178.42111748
 H      1   2   3     2.076152974124   109.89123593    63.45601960
 H      3   2   1     2.076152055494   109.89125254   296.54403263
 H      3   2   1     2.075837375594   111.22470881   181.57892710
 H      5   4   3     2.076153132836   109.89127220   296.54406709
 H      5   4   3     2.075837859956   111.22479532   181.57894358
 H      7   6   5     2.070787098317   110.64504197   175.26087831
 H      7   6   5     2.070788426626   110.64506282    57.97152717
 H      9   2   1     2.070787540746   110.64502992   175.26091780
 H      9   2   1     2.070786864160   110.64501924    57.97165607
 H     10   4   3     2.070787970469   110.64500745   175.26083147
 H     10   4   3     2.070788511082   110.64506011    57.97156408

---------------------
BASIS SET INFORMATION
---------------------
There are 4 groups of distinct atoms

 Group   1 Type C   : 7s4p1d contracted to 3s2p1d pattern {511/31/1}
 Group   2 Type N   : 7s4p1d contracted to 3s2p1d pattern {511/31/1}
 Group   3 Type P   : 10s7p1d contracted to 4s3p1d pattern {5311/511/1}
 Group   4 Type H   : 4s1p contracted to 2s1p pattern {31/1}

Atom   0C    basis set group =>   1
Atom   1N    basis set group =>   2
Atom   2C    basis set group =>   1
Atom   3N    basis set group =>   2
Atom   4C    basis set group =>   1
Atom   5N    basis set group =>   2
Atom   6C    basis set group =>   1
Atom   7P    basis set group =>   3
Atom   8C    basis set group =>   1
Atom   9C    basis set group =>   1
Atom  10H    basis set group =>   4
Atom  11H    basis set group =>   4
Atom  12H    basis set group =>   4
Atom  13H    basis set group =>   4
Atom  14H    basis set group =>   4
Atom  15H    basis set group =>   4
Atom  16H    basis set group =>   4
Atom  17H    basis set group =>   4
Atom  18H    basis set group =>   4
Atom  19H    basis set group =>   4
Atom  20H    basis set group =>   4
Atom  21H    basis set group =>   4
---------------------------------
AUXILIARY/J BASIS SET INFORMATION
---------------------------------
There are 4 groups of distinct atoms

 Group   1 Type C   : 12s5p4d2f1g contracted to 6s4p3d1f1g pattern {711111/2111/211/2/1}
 Group   2 Type N   : 12s5p4d2f1g contracted to 6s4p3d1f1g pattern {711111/2111/211/2/1}
 Group   3 Type P   : 14s5p5d2f1g contracted to 8s4p3d1f1g pattern {71111111/2111/311/2/1}
 Group   4 Type H   : 5s2p1d contracted to 3s1p1d pattern {311/2/1}

Atom   0C    basis set group =>   1
Atom   1N    basis set group =>   2
Atom   2C    basis set group =>   1
Atom   3N    basis set group =>   2
Atom   4C    basis set group =>   1
Atom   5N    basis set group =>   2
Atom   6C    basis set group =>   1
Atom   7P    basis set group =>   3
Atom   8C    basis set group =>   1
Atom   9C    basis set group =>   1
Atom  10H    basis set group =>   4
Atom  11H    basis set group =>   4
Atom  12H    basis set group =>   4
Atom  13H    basis set group =>   4
Atom  14H    basis set group =>   4
Atom  15H    basis set group =>   4
Atom  16H    basis set group =>   4
Atom  17H    basis set group =>   4
Atom  18H    basis set group =>   4
Atom  19H    basis set group =>   4
Atom  20H    basis set group =>   4
Atom  21H    basis set group =>   4


           ************************************************************
           *        Program running with 6 parallel MPI-processes     *
           *              working on a common directory               *
           ************************************************************
------------------------------------------------------------------------------
                             ORCA STARTUP CALCULATIONS
                           -- RI-GTO INTEGRALS CHOSEN --
------------------------------------------------------------------------------
------------------------------------------------------------------------------
                   ___                                                        
                  /   \      - P O W E R E D   B Y -                         
                 /     \                                                     
                 |  |  |   _    _      __       _____    __    __             
                 |  |  |  | |  | |    /  \     |  _  \  |  |  /  |          
                  \  \/   | |  | |   /    \    | | | |  |  | /  /          
                 / \  \   | |__| |  /  /\  \   | |_| |  |  |/  /          
                |  |  |   |  __  | /  /__\  \  |    /   |      \           
                |  |  |   | |  | | |   __   |  |    \   |  |\   \          
                \     /   | |  | | |  |  |  |  | |\  \  |  | \   \       
                 \___/    |_|  |_| |__|  |__|  |_| \__\ |__|  \__/        
                                                                              
                      - O R C A' S   B I G   F R I E N D -                    
                                      &                                       
                       - I N T E G R A L  F E E D E R -                       
                                                                              
 v1 FN, 2020, v2 2021, v3 2022-2024                                           
------------------------------------------------------------------------------


----------------------
SHARK INTEGRAL PACKAGE
----------------------

Number of atoms                             ...     22
Number of basis functions                   ...    204
Number of shells                            ...     98
Maximum angular momentum                    ...      2
Integral batch strategy                     ... SHARK/LIBINT Hybrid
RI-J (if used) integral strategy            ... SPLIT-RIJ (Revised 2003 algorithm where possible)
Printlevel                                  ...      1
Contraction scheme used                     ... SEGMENTED contraction
Prescreening option                         ... SCHWARTZ
   Thresh                                   ... 2.500e-11
   Tcut                                     ... 2.500e-12
   Tpresel                                  ... 2.500e-12 
Coulomb Range Separation                    ... NOT USED
Exchange Range Separation                   ... NOT USED
Multipole approximations                    ... NOT USED
Finite Nucleus Model                        ... NOT USED
CABS basis                                  ... NOT available
Auxiliary Coulomb fitting basis             ... AVAILABLE
   # of basis functions in Aux-J            ...    624
   # of shells in Aux-J                     ...    212
   Maximum angular momentum in Aux-J        ...      4
Auxiliary J/K fitting basis                 ... NOT available
Auxiliary Correlation fitting basis         ... NOT available
Auxiliary 'external' fitting basis          ... NOT available

Checking pre-screening integrals            ... done (  0.0 sec) Dimension = 98
Check shell pair data                       ... done (  0.0 sec)
Shell pair information
Shell pair cut-off parameter TPreSel        ...   2.5e-12
Total number of shell pairs                 ...      4851
Shell pairs after pre-screening             ...      4728
Total number of primitive shell pairs       ...     17567
Primitive shell pairs kept                  ...     12566
          la=0 lb=0:   1483 shell pairs
          la=1 lb=0:   1767 shell pairs
          la=1 lb=1:    543 shell pairs
          la=2 lb=0:    550 shell pairs
          la=2 lb=1:    330 shell pairs
          la=2 lb=2:     55 shell pairs

Calculating one electron integrals          ... done (  0.0 sec)
Calculating RI/J V-Matrix + Cholesky decomp.... done (  0.0 sec)
Calculating Nuclear repulsion               ... done (  0.0 sec) ENN=    724.067674403381 Eh

Diagonalization of the overlap matrix:
Smallest eigenvalue                        ... 1.049e-03
Time for diagonalization                   ...    0.004 sec
Threshold for overlap eigenvalues          ... 1.000e-07
Number of eigenvalues below threshold      ... 0
Time for construction of square roots      ...    0.003 sec
Total time needed                          ...    0.009 sec

-------------------
DFT GRID GENERATION
-------------------

General Integration Accuracy     IntAcc      ... 4.388
Radial Grid Type                 RadialGrid  ... OptM3 with GC (2021)
Angular Grid (max. ang.)         AngularGrid ... 4 (Lebedev-302)
Angular grid pruning method      GridPruning ... 4 (adaptive)
Weight generation scheme         WeightScheme... mBecke (2022)
Basis function cutoff            BFCut       ... 1.0000e-11
Integration weight cutoff        WCut        ... 1.0000e-14
Partially contracted basis set               ... off
Rotationally invariant grid construction     ... off
Angular grids for H and He will be reduced by one unit

Total number of grid points                  ...    98905
Total number of batches                      ...     1556
Average number of points per batch           ...       63
Average number of grid points per atom       ...     4496
Initializing property integral containers    ... done (  0.0 sec)

SHARK setup successfully completed in   0.7 seconds

Maximum memory used throughout the entire STARTUP-calculation: 26.9 MB


           ************************************************************
           *        Program running with 6 parallel MPI-processes     *
           *              working on a common directory               *
           ************************************************************
-------------------------------------------------------------------------------
                                 ORCA GUESS
                   Start orbitals & Density for SCF / CASSCF
-------------------------------------------------------------------------------

------------
SCF SETTINGS
------------
Hamiltonian:
 Density Functional     Method          .... DFT(GTOs)
 Exchange Functional    Exchange        .... B88
   X-Alpha parameter    XAlpha          ....  0.666667
   Becke's b parameter  XBeta           ....  0.004200
 Correlation Functional Correlation     .... LYP
 LDA part of GGA corr.  LDAOpt          .... VWN-5
 Gradients option       PostSCFGGA      .... off
 Hybrid DFT is turned on
   Fraction HF Exchange ScalHFX         ....  0.200000
   Scaling of DF-GGA-X  ScalDFX         ....  0.720000
   Scaling of DF-GGA-C  ScalDFC         ....  0.810000
   Scaling of DF-LDA-C  ScalLDAC        ....  1.000000
   Perturbative correction              ....  0.000000
   NL short-range parameter             ....  4.800000
 RI-approximation to the Coulomb term is turned on
   Number of AuxJ basis functions       .... 624
   RIJ-ON(X) (HFX calculated with O(N)) .... on


General Settings:
 Integral files         IntName         .... data/geom_opt/143061/143061
 Hartree-Fock type      HFTyp           .... RHF
 Total Charge           Charge          ....    0
 Multiplicity           Mult            ....    1
 Number of Electrons    NEL             ....   84
 Basis Dimension        Dim             ....  204
 Nuclear Repulsion      ENuc            ....    724.0676744034 Eh

Convergence Acceleration:
 AO-DIIS                CNVDIIS         .... on
   Start iteration      DIISMaxIt       ....    12
   Startup error        DIISStart       ....  0.200000
   # of expansion vecs  DIISMaxEq       ....     5
   Bias factor          DIISBfac        ....   1.050
   Max. coefficient     DIISMaxC        ....  10.000
 MO-DIIS                CNVKDIIS        .... off
 Trust-Rad. Augm. Hess. CNVTRAH         .... auto
   Auto Start mean grad. ratio tolernc. ....  1.125000
   Auto Start start iteration           ....    50
   Auto Start num. interpolation iter.  ....    10
   Max. Number of Micro iterations      ....    24
   Max. Number of Macro iterations      .... Maxiter - #DIIS iter
   Number of Davidson start vectors     ....     2
   Converg. threshold    (grad. norm)   ....   1.000e-05
   Grad. Scal. Fac. for Micro threshold ....   0.100
   Minimum threshold for Micro iter.    ....   1.000e-02
   NR start threshold (gradient norm)   ....   1.000e-04
   Initial trust radius                 ....   0.400
   Minimum AH scaling param. (alpha)    ....   1.000
   Maximum AH scaling param. (alpha)    .... 1000.000
   Quad. conv. algorithm                .... NR
   White noise on init. David. guess    .... on
   Maximum white noise                  ....   0.010
   Pseudo random numbers                .... off
   Inactive MOs                         .... canonical
   Orbital update algorithm             .... Taylor
   Preconditioner                       .... Diag
   Full preconditioner red. dimension   ....   250
   COSX micro iterations for RIJONX calc.... off
 SOSCF                  CNVSOSCF        .... on
   Start iteration      SOSCFMaxIt      ....   150
   Startup grad/error   SOSCFStart      ....  0.003300
   Hessian update       SOSCFHessUp     .... L-BFGS
 Level Shifting         CNVShift        .... on
   Level shift para.    LevelShift      ....    0.2500
   Turn off err/grad.   ShiftErr        ....    0.0010
 Zerner damping         CNVZerner       .... off
 Static damping         CNVDamp         .... on
   Fraction old density DampFac         ....    0.7000
   Max. Damping (<1)    DampMax         ....    0.9800
   Min. Damping (>=0)   DampMin         ....    0.0000
   Turn off err/grad.   DampErr         ....    0.1000

SCF Procedure:
 Maximum # iterations   MaxIter         ....   125
 SCF integral mode      SCFMode         .... Direct
   Integral package                     .... SHARK and LIBINT hybrid scheme
 Reset frequency        DirectResetFreq ....    20
 Integral Threshold     Thresh          ....  2.500e-11 Eh
 Primitive CutOff       TCut            ....  2.500e-12 Eh

Convergence Tolerance:
 Convergence Check Mode ConvCheckMode   .... Total+1el-Energy
 Convergence forced     ConvForced      .... 0
 Energy Change          TolE            ....  1.000e-08 Eh
 1-El. energy change                    ....  1.000e-05 Eh
 Orbital Gradient       TolG            ....  1.000e-05
 Orbital Rotation angle TolX            ....  1.000e-05
 DIIS Error             TolErr          ....  5.000e-07

------------------------------
INITIAL GUESS: MODEL POTENTIAL
------------------------------
Loading Hartree-Fock densities                     ... done
Calculating cut-offs                               ... done
Initializing the effective Hamiltonian             ... done
Setting up the integral package (SHARK)            ... done
Starting the Coulomb interaction                   ... done (   0.0 sec)
Making the grid                                    ... done (   0.1 sec)
Mapping shells                                     ... done
Starting the XC term evaluation                    ... done (   0.1 sec)
  promolecular density results
     # of electrons  =     83.998607402
     EX              =    -76.946737077
     EC              =     -2.956367607
     EX+EC           =    -79.903104685
Transforming the Hamiltonian                       ... done (   0.0 sec)
Diagonalizing the Hamiltonian                      ... done (   0.0 sec)
Back transforming the eigenvectors                 ... done (   0.0 sec)
Now organizing SCF variables                       ... done
                      ------------------
                      INITIAL GUESS DONE (   0.3 sec)
                      ------------------
             **** ENERGY FILE WAS UPDATED (data/geom_opt/143061/143061.en.tmp) ****
Finished Guess after   0.3 sec
Maximum memory used throughout the entire GUESS-calculation: 14.8 MB


           ************************************************************
           *        Program running with 6 parallel MPI-processes     *
           *              working on a common directory               *
           ************************************************************

-------------------------------------------------------------------------------------------
                                      ORCA LEAN-SCF
                              memory conserving SCF solver
-------------------------------------------------------------------------------------------

----------------------------------------D-I-I-S--------------------------------------------
Iteration    Energy (Eh)           Delta-E    RMSDP     MaxDP     DIISErr   Damp  Time(sec)
-------------------------------------------------------------------------------------------
               ***  Starting incremental Fock matrix formation  ***
    1    -740.4728908855327063     0.00e+00  3.27e-03  9.68e-02  1.39e-01  0.700   1.5
    2    -740.5789126022104938    -1.06e-01  2.39e-03  9.65e-02  6.56e-02  0.700   1.3
                               ***Turning on AO-DIIS***
    3    -740.6219432479219904    -4.30e-02  1.17e-03  5.51e-02  2.47e-02  0.700   1.3
    4    -740.6479115968961651    -2.60e-02  2.22e-03  8.78e-02  1.22e-02  0.000   1.4
    5    -740.7044940342984773    -5.66e-02  3.42e-04  2.25e-02  3.55e-03  0.000   1.5
                              *** Initializing SOSCF ***
---------------------------------------S-O-S-C-F--------------------------------------
Iteration    Energy (Eh)           Delta-E    RMSDP     MaxDP     MaxGrad    Time(sec)
--------------------------------------------------------------------------------------
    6    -740.7047738490584834    -2.80e-04  1.11e-04  7.17e-03  9.16e-04     1.4
               *** Restarting incremental Fock matrix formation ***
    7    -740.7047954399413356    -2.16e-05  7.72e-05  1.63e-03  2.37e-04     1.6
    8    -740.7047972789862342    -1.84e-06  1.96e-05  5.27e-04  2.12e-04     1.2
    9    -740.7047988312999678    -1.55e-06  1.46e-05  5.89e-04  5.95e-05     1.2
   10    -740.7047989492375564    -1.18e-07  4.94e-06  1.26e-04  3.10e-05     1.2
   11    -740.7047989943937409    -4.52e-08  3.04e-06  2.12e-04  9.22e-06     1.0
   12    -740.7047989983927891    -4.00e-09  1.11e-06  6.58e-05  4.83e-06     0.9
                 **** Energy Check signals convergence ****

               *****************************************************
               *                     SUCCESS                       *
               *           SCF CONVERGED AFTER  12 CYCLES          *
               *****************************************************

             **** ENERGY FILE WAS UPDATED (data/geom_opt/143061/143061.en.tmp) ****

----------------
TOTAL SCF ENERGY
----------------

Total Energy       :       -740.70479899839279 Eh          -20155.60227 eV

Components:
Nuclear Repulsion  :        724.06767440338103 Eh           19702.88310 eV
Electronic Energy  :      -1464.77247340177382 Eh          -39858.48537 eV
One Electron Energy:      -2451.09818936120473 Eh          -66697.77258 eV
Two Electron Energy:        986.32571595943091 Eh           26839.28721 eV

Virial components:
Potential Energy   :      -1477.03574269576620 Eh          -40192.18589 eV
Kinetic Energy     :        736.33094369737341 Eh           20036.58362 eV
Virial Ratio       :          2.00594006721904

DFT components:
N(Alpha)           :       42.000342138105 electrons
N(Beta)            :       42.000342138105 electrons
N(Total)           :       84.000684276210 electrons
E(X)               :      -61.905000828575 Eh       
E(C)               :       -3.463802209955 Eh       
E(XC)              :      -65.368803038530 Eh       

---------------
SCF CONVERGENCE
---------------

  Last Energy change         ...    3.9990e-09  Tolerance :   1.0000e-08
  Last MAX-Density change    ...    6.5792e-05  Tolerance :   1.0000e-07
  Last RMS-Density change    ...    1.1110e-06  Tolerance :   5.0000e-09
  Last DIIS Error            ...    9.1575e-04  Tolerance :   5.0000e-07
  Last Orbital Gradient      ...    4.8323e-06  Tolerance :   1.0000e-05
  Last Orbital Rotation      ...    8.7319e-06  Tolerance :   1.0000e-05


----------------
ORBITAL ENERGIES
----------------

  NO   OCC          E(Eh)            E(eV) 
   0   2.0000     -77.009859     -2095.5448 
   1   2.0000     -14.305873      -389.2826 
   2   2.0000     -14.305867      -389.2824 
   3   2.0000     -14.305715      -389.2783 
   4   2.0000     -10.232395      -278.4376 
   5   2.0000     -10.232391      -278.4375 
   6   2.0000     -10.232383      -278.4373 
   7   2.0000     -10.207285      -277.7543 
   8   2.0000     -10.207270      -277.7539 
   9   2.0000     -10.207255      -277.7535 
  10   2.0000      -6.513972      -177.2542 
  11   2.0000      -4.678637      -127.3122 
  12   2.0000      -4.678635      -127.3121 
  13   2.0000      -4.676656      -127.2583 
  14   2.0000      -0.990128       -26.9428 
  15   2.0000      -0.886285       -24.1170 
  16   2.0000      -0.886283       -24.1170 
  17   2.0000      -0.765546       -20.8316 
  18   2.0000      -0.701196       -19.0805 
  19   2.0000      -0.701193       -19.0804 
  20   2.0000      -0.630253       -17.1501 
  21   2.0000      -0.630250       -17.1500 
  22   2.0000      -0.587380       -15.9834 
  23   2.0000      -0.560670       -15.2566 
  24   2.0000      -0.490235       -13.3400 
  25   2.0000      -0.490232       -13.3399 
  26   2.0000      -0.489331       -13.3154 
  27   2.0000      -0.481419       -13.1001 
  28   2.0000      -0.439865       -11.9693 
  29   2.0000      -0.439862       -11.9693 
  30   2.0000      -0.393474       -10.7070 
  31   2.0000      -0.393468       -10.7068 
  32   2.0000      -0.385595       -10.4926 
  33   2.0000      -0.376935       -10.2569 
  34   2.0000      -0.376927       -10.2567 
  35   2.0000      -0.370388       -10.0788 
  36   2.0000      -0.352890        -9.6026 
  37   2.0000      -0.352888        -9.6026 
  38   2.0000      -0.316757        -8.6194 
  39   2.0000      -0.193399        -5.2627 
  40   2.0000      -0.193397        -5.2626 
  41   2.0000      -0.177411        -4.8276 
  42   0.0000       0.045960         1.2506 
  43   0.0000       0.077235         2.1017 
  44   0.0000       0.079292         2.1576 
  45   0.0000       0.079301         2.1579 
  46   0.0000       0.083932         2.2839 
  47   0.0000       0.083938         2.2841 
  48   0.0000       0.111019         3.0210 
  49   0.0000       0.111030         3.0213 
  50   0.0000       0.118751         3.2314 
  51   0.0000       0.142919         3.8890 
  52   0.0000       0.148261         4.0344 
*Only the first 10 virtual orbitals were printed.

                    ********************************
                    * MULLIKEN POPULATION ANALYSIS *
                    ********************************

-----------------------
MULLIKEN ATOMIC CHARGES
-----------------------
   0 C :    0.257571
   1 N :   -0.350886
   2 C :    0.258014
   3 N :   -0.351039
   4 C :    0.257635
   5 N :   -0.350651
   6 C :    0.059614
   7 P :   -0.032615
   8 C :    0.059826
   9 C :    0.060134
  10 H :   -0.005209
  11 H :   -0.007971
  12 H :   -0.008123
  13 H :   -0.005192
  14 H :   -0.007930
  15 H :   -0.005247
  16 H :    0.028706
  17 H :    0.028744
  18 H :    0.028677
  19 H :    0.028683
  20 H :    0.028635
  21 H :    0.028624
Sum of atomic charges:   -0.0000000

--------------------------------
MULLIKEN REDUCED ORBITAL CHARGES
--------------------------------
  0 C s       :     2.919662  s :     2.919662
      pz      :     0.900173  p :     2.756358
      px      :     0.915510
      py      :     0.940675
      dz2     :     0.007888  d :     0.066409
      dxz     :     0.019311
      dyz     :     0.015297
      dx2y2   :     0.009861
      dxy     :     0.014051

  1 N s       :     3.458889  s :     3.458889
      pz      :     1.178864  p :     3.863512
      px      :     1.418046
      py      :     1.266602
      dz2     :     0.004503  d :     0.028484
      dxz     :     0.007242
      dyz     :     0.007162
      dx2y2   :     0.004441
      dxy     :     0.005135

  2 C s       :     2.919407  s :     2.919407
      pz      :     0.940016  p :     2.756171
      px      :     0.940956
      py      :     0.875200
      dz2     :     0.005071  d :     0.066408
      dxz     :     0.014966
      dyz     :     0.017179
      dx2y2   :     0.012797
      dxy     :     0.016394

  3 N s       :     3.458954  s :     3.458954
      pz      :     1.233540  p :     3.863600
      px      :     1.236594
      py      :     1.393466
      dz2     :     0.003633  d :     0.028485
      dxz     :     0.008153
      dyz     :     0.006527
      dx2y2   :     0.003962
      dxy     :     0.006211

  4 C s       :     2.919611  s :     2.919611
      pz      :     0.937707  p :     2.756345
      px      :     0.952602
      py      :     0.866035
      dz2     :     0.010393  d :     0.066409
      dxz     :     0.014616
      dyz     :     0.017664
      dx2y2   :     0.007822
      dxy     :     0.015914

  5 N s       :     3.458785  s :     3.458785
      pz      :     1.421614  p :     3.863383
      px      :     1.137431
      py      :     1.304339
      dz2     :     0.003632  d :     0.028483
      dxz     :     0.007741
      dyz     :     0.004911
      dx2y2   :     0.005308
      dxy     :     0.006890

  6 C s       :     3.021911  s :     3.021911
      pz      :     0.956496  p :     2.872643
      px      :     0.911946
      py      :     1.004201
      dz2     :     0.006053  d :     0.045832
      dxz     :     0.012725
      dyz     :     0.009742
      dx2y2   :     0.007947
      dxy     :     0.009365

  7 P s       :     5.829003  s :     5.829003
      pz      :     3.044986  p :     9.017943
      px      :     3.100595
      py      :     2.872362
      dz2     :     0.023623  d :     0.185669
      dxz     :     0.036626
      dyz     :     0.053282
      dx2y2   :     0.023463
      dxy     :     0.048675

  8 C s       :     3.021873  s :     3.021873
      pz      :     0.926834  p :     2.872471
      px      :     0.940811
      py      :     1.004826
      dz2     :     0.009374  d :     0.045830
      dxz     :     0.012734
      dyz     :     0.009417
      dx2y2   :     0.004624
      dxy     :     0.009680

  9 C s       :     3.021711  s :     3.021711
      pz      :     0.956071  p :     2.872327
      px      :     0.939536
      py      :     0.976720
      dz2     :     0.003877  d :     0.045829
      dxz     :     0.013197
      dyz     :     0.011123
      dx2y2   :     0.006124
      dxy     :     0.011507

 10 H s       :     0.984710  s :     0.984710
      pz      :     0.004829  p :     0.020499
      px      :     0.004934
      py      :     0.010737

 11 H s       :     0.987662  s :     0.987662
      pz      :     0.006968  p :     0.020309
      px      :     0.008075
      py      :     0.005266

 12 H s       :     0.987812  s :     0.987812
      pz      :     0.007134  p :     0.020311
      px      :     0.009406
      py      :     0.003772

 13 H s       :     0.984695  s :     0.984695
      pz      :     0.008091  p :     0.020497
      px      :     0.006153
      py      :     0.006253

 14 H s       :     0.987622  s :     0.987622
      pz      :     0.008417  p :     0.020308
      px      :     0.008191
      py      :     0.003700

 15 H s       :     0.984747  s :     0.984747
      pz      :     0.006992  p :     0.020499
      px      :     0.007988
      py      :     0.005519

 16 H s       :     0.949201  s :     0.949201
      pz      :     0.005482  p :     0.022093
      px      :     0.005607
      py      :     0.011004

 17 H s       :     0.949165  s :     0.949165
      pz      :     0.007089  p :     0.022092
      px      :     0.008310
      py      :     0.006693

 18 H s       :     0.949230  s :     0.949230
      pz      :     0.008779  p :     0.022093
      px      :     0.006084
      py      :     0.007230

 19 H s       :     0.949222  s :     0.949222
      pz      :     0.005901  p :     0.022094
      px      :     0.005293
      py      :     0.010901

 20 H s       :     0.949270  s :     0.949270
      pz      :     0.006693  p :     0.022095
      px      :     0.007643
      py      :     0.007759

 21 H s       :     0.949282  s :     0.949282
      pz      :     0.007966  p :     0.022094
      px      :     0.005731
      py      :     0.008397



                     *******************************
                     * LOEWDIN POPULATION ANALYSIS *
                     *******************************

----------------------
LOEWDIN ATOMIC CHARGES
----------------------
   0 C :    0.070891
   1 N :   -0.157508
   2 C :    0.070932
   3 N :   -0.157524
   4 C :    0.070895
   5 N :   -0.157496
   6 C :   -0.112350
   7 P :    0.368891
   8 C :   -0.112312
   9 C :   -0.112284
  10 H :    0.015579
  11 H :    0.016647
  12 H :    0.016650
  13 H :    0.015561
  14 H :    0.016662
  15 H :    0.015572
  16 H :    0.021874
  17 H :    0.021880
  18 H :    0.021864
  19 H :    0.021866
  20 H :    0.021849
  21 H :    0.021864

-------------------------------
LOEWDIN REDUCED ORBITAL CHARGES
-------------------------------
  0 C s       :     2.825506  s :     2.825506
      pz      :     0.983157  p :     2.947530
      px      :     0.995045
      py      :     0.969328
      dz2     :     0.015763  d :     0.156074
      dxz     :     0.048217
      dyz     :     0.037268
      dx2y2   :     0.020876
      dxy     :     0.033949

  1 N s       :     3.123779  s :     3.123779
      pz      :     1.230978  p :     3.970916
      px      :     1.434716
      py      :     1.305222
      dz2     :     0.009660  d :     0.062814
      dxz     :     0.016388
      dyz     :     0.016746
      dx2y2   :     0.008807
      dxy     :     0.011213

  2 C s       :     2.825496  s :     2.825496
      pz      :     1.020940  p :     2.947498
      px      :     0.965418
      py      :     0.961140
      dz2     :     0.009116  d :     0.156074
      dxz     :     0.036786
      dyz     :     0.042544
      dx2y2   :     0.028321
      dxy     :     0.039307

  3 N s       :     3.123783  s :     3.123783
      pz      :     1.277419  p :     3.970927
      px      :     1.280119
      py      :     1.413389
      dz2     :     0.007461  d :     0.062814
      dxz     :     0.018949
      dyz     :     0.014774
      dx2y2   :     0.007663
      dxy     :     0.013966

  4 C s       :     2.825503  s :     2.825503
      pz      :     0.961865  p :     2.947529
      px      :     1.031824
      py      :     0.953840
      dz2     :     0.021849  d :     0.156073
      dxz     :     0.035972
      dyz     :     0.042744
      dx2y2   :     0.016412
      dxy     :     0.039095

  5 N s       :     3.123778  s :     3.123778
      pz      :     1.437669  p :     3.970902
      px      :     1.195866
      py      :     1.337367
      dz2     :     0.006706  d :     0.062815
      dxz     :     0.017578
      dyz     :     0.010677
      dx2y2   :     0.011868
      dxy     :     0.015985

  6 C s       :     2.878953  s :     2.878953
      pz      :     1.062129  p :     3.123425
      px      :     0.974931
      py      :     1.086365
      dz2     :     0.013372  d :     0.109973
      dxz     :     0.030636
      dyz     :     0.025599
      dx2y2   :     0.018238
      dxy     :     0.022127

  7 P s       :     5.240295  s :     5.240295
      pz      :     3.087990  p :     9.136766
      px      :     3.148410
      py      :     2.900366
      dz2     :     0.029131  d :     0.254048
      dxz     :     0.052557
      dyz     :     0.074905
      dx2y2   :     0.029317
      dxy     :     0.068138

  8 C s       :     2.878959  s :     2.878959
      pz      :     0.988462  p :     3.123379
      px      :     1.050417
      py      :     1.084501
      dz2     :     0.020618  d :     0.109974
      dxz     :     0.030835
      dyz     :     0.022836
      dx2y2   :     0.010646
      dxy     :     0.025040

  9 C s       :     2.878954  s :     2.878954
      pz      :     1.046134  p :     3.123355
      px      :     1.033396
      py      :     1.043826
      dz2     :     0.007148  d :     0.109975
      dxz     :     0.033564
      dyz     :     0.028239
      dx2y2   :     0.012122
      dxy     :     0.028903

 10 H s       :     0.921699  s :     0.921699
      pz      :     0.015310  p :     0.062722
      px      :     0.015453
      py      :     0.031959

 11 H s       :     0.920729  s :     0.920729
      pz      :     0.022007  p :     0.062625
      px      :     0.025167
      py      :     0.015450

 12 H s       :     0.920727  s :     0.920727
      pz      :     0.022169  p :     0.062623
      px      :     0.027856
      py      :     0.012598

 13 H s       :     0.921717  s :     0.921717
      pz      :     0.024676  p :     0.062722
      px      :     0.018244
      py      :     0.019802

 14 H s       :     0.920712  s :     0.920712
      pz      :     0.024900  p :     0.062626
      px      :     0.025234
      py      :     0.012491

 15 H s       :     0.921705  s :     0.921705
      pz      :     0.020762  p :     0.062723
      px      :     0.024245
      py      :     0.017716

 16 H s       :     0.910884  s :     0.910884
      pz      :     0.016323  p :     0.067243
      px      :     0.017493
      py      :     0.033426

 17 H s       :     0.910877  s :     0.910877
      pz      :     0.022475  p :     0.067243
      px      :     0.025759
      py      :     0.019009

 18 H s       :     0.910895  s :     0.910895
      pz      :     0.027131  p :     0.067242
      px      :     0.019575
      py      :     0.020536

 19 H s       :     0.910892  s :     0.910892
      pz      :     0.018293  p :     0.067242
      px      :     0.015991
      py      :     0.032958

 20 H s       :     0.910910  s :     0.910910
      pz      :     0.020686  p :     0.067242
      px      :     0.022659
      py      :     0.023897

 21 H s       :     0.910895  s :     0.910895
      pz      :     0.023373  p :     0.067241
      px      :     0.017978
      py      :     0.025890



                      *****************************
                      * MAYER POPULATION ANALYSIS *
                      *****************************

  NA   - Mulliken gross atomic population
  ZA   - Total nuclear charge
  QA   - Mulliken gross atomic charge
  VA   - Mayer's total valence
  BVA  - Mayer's bonded valence
  FA   - Mayer's free valence

  ATOM       NA         ZA         QA         VA         BVA        FA
  0 C      5.7424     6.0000     0.2576     4.0869     4.0869    -0.0000
  1 N      7.3509     7.0000    -0.3509     3.0927     3.0927    -0.0000
  2 C      5.7420     6.0000     0.2580     4.0867     4.0867    -0.0000
  3 N      7.3510     7.0000    -0.3510     3.0929     3.0929    -0.0000
  4 C      5.7424     6.0000     0.2576     4.0868     4.0868    -0.0000
  5 N      7.3507     7.0000    -0.3507     3.0927     3.0927    -0.0000
  6 C      5.9404     6.0000     0.0596     3.8994     3.8994    -0.0000
  7 P     15.0326    15.0000    -0.0326     3.0899     3.0899    -0.0000
  8 C      5.9402     6.0000     0.0598     3.8991     3.8991    -0.0000
  9 C      5.9399     6.0000     0.0601     3.8991     3.8991    -0.0000
 10 H      1.0052     1.0000    -0.0052     0.9905     0.9905    -0.0000
 11 H      1.0080     1.0000    -0.0080     0.9872     0.9872    -0.0000
 12 H      1.0081     1.0000    -0.0081     0.9872     0.9872    -0.0000
 13 H      1.0052     1.0000    -0.0052     0.9905     0.9905     0.0000
 14 H      1.0079     1.0000    -0.0079     0.9872     0.9872    -0.0000
 15 H      1.0052     1.0000    -0.0052     0.9905     0.9905    -0.0000
 16 H      0.9713     1.0000     0.0287     0.9849     0.9849    -0.0000
 17 H      0.9713     1.0000     0.0287     0.9849     0.9849    -0.0000
 18 H      0.9713     1.0000     0.0287     0.9849     0.9849    -0.0000
 19 H      0.9713     1.0000     0.0287     0.9849     0.9849    -0.0000
 20 H      0.9714     1.0000     0.0286     0.9849     0.9849    -0.0000
 21 H      0.9714     1.0000     0.0286     0.9849     0.9849    -0.0000

  Mayer bond orders larger than 0.100000
B(  0-C ,  1-N ) :   1.0424 B(  0-C ,  5-N ) :   1.0424 B(  0-C , 10-H ) :   0.9376 
B(  0-C , 11-H ) :   0.9356 B(  1-N ,  2-C ) :   1.0423 B(  1-N ,  8-C ) :   0.9642 
B(  2-C ,  3-N ) :   1.0424 B(  2-C , 12-H ) :   0.9355 B(  2-C , 13-H ) :   0.9377 
B(  3-N ,  4-C ) :   1.0424 B(  3-N ,  9-C ) :   0.9642 B(  4-C ,  5-N ) :   1.0423 
B(  4-C , 14-H ) :   0.9356 B(  4-C , 15-H ) :   0.9376 B(  5-N ,  6-C ) :   0.9642 
B(  6-C ,  7-P ) :   0.9715 B(  6-C , 16-H ) :   0.9433 B(  6-C , 17-H ) :   0.9434 
B(  7-P ,  8-C ) :   0.9713 B(  7-P ,  9-C ) :   0.9713 B(  8-C , 18-H ) :   0.9434 
B(  8-C , 19-H ) :   0.9434 B(  9-C , 20-H ) :   0.9434 B(  9-C , 21-H ) :   0.9433 


-------
TIMINGS
-------

Total SCF time: 0 days 0 hours 0 min 15 sec 

Total time                  ....      15.691 sec
Sum of individual times     ....      15.648 sec  ( 99.7%)

SCF preparation             ....       0.086 sec  (  0.5%)
Fock matrix formation       ....      15.177 sec  ( 96.7%)
  Startup                   ....       0.029 sec  (  0.2% of F)
  Exchange formation        ....      10.735 sec  ( 70.7% of F)
  Split-RI-J                ....       1.316 sec  (  8.7% of F)
  XC integration            ....       2.970 sec  ( 19.6% of F)
    Basis function eval.    ....       0.842 sec  ( 28.4% of XC)
    Density eval.           ....       0.684 sec  ( 23.0% of XC)
    XC-Functional eval.     ....       0.066 sec  (  2.2% of XC)
    XC-Potential eval.      ....       0.758 sec  ( 25.5% of XC)
Diagonalization             ....       0.000 sec  (  0.0%)
Density matrix formation    ....       0.062 sec  (  0.4%)
Total Energy calculation    ....       0.034 sec  (  0.2%)
Population analysis         ....       0.035 sec  (  0.2%)
Orbital Transformation      ....       0.027 sec  (  0.2%)
Orbital Orthonormalization  ....       0.000 sec  (  0.0%)
DIIS solution               ....       0.152 sec  (  1.0%)
SOSCF solution              ....       0.075 sec  (  0.5%)
Finished LeanSCF after  15.7 sec

Maximum memory used throughout the entire LEANSCF-calculation: 20.7 MB


-------------------------------------------------------------------------------
                          DFT DISPERSION CORRECTION                            
                                                                               
                              DFTD3 V3.1  Rev 1                                
                          USING Becke-Johnson damping                          
-------------------------------------------------------------------------------
The B3LYP functional is recognized
Active option DFTDOPT                   ...         4   

molecular C6(AA) [au] = 4971.173647 


            DFT-D V3
 parameters
 s6 scaling factor         :     1.0000 
 a1 scaling factor         :     0.3981 
 s8 scaling factor         :     1.9889 
 a2 scaling factor         :     4.4211 
 ad hoc parameters k1-k3   :    16.0000     1.3333    -4.0000 

 Edisp/kcal,au: -32.431523974174  -0.051682917717 
 E6   /kcal   : -14.883127652 
 E8   /kcal   : -17.548396322 
 % E8         :  54.109070964 

-------------------------   ----------------
Dispersion correction           -0.051682918
-------------------------   ----------------


-------------------------   --------------------
FINAL SINGLE POINT ENERGY      -740.756481916110
-------------------------   --------------------



           ************************************************************
           *        Program running with 6 parallel MPI-processes     *
           *              working on a common directory               *
           ************************************************************
------------------------------------------------------------------------------
                         ORCA SCF GRADIENT CALCULATION
------------------------------------------------------------------------------

Nuc. rep. gradient        (SHARK) ... done (  0.0 sec)
HCore & Overlap gradient  (SHARK) ... done (  0.1 sec)
Split-RIJ-J gradient      (SHARK) ... done (  0.3 sec)
O(N)X-gradient            (SHARK) ... done (  4.8 sec)
XC gradient                       ... done (  2.0 sec)
Dispersion correction             ... done (  0.1 sec)

-------------------
DISPERSION GRADIENT
-------------------

   1   C   :   -0.000239496    0.000870376   -0.000180255
   2   N   :   -0.000557640    0.000421318    0.000370506
   3   C   :   -0.000902754   -0.000179455    0.000015296
   4   N   :   -0.000367699   -0.000596984   -0.000366268
   5   C   :   -0.000051656   -0.000136661   -0.000908878
   6   N   :    0.000302980    0.000464591   -0.000564006
   7   C   :    0.000931902    0.000273826   -0.000138213
   8   P   :    0.001258252   -0.000584132    0.001131711
   9   C   :   -0.000072626    0.000223317    0.000952564
  10   C   :    0.000149075   -0.000965260    0.000092591
  11   H   :   -0.000057186    0.000595615   -0.000025084
  12   H   :   -0.000239147    0.000477263   -0.000198137
  13   H   :   -0.000559109   -0.000029185   -0.000103802
  14   H   :   -0.000554345   -0.000191306    0.000121495
  15   H   :   -0.000148532   -0.000008540   -0.000549632
  16   H   :    0.000083612   -0.000159228   -0.000571237
  17   H   :    0.000471586    0.000227988   -0.000022354
  18   H   :    0.000501236    0.000069031   -0.000137365
  19   H   :   -0.000098195    0.000038890    0.000513534
  20   H   :    0.000006498    0.000204603    0.000482667
  21   H   :    0.000138794   -0.000504656   -0.000030505
  22   H   :    0.000004450   -0.000511411    0.000115373

Difference to translation invariance:
           :    0.0000000000    0.0000000000    0.0000000000

Difference to rotation invariance:
           :    0.0000000000    0.0000000000   -0.0000000000

Norm of the Dispersion gradient    ...    0.0037696271
RMS gradient                       ...    0.0004640090
MAX gradient                       ...    0.0012582522

------------------
CARTESIAN GRADIENT
------------------

   1   C   :    0.000378248    0.007634515    0.000892078
   2   N   :    0.040331415   -0.028438438   -0.015679643
   3   C   :   -0.006265703   -0.003229755    0.002761467
   4   N   :    0.029058395    0.032341045    0.028240825
   5   C   :    0.002413119   -0.002816953   -0.006682139
   6   N   :   -0.011054280   -0.030998795    0.039999420
   7   C   :    0.017503602   -0.005708007    0.012387717
   8   P   :   -0.086372324    0.040315649   -0.077976187
   9   C   :    0.014004249   -0.005822658    0.016143782
  10   C   :    0.014724488   -0.009973382    0.013148796
  11   H   :   -0.005040100    0.001464050   -0.004556479
  12   H   :    0.003844953    0.004015742    0.003722528
  13   H   :   -0.001352058   -0.004063826    0.005243333
  14   H   :   -0.004240633    0.002716862   -0.004739779
  15   H   :    0.005323374   -0.003699705   -0.001925022
  16   H   :   -0.005239444    0.002586974   -0.003726358
  17   H   :   -0.000847855   -0.003646388   -0.003958558
  18   H   :   -0.002320860    0.004559118    0.001922913
  19   H   :    0.001534495    0.004689830   -0.002279952
  20   H   :   -0.003869742   -0.003801371   -0.000668204
  21   H   :   -0.004736328    0.000820619    0.002598997
  22   H   :    0.002222990    0.001054875   -0.004869533

Difference to translation invariance:
           :    0.0000000000    0.0000000000    0.0000000000

Difference to rotation invariance:
           :    0.0002691694    0.0008590575    0.0013511564

Norm of the Cartesian gradient     ...    0.1591360063
RMS gradient                       ...    0.0195882883
MAX gradient                       ...    0.0863723244

-------
TIMINGS
-------

Total SCF gradient time     ....        7.299 sec

Densities                   ....       0.001 sec  (  0.0%)
One electron gradient       ....       0.106 sec  (  1.5%)
Two electron gradient       ....       4.821 sec  ( 66.1%)
RI-J Coulomb gradient       ....       0.342 sec  (  4.7%)
XC gradient                 ....       1.968 sec  ( 27.0%)

Maximum memory used throughout the entire SCFGRAD-calculation: 31.4 MB
------------------------------------------------------------------------------
                         ORCA GEOMETRY RELAXATION STEP
------------------------------------------------------------------------------

Reading the OPT-File                    .... done
Getting information on internals        .... done
Copying old internal coords+grads       .... done
Making the new internal coordinates     .... (2022 redundants) done
Validating the new internal coordinates .... (2022 redundants) done
Calculating the B-matrix                .... done
Calculating the G,G- and P matrices     .... done
Transforming gradient to internals      .... done
Projecting the internal gradient        .... done
Number of atoms                         ....  22
Number of internal coordinates          .... 132
Current Energy                          ....  -740.756481916 Eh
Current gradient norm                   ....     0.159136006 Eh/bohr
Maximum allowed component of the step   ....  0.300
Current trust radius                    ....  0.300
Evaluating the initial hessian          ....  (Almloef) done
Projecting the Hessian                  .... done
Forming the augmented Hessian           .... done
Diagonalizing the augmented Hessian     .... done
Last element of RFO vector              ....  0.932327381
Lowest eigenvalues of augmented Hessian:
 -0.035885212  0.030048390  0.031175434  0.039151193  0.039642613
Length of the computed step             ....  0.387863050
Warning: the length of the step is outside the trust region - taking restricted step instead
The input lambda is                     ....     0.029035
   iter:   5  x=   -0.036014  g=    3.706726 f(x)=     0.157302
   iter:  10  x=   -0.098885  g=    0.624779 f(x)=     0.000000
The output lambda is                    ....    -0.098885 (11 iterations)
The final length of the internal step   ....  0.300000000
Converting the step to Cartesian space:
 Initial RMS(Int)=    0.0261116484
Transforming coordinates:
 Iter   0:  RMS(Cart)=    0.0271157806 RMS(Int)=    0.0256981996
done
Storing new coordinates                 .... done

                                .--------------------.
          ----------------------|Geometry convergence|-------------------------
          Item                value                   Tolerance       Converged
          ---------------------------------------------------------------------
          RMS gradient        0.0087664729            0.0001000000      NO
          MAX gradient        0.0303728647            0.0003000000      NO
          RMS step            0.0261116484            0.0020000000      NO
          MAX step            0.0660018063            0.0040000000      NO
          ........................................................
          Max(Bonds)      0.0309      Max(Angles)    3.78
          Max(Dihed)        3.51      Max(Improp)    0.00
          ---------------------------------------------------------------------

The optimization has not yet converged - more geometry cycles are needed


    ---------------------------------------------------------------------------
                         Redundant Internal Coordinates
                            (Angstroem and degrees)

        Definition                    Value    dE/dq     Step     New-Value
    ----------------------------------------------------------------------------
     1. B(N   1,C   0)                1.4508 -0.007425  0.0058    1.4567   
     2. B(C   2,N   1)                1.4508 -0.007429  0.0055    1.4563   
     3. B(N   3,C   2)                1.4508 -0.006165  0.0048    1.4556   
     4. B(C   4,N   3)                1.4508 -0.007156  0.0053    1.4561   
     5. B(N   5,C   4)                1.4508 -0.006607  0.0053    1.4561   
     6. B(N   5,C   0)                1.4508 -0.007008  0.0056    1.4564   
     7. B(C   6,N   5)                1.4493 -0.020335  0.0192    1.4685   
     8. B(P   7,C   6)                1.8032 -0.029312  0.0305    1.8337   
     9. B(C   8,P   7)                1.8032 -0.030373  0.0309    1.8342   
    10. B(C   8,N   1)                1.4493 -0.020575  0.0191    1.4684   
    11. B(C   9,P   7)                1.8032 -0.029402  0.0305    1.8337   
    12. B(C   9,N   3)                1.4493 -0.019121  0.0182    1.4675   
    13. B(H  10,C   0)                1.0985 -0.002801  0.0033    1.1018   
    14. B(H  11,C   0)                1.0987 -0.003492  0.0041    1.1028   
    15. B(H  12,C   2)                1.0987 -0.003408  0.0040    1.1027   
    16. B(H  13,C   2)                1.0985 -0.002829  0.0033    1.1018   
    17. B(H  14,C   4)                1.0987 -0.003472  0.0041    1.1028   
    18. B(H  15,C   4)                1.0985 -0.002781  0.0033    1.1018   
    19. B(H  16,C   6)                1.0958 -0.004788  0.0056    1.1014   
    20. B(H  17,C   6)                1.0958 -0.004755  0.0056    1.1014   
    21. B(H  18,C   8)                1.0958 -0.004770  0.0056    1.1014   
    22. B(H  19,C   8)                1.0958 -0.004776  0.0056    1.1014   
    23. B(H  20,C   9)                1.0958 -0.004802  0.0056    1.1014   
    24. B(H  21,C   9)                1.0958 -0.004728  0.0055    1.1014   
    25. A(N   1,C   0,N   5)          110.17 -0.006088    1.21    111.39   
    26. A(N   5,C   0,H  11)          109.89  0.003486   -0.56    109.33   
    27. A(N   1,C   0,H  11)          109.89  0.003680   -0.58    109.31   
    28. A(N   1,C   0,H  10)          111.22  0.003390   -0.69    110.54   
    29. A(N   5,C   0,H  10)          111.22  0.003298   -0.68    110.54   
    30. A(H  10,C   0,H  11)          104.29 -0.007566    1.25    105.54   
    31. A(C   0,N   1,C   2)          110.54  0.003732   -0.76    109.78   
    32. A(C   0,N   1,C   8)          113.18  0.002377   -0.62    112.57   
    33. A(C   2,N   1,C   8)          113.18  0.001937   -0.59    112.60   
    34. A(N   3,C   2,H  13)          111.22  0.002453   -0.60    110.63   
    35. A(N   1,C   2,H  13)          111.22  0.002234   -0.56    110.66   
[...]
      pz      :     0.006515  p :     0.021454
      px      :     0.007461
      py      :     0.007477

 21 H s       :     0.950338  s :     0.950338
      pz      :     0.007758  p :     0.021452
      px      :     0.005588
      py      :     0.008107



                     *******************************
                     * LOEWDIN POPULATION ANALYSIS *
                     *******************************

----------------------
LOEWDIN ATOMIC CHARGES
----------------------
   0 C :    0.074504
   1 N :   -0.147786
   2 C :    0.074656
   3 N :   -0.147788
   4 C :    0.074533
   5 N :   -0.147628
   6 C :   -0.110941
   7 P :    0.360298
   8 C :   -0.111117
   9 C :   -0.111061
  10 H :    0.014954
  11 H :    0.015891
  12 H :    0.015872
  13 H :    0.014934
  14 H :    0.015918
  15 H :    0.014919
  16 H :    0.016634
  17 H :    0.016656
  18 H :    0.016630
  19 H :    0.016657
  20 H :    0.016651
  21 H :    0.016614

-------------------------------
LOEWDIN REDUCED ORBITAL CHARGES
-------------------------------
  0 C s       :     2.835031  s :     2.835031
      pz      :     0.978589  p :     2.940925
      px      :     0.990318
      py      :     0.972018
      dz2     :     0.014739  d :     0.149540
      dxz     :     0.050037
      dyz     :     0.034578
      dx2y2   :     0.018829
      dxy     :     0.031356

  1 N s       :     3.155303  s :     3.155303
      pz      :     1.228035  p :     3.931328
      px      :     1.409616
      py      :     1.293676
      dz2     :     0.008953  d :     0.061155
      dxz     :     0.016303
      dyz     :     0.016392
      dx2y2   :     0.008800
      dxy     :     0.010707

  2 C s       :     2.835069  s :     2.835069
      pz      :     1.016004  p :     2.940763
      px      :     0.967125
      py      :     0.957634
      dz2     :     0.008950  d :     0.149512
      dxz     :     0.034473
      dyz     :     0.044391
      dx2y2   :     0.025662
      dxy     :     0.036036

  3 N s       :     3.155427  s :     3.155427
      pz      :     1.264961  p :     3.931208
      px      :     1.266522
      py      :     1.399725
      dz2     :     0.006994  d :     0.061153
      dxz     :     0.018265
      dyz     :     0.014648
      dx2y2   :     0.007477
      dxy     :     0.013770

  4 C s       :     2.835076  s :     2.835076
      pz      :     0.964009  p :     2.940873
      px      :     1.026629
      py      :     0.950235
      dz2     :     0.018803  d :     0.149518
      dxz     :     0.033621
      dyz     :     0.039327
      dx2y2   :     0.016911
      dxy     :     0.040856

  5 N s       :     3.155488  s :     3.155488
      pz      :     1.412694  p :     3.930971
      px      :     1.194795
      py      :     1.323482
      dz2     :     0.006640  d :     0.061169
      dxz     :     0.017509
      dyz     :     0.010190
      dx2y2   :     0.011212
      dxy     :     0.015619

  6 C s       :     2.900457  s :     2.900457
      pz      :     1.053420  p :     3.108361
      px      :     0.974244
      py      :     1.080698
      dz2     :     0.012673  d :     0.102123
      dxz     :     0.028004
      dyz     :     0.025027
      dx2y2   :     0.015990
      dxy     :     0.020428

  7 P s       :     5.383257  s :     5.383257
      pz      :     3.053921  p :     9.057793
      px      :     3.102997
      py      :     2.900875
      dz2     :     0.025729  d :     0.198652
      dxz     :     0.037263
      dyz     :     0.059581
      dx2y2   :     0.021424
      dxy     :     0.054655

  8 C s       :     2.900182  s :     2.900182
      pz      :     0.987810  p :     3.108626
      px      :     1.041402
      py      :     1.079414
      dz2     :     0.017970  d :     0.102308
      dxz     :     0.027587
      dyz     :     0.021048
      dx2y2   :     0.010919
      dxy     :     0.024785

  9 C s       :     2.900170  s :     2.900170
      pz      :     1.040002  p :     3.108607
      px      :     1.026985
      py      :     1.041620
      dz2     :     0.006532  d :     0.102284
      dxz     :     0.034110
      dyz     :     0.025473
      dx2y2   :     0.010352
      dxy     :     0.025817

 10 H s       :     0.922839  s :     0.922839
      pz      :     0.015651  p :     0.062207
      px      :     0.015781
      py      :     0.030775

 11 H s       :     0.922047  s :     0.922047
      pz      :     0.022100  p :     0.062063
      px      :     0.025289
      py      :     0.014674

 12 H s       :     0.922053  s :     0.922053
      pz      :     0.022476  p :     0.062076
      px      :     0.026926
      py      :     0.012673

 13 H s       :     0.922855  s :     0.922855
      pz      :     0.025211  p :     0.062211
      px      :     0.016957
      py      :     0.020043

 14 H s       :     0.922020  s :     0.922020
      pz      :     0.023910  p :     0.062062
      px      :     0.025599
      py      :     0.012553

 15 H s       :     0.922866  s :     0.922866
      pz      :     0.019490  p :     0.062216
      px      :     0.024817
      py      :     0.017908

 16 H s       :     0.916689  s :     0.916689
      pz      :     0.016087  p :     0.066677
      px      :     0.017249
      py      :     0.033340

 17 H s       :     0.916665  s :     0.916665
      pz      :     0.022548  p :     0.066679
      px      :     0.025335
      py      :     0.018796

 18 H s       :     0.916703  s :     0.916703
      pz      :     0.026811  p :     0.066667
      px      :     0.019632
      py      :     0.020224

 19 H s       :     0.916676  s :     0.916676
      pz      :     0.018016  p :     0.066668
      px      :     0.015770
      py      :     0.032882

 20 H s       :     0.916681  s :     0.916681
      pz      :     0.020640  p :     0.066668
      px      :     0.022273
      py      :     0.023755

 21 H s       :     0.916704  s :     0.916704
      pz      :     0.022945  p :     0.066683
      px      :     0.017973
      py      :     0.025764



                      *****************************
                      * MAYER POPULATION ANALYSIS *
                      *****************************

  NA   - Mulliken gross atomic population
  ZA   - Total nuclear charge
  QA   - Mulliken gross atomic charge
  VA   - Mayer's total valence
  BVA  - Mayer's bonded valence
  FA   - Mayer's free valence

  ATOM       NA         ZA         QA         VA         BVA        FA
  0 C      5.7411     6.0000     0.2589     4.0579     4.0579    -0.0000
  1 N      7.3397     7.0000    -0.3397     3.1068     3.1068    -0.0000
  2 C      5.7406     6.0000     0.2594     4.0578     4.0578    -0.0000
  3 N      7.3398     7.0000    -0.3398     3.1068     3.1068    -0.0000
  4 C      5.7411     6.0000     0.2589     4.0580     4.0580    -0.0000
  5 N      7.3393     7.0000    -0.3393     3.1069     3.1069    -0.0000
  6 C      6.0029     6.0000    -0.0029     3.9059     3.9059    -0.0000
  7 P     14.8934    15.0000     0.1066     2.9826     2.9826    -0.0000
  8 C      6.0024     6.0000    -0.0024     3.9059     3.9059    -0.0000
  9 C      6.0022     6.0000    -0.0022     3.9058     3.9058    -0.0000
 10 H      1.0039     1.0000    -0.0039     0.9913     0.9913    -0.0000
 11 H      1.0050     1.0000    -0.0050     0.9877     0.9877    -0.0000
 12 H      1.0053     1.0000    -0.0053     0.9877     0.9877    -0.0000
 13 H      1.0039     1.0000    -0.0039     0.9913     0.9913    -0.0000
 14 H      1.0051     1.0000    -0.0051     0.9877     0.9877    -0.0000
 15 H      1.0039     1.0000    -0.0039     0.9913     0.9913    -0.0000
 16 H      0.9716     1.0000     0.0284     0.9809     0.9809    -0.0000
 17 H      0.9717     1.0000     0.0283     0.9810     0.9810    -0.0000
 18 H      0.9717     1.0000     0.0283     0.9809     0.9809    -0.0000
 19 H      0.9718     1.0000     0.0282     0.9809     0.9809     0.0000
 20 H      0.9717     1.0000     0.0283     0.9809     0.9809    -0.0000
 21 H      0.9718     1.0000     0.0282     0.9809     0.9809    -0.0000

  Mayer bond orders larger than 0.100000
B(  0-C ,  1-N ) :   1.0300 B(  0-C ,  5-N ) :   1.0302 B(  0-C , 10-H ) :   0.9415 
B(  0-C , 11-H ) :   0.9394 B(  1-N ,  2-C ) :   1.0301 B(  1-N ,  8-C ) :   0.9914 
B(  2-C ,  3-N ) :   1.0300 B(  2-C , 12-H ) :   0.9392 B(  2-C , 13-H ) :   0.9415 
B(  3-N ,  4-C ) :   1.0302 B(  3-N ,  9-C ) :   0.9914 B(  4-C ,  5-N ) :   1.0301 
B(  4-C , 14-H ) :   0.9392 B(  4-C , 15-H ) :   0.9416 B(  5-N ,  6-C ) :   0.9913 
B(  6-C ,  7-P ) :   0.9482 B(  6-C , 16-H ) :   0.9469 B(  6-C , 17-H ) :   0.9469 
B(  7-P ,  8-C ) :   0.9482 B(  7-P ,  9-C ) :   0.9482 B(  8-C , 18-H ) :   0.9468 
B(  8-C , 19-H ) :   0.9468 B(  9-C , 20-H ) :   0.9468 B(  9-C , 21-H ) :   0.9468 


-------
TIMINGS
-------

Total SCF time: 0 days 0 hours 0 min 6 sec 

Total time                  ....       6.320 sec
Sum of individual times     ....       6.274 sec  ( 99.3%)

SCF preparation             ....       0.098 sec  (  1.6%)
Fock matrix formation       ....       6.003 sec  ( 95.0%)
  Startup                   ....       0.014 sec  (  0.2% of F)
  Exchange formation        ....       4.192 sec  ( 69.8% of F)
  Split-RI-J                ....       0.506 sec  (  8.4% of F)
  XC integration            ....       1.245 sec  ( 20.7% of F)
    Basis function eval.    ....       0.345 sec  ( 27.7% of XC)
    Density eval.           ....       0.312 sec  ( 25.1% of XC)
    XC-Functional eval.     ....       0.037 sec  (  3.0% of XC)
    XC-Potential eval.      ....       0.329 sec  ( 26.4% of XC)
Diagonalization             ....       0.000 sec  (  0.0%)
Density matrix formation    ....       0.022 sec  (  0.3%)
Total Energy calculation    ....       0.010 sec  (  0.2%)
Population analysis         ....       0.053 sec  (  0.8%)
Orbital Transformation      ....       0.016 sec  (  0.3%)
Orbital Orthonormalization  ....       0.000 sec  (  0.0%)
DIIS solution               ....       0.018 sec  (  0.3%)
SOSCF solution              ....       0.054 sec  (  0.9%)
Finished LeanSCF after   6.4 sec

Maximum memory used throughout the entire LEANSCF-calculation: 21.5 MB


-------------------------------------------------------------------------------
                          DFT DISPERSION CORRECTION                            
                                                                               
                              DFTD3 V3.1  Rev 1                                
                          USING Becke-Johnson damping                          
-------------------------------------------------------------------------------
The B3LYP functional is recognized
Active option DFTDOPT                   ...         4   

molecular C6(AA) [au] = 4973.213612 


            DFT-D V3
 parameters
 s6 scaling factor         :     1.0000 
 a1 scaling factor         :     0.3981 
 s8 scaling factor         :     1.9889 
 a2 scaling factor         :     4.4211 
 ad hoc parameters k1-k3   :    16.0000     1.3333    -4.0000 

 Edisp/kcal,au: -31.927890832754  -0.050880327304 
 E6   /kcal   : -14.685755025 
 E8   /kcal   : -17.242135808 
 % E8         :  54.003366205 

-------------------------   ----------------
Dispersion correction           -0.050880327
-------------------------   ----------------


-------------------------   --------------------
FINAL SINGLE POINT ENERGY      -740.788606914432
-------------------------   --------------------

                                *** OPTIMIZATION RUN DONE ***



           ************************************************************
           *        Program running with 6 parallel MPI-processes     *
           *              working on a common directory               *
           ************************************************************

------------------------------------------------------------------------------
                              ORCA PROPERTY CALCULATIONS
------------------------------------------------------------------------------

GBWName                                 ... data/geom_opt/143061/143061.gbw
Number of atoms                         ...     22
Number of basis functions               ...    204
Max core memory                         ...   1024 MB

Electric properties:
Dipole moment                           ... YES
Quadrupole moment                       ...  NO
Static polarizability (Dipole/Dipole)   ...  NO
Static polarizability (Dipole/Quad.)    ...  NO
Static polarizability (Quad./Quad.)     ...  NO
Static polarizability (Velocity)        ...  NO

Atomic electric properties:
Dipole moment                           ...  NO
Quadrupole moment                       ...  NO
Static polarizability                   ...  NO

Choice of electric origin               ... Center of mass
Position of electric origin             ...     0.331876    -0.154386     0.299085

General magnetic properties:
Magnetizability                         ...  NO

EPR properties:
g-Tensor (aka g-matrix)                 ...  NO
Zero-Field splitting spin-orbit         ...  NO
Zero-field splitting spin-spin          ...  NO
Hyperfine couplings                     ...  NO (   0 nuclei)
Quadrupole couplings                    ...  NO (   0 nuclei)
Contact density                         ...  NO (   0 nuclei)

NMR properties:
Chemical shifts                         ...  NO (   0 nuclei)
Spin-rotation constants                 ...  NO (   0 nuclei)
Spin-spin couplings                     ...  NO (   0 nuclei,    0 pairs)

Choice of magnetic origin               ... GIAO
Position of magnetic origin             ...     0.000000     0.000000     0.000000

Properties with geometric perturbations:
SCF Hessian                             ...  NO
IR spectrum                             ...  NO
VCD spectrum                            ...  NO
X-ray spectroscopy properties:
SCF XES/XAS/RIXS spectra                ...  NO


-------------
DIPOLE MOMENT
-------------

Method             : SCF
Type of density    : Electron Density
Multiplicity       :   1
Irrep              :   0
Energy             :  -740.7377265871270993 Eh
Relativity type    : 
Basis              : AO
                                X                 Y                 Z
Electronic contribution:      3.269872824      -1.521407863       2.947591474
Nuclear contribution   :     -3.366535700       1.566327338      -3.033937357
                        -----------------------------------------
Total Dipole Moment    :     -0.096662875       0.044919474      -0.086345884
                        -----------------------------------------
Magnitude (a.u.)       :      0.137175371
Magnitude (Debye)      :      0.348672082



--------------------
Rotational spectrum 
--------------------
 
Rotational constants in cm-1:             0.055599             0.046982             0.046977 
Rotational constants in MHz :          1666.815443          1408.498943          1408.331913 

Dipole components along the rotational axes: 
x,y,z [a.u.] :    -0.137173    -0.000589     0.000413 
x,y,z [Debye]:    -0.348667    -0.001498     0.001049 

 

Dipole moment calculation done in   0.0 sec 

Maximum memory used throughout the entire PROP-calculation: 10.4 MB

--------------------------------
SUGGESTED CITATIONS FOR THIS RUN
--------------------------------

Below you find a list of papers that are relevant to this ORCA run
We neither can nor want to force you to cite these papers, but we appreciate if you do
You receive ORCA, which is the product of decades of hard work by many enthusiastic individuals, for free
The only thing we kindly ask in return is that you cite our papers,
We deeply appreciate it, if you show your appreciation for ORCA by not just citing the generic ORCA reference.

Please note that relegating all ORCA citations to the supporting information does *not* help us.
SI sections are not indexed - citations you put there will not count into any citation statistics
But we need these citations in order to attract the funding resources that allow us to do what we are doing

Therefore, if you are a happy ORCA user, please consider citing a few of the papers listed below in the main body of your paper

In addition to the list printed below, the program has created the file data/geom_opt/143061/143061.bibtex that contains the list in bibtex format
You can import this file easily into all common literature databanks and citation aid programs


List of essential papers. We consider these as the minimum necessary citations

  1. Neese,F.
     Software update: the ORCA program system, version 5.0
     WIRES Comput. Molec. Sci., 2022 12(1)e1606
     doi.org/10.1002/wcms.1606

List of papers to cite with high priority. The work reported in these papers was absolutely
necessary for this run to complete.
Our perspective: the developers of density functionals and basis sets usually get cited in chemistry papers
Good! But without the algorithms to do something with them, the functionals or basis sets would not do anything.
Hence, in our opinion, the algorithm design and method developments papers are equally worthy of getting cited

  1. Neese,F.
     An improvement of the resolution of the identity approximation for the formation of the Coulomb matrix
     J. Comp. Chem., 2003 24(14)1740-1747
     doi.org/10.1002/jcc.10318
  2. Neese,F.
     The SHARK Integral Generation and Digestion System
     J. Comp. Chem., 2022  1-16
     doi.org/10.1002/jcc.26942
  3. Grimme,S.; Antony,J.; Ehrlich,S.; Krieg,H.
     A consistent and accurate ab initio parametrization of density functional dispersion correction (DFT-D) for the 94 elements H-Pu
     J. Chem. Phys., 2010 132 154104-XXXX
     doi.org/10.1063/1.3382344
  4. Grimme,S.; Ehrlich,S.; Goerigk,L.
     Effect of the damping function in dispersion corrected density functional theory
     J. Comput. Chem., 2011 32(7)1456-1465
     doi.org/10.1002/jcc.21759

List of suggested additional citations. These are papers that are important in the 'surrounding' of 
of this run, or papers that preceded the highly important papers. If you like your results we are grateful for a citation.

  1. Neese,F.
     The ORCA program system
     WIRES Comput. Molec. Sci., 2012 2(1)73-78
     doi.org/10.1002/wcms.81
  2. Neese,F.
     Software update: the ORCA program system, version 4.0
     WIRES Comput. Molec. Sci., 2018 8(1)1-6
     doi.org/10.1002/wcms.1327
  3. Neese,F.; Wennmohs,F.; Becker,U.; Riplinger,C.
     The ORCA quantum chemistry program package
     J. Chem. Phys., 2020 152 Art. No. L224108
     doi.org/10.1063/5.0004608

List of optional additional citations

  1. Neese,F.
     Approximate second-order SCF convergence for spin unrestricted wavefunctions
     Chem. Phys. Lett., 2000 325(1-3)93-98
     doi.org/10.1016/s0009-2614(00)00662-x

Timings for individual modules:

Sum of individual times          ...      141.807 sec (=   2.363 min)
Startup calculation              ...        6.029 sec (=   0.100 min)   4.3 %
SCF iterations                   ...       81.384 sec (=   1.356 min)  57.4 %
Property calculations            ...        0.145 sec (=   0.002 min)   0.1 %
SCF Gradient evaluation          ...       54.175 sec (=   0.903 min)  38.2 %
Geometry relaxation              ...        0.074 sec (=   0.001 min)   0.1 %
                             ****ORCA TERMINATED NORMALLY****
TOTAL RUN TIME: 0 days 0 hours 2 minutes 23 seconds 260 msec
