
                                 *****************
                                 * O   R   C   A *
                                 *****************

                                            #,                                       
                                            ###                                      
                                            ####                                     
                                            #####                                    
                                            ######                                   
                                           ########,                                 
                                     ,,################,,,,,                         
                               ,,#################################,,                 
                          ,,##########################################,,             
                       ,#########################################, ''#####,          
                    ,#############################################,,   '####,        
                  ,##################################################,,,,####,       
                ,###########''''           ''''###############################       
              ,#####''   ,,,,##########,,,,          '''####'''          '####       
            ,##' ,,,,###########################,,,                        '##       
           ' ,,###''''                  '''############,,,                           
         ,,##''                                '''############,,,,        ,,,,,,###''
      ,#''                                            '''#######################'''  
     '                                                          ''''####''''         
             ,#######,   #######,   ,#######,      ##                                
            ,#'     '#,  ##    ##  ,#'     '#,    #''#        ,####,   ,####,        
            ##       ##  ##   ,#'  ##            #'  '#       #'       #'  '#        
            ##       ##  #######   ##           ,######,      #####,   #    #        
            '#,     ,#'  ##    ##  '#,     ,#' ,#      #,     #,   #   #,  ,#        
             '#######'   ##     ##  '#######'  #'      '#     '####' # '####'        



                #########################################################
                #                        -***-                          #
                #          Department of theory and spectroscopy        #
                #                                                       #
                #                      Frank Neese                      #
                #                                                       #
                #     Directorship, Architecture, Infrastructure        #
                #                    SHARK, DRIVERS                     #
                #        Core code/Algorithms in most modules           #
                #                                                       #
                #        Max Planck Institute fuer Kohlenforschung      #
                #                Kaiser Wilhelm Platz 1                 #
                #                 D-45470 Muelheim/Ruhr                 #
                #                      Germany                          #
                #                                                       #
                #                  All rights reserved                  #
                #                        -***-                          #
                #########################################################


                         Program Version 6.0.0  -   RELEASE   -


 With contributions from (in alphabetic order):
   Daniel Aravena         : Magnetic Suceptibility
   Michael Atanasov       : Ab Initio Ligand Field Theory (pilot matlab implementation)
   Alexander A. Auer      : GIAO ZORA, VPT2 properties, NMR spectrum
   Ute Becker             : All parallelization in ORCA, NUMFREQ, NUMCALC
   Giovanni Bistoni       : ED, misc. LED, open-shell LED, HFLD
   Martin Brehm           : Molecular dynamics
   Dmytro Bykov           : pre 5.0 version of the SCF Hessian
   Marcos Casanova-Páez   : Triplet and SCS-CIS(D). UHF-(DLPNO)-IP/EA/STEOM-CCSD. UHF-CVS-IP/STEOM-CCSD
   Vijay G. Chilkuri      : MRCI spin determinant printing, contributions to CSF-ICE
   Pauline Colinet        : FMM embedding
   Dipayan Datta          : RHF DLPNO-CCSD density
   Achintya Kumar Dutta   : EOM-CC, STEOM-CC
   Nicolas Foglia         : Exact transition moments, OPA infrastructure, MCD improvements
   Dmitry Ganyushin       : Spin-Orbit,Spin-Spin,Magnetic field MRCI
   Miquel Garcia          : C-PCM and meta-GGA Hessian, CCSD/C-PCM, Gaussian charge scheme
   Tiago L. C. Gouveia    : GS-ROHF, GS-ROCIS
   Yang Guo               : DLPNO-NEVPT2, F12-NEVPT2, CIM, IAO-localization
   Andreas Hansen         : Spin unrestricted coupled pair/coupled cluster methods
   Ingolf Harden          : AUTO-CI MPn and infrastructure 
   Benjamin Helmich-Paris : MC-RPA, TRAH-(SCF,CASSCF), AVAS, COSX integrals, SCF dyn. polar.
   Lee Huntington         : MR-EOM, pCC
   Robert Izsak           : Overlap fitted RIJCOSX, COSX-SCS-MP3, EOM
   Riya Kayal             : Wick's Theorem for AUTO-CI, AUTO-CI UHF-CCSDT
   Emily Kempfer          : AUTO-CI, RHF CISDT and CCSDT
   Christian Kollmar      : KDIIS, OOCD, Brueckner-CCSD(T), CCSD density, CASPT2, CASPT2-K, improved NEVPT2
   Axel Koslowski         : Symmetry handling
   Simone Kossmann        : Meta GGA functionals, TD-DFT gradient, OOMP2, (MP2 Hessian; deprecated post 5.0)
   Lucas Lang             : DCDCAS
   Marvin Lechner         : AUTO-CI (C++ implementation), FIC-MRCC
   Spencer Leger          : CASSCF response
   Dagmar Lenk            : GEPOL surface, SMD, ORCA-2-JSON
   Dimitrios Liakos       : Extrapolation schemes; Compound Job, initial MDCI parallelization
   Dimitrios Manganas     : Further ROCIS development; embedding schemes. LFT, Crystal Embedding
   Dimitrios Pantazis     : SARC Basis sets
   Anastasios Papadopoulos: AUTO-CI, single reference methods and gradients
   Taras Petrenko         : pre 6.0 DFT Hessian and TD-DFT gradient, (ASA, deprecated), ECA, 1-Electron XAS/XES, NRVS
   Peter Pinski           : DLPNO-MP2, DLPNO-MP2 Gradient
   Christoph Reimann      : Effective Core Potentials
   Marius Retegan         : Local ZFS, SOC
   Christoph Riplinger    : Optimizer, TS searches, QM/MM, DLPNO-CCSD(T), (RO)-DLPNO pert. Triples
   Michael Roemelt        : Original ROCIS implementation
   Masaaki Saitow         : Open-shell DLPNO-CCSD energy and density
   Barbara Sandhoefer     : DKH picture change effects
   Kantharuban Sivalingam : CASSCF convergence/infrastructure, NEVPT2 and variants, FIC-MRCI
   Bernardo de Souza      : ESD, SOC TD-DFT
   Georgi Stoychev        : AutoAux, RI-MP2 NMR, DLPNO-MP2 response, X2C
   Van Anh Tran           : RI-MP2 g-tensors
   Willem Van den Heuvel  : Paramagnetic NMR
   Zikuan Wang            : NOTCH, Electric field optimization 
   Frank Wennmohs         : Technical directorship and infrastructure
   Hang Xu                : AUTO-CI-Response properties 


 We gratefully acknowledge several colleagues who have allowed us to
 interface, adapt or use parts of their codes:
   Stefan Grimme, W. Hujo, H. Kruse, P. Pracht,  : VdW corrections, initial TS optimization,
                  C. Bannwarth, S. Ehlert,         DFT functionals, gCP, sTDA/sTD-DF
                  L. Wittmann, M. Mueller
   Ed Valeev, F. Pavosevic, A. Kumar             : LibInt (2-el integral package), F12 methods
   Garnet Chan, S. Sharma, J. Yang, R. Olivares  : DMRG
   Ulf Ekstrom                                   : XCFun DFT Library
   Mihaly Kallay                                 : mrcc  (arbitrary order and MRCC methods)
   Frank Weinhold                                : gennbo (NPA and NBO analysis)
   Simon Mueller                                 : openCOSMO-RS
   Christopher J. Cramer and Donald G. Truhlar   : smd solvation model
   Lars Goerigk                                  : TD-DFT with DH, B97 family of functionals
   V. Asgeirsson, H. Jonsson                     : NEB implementation
   FAccTs GmbH                                   : IRC, NEB, NEB-TS, DLPNO-Multilevel, CI-OPT
                                                   MM, QMMM, 2- and 3-layer-ONIOM, Crystal-QMMM,
                                                   LR-CPCM, SF, NACMEs, symmetry and pop. for TD-DFT,
                                                   nearIR, NL-DFT gradient (VV10), updates on ESD,
                                                   ML-optimized integration grids, MBIS, APM,
                                                   GOAT, DOCKER, SOLVATOR, interface openCOSMO-RS
   S Lehtola, MJT Oliveira, MAL Marques          : LibXC Library
   Liviu Ungur et al                             : ANISO software


 Your calculation uses the libint2 library for the computation of 2-el integrals
 For citations please refer to: http://libint.valeyev.net

 Your ORCA version has been built with support for libXC version: 6.2.2
 For citations please refer to: https://libxc.gitlab.io

 This ORCA versions uses:
   CBLAS   interface :  Fast vector & matrix operations
   LAPACKE interface :  Fast linear algebra routines
   Shared memory     :  Shared parallel matrices


Your calculation utilizes the atom-pairwise dispersion correction
with the zero-damping scheme (D30)


XCFun DFT library Copyright 2009-2010 Ulf Ekstrom and contributors.
See http://admol.org/xcfun for more information.
This is free software; see the source code for copying conditions.
There is ABSOLUTELY NO WARRANTY; not even for MERCHANTABILITY or FITNESS FOR A PARTICULAR PURPOSE.
For details see the documentation.
Scientific users of this library should cite U. Ekstrom, L. Visscher, R. Bast, A. J. Thorvaldsen and K. Ruud;
J.Chem.Theor.Comp. 2010, DOI: 10.1021/ct100117s
XCFun Version 0.99 

Warning: RI is on but no J-basis has been assigned. Assigning Def2/J (nothing to worry about!)
================================================================================

----- Orbital basis set information -----
Your calculation utilizes the basis: def2-TZVP
   F. Weigend and R. Ahlrichs, Phys. Chem. Chem. Phys. 7, 3297 (2005).

----- AuxJ basis set information -----
Your calculation utilizes the auxiliary basis: def2/J
   F. Weigend, Phys. Chem. Chem. Phys. 8, 1057 (2006).

================================================================================
                                        WARNINGS
                       Please study these warnings very carefully!
================================================================================

WARNING: Functional chosen is sensitive to the integration grid.
         DEFGRID3 seems to be a minimum grid for robust results!

================================================================================
                                       INPUT FILE
================================================================================
NAME = data/single_point_PO_M06-2x/74149/74149.inp
|  1> ! RIJCOSX M062X def2-TZVP D3ZERO NormalSCF
|  2> %pal
|  3> nprocs 6
|  4> end
|  5> 
|  6> * xyz 0 1
|  7>   C          -1.45977062261154     -2.71616638473887      0.05008224396062
|  8>   C          -1.81590791498631     -1.39368838837383     -0.63740221124301
|  9>   P          -1.19221325713788      0.04201868013958      0.33762249935011
| 10>   O          -1.63387239648381      0.03988707499537      1.79253697358512
| 11>   C          -1.70109563752751      1.54706505937889     -0.59887020734175
| 12>   C          -1.24073458010466      2.81904589906091      0.12116782668484
| 13>   C           0.63687683715159     -0.02684294238605      0.18207134410147
| 14>   C           1.36946499354797     -0.07426680008527      1.38401054948371
| 15>   C           2.77216222563938     -0.12919024823132      1.34945843094845
| 16>   C           3.44563979933412     -0.13668523455608      0.11614444730147
| 17>   C           2.71688683575783     -0.08935231409397     -1.08588024601561
| 18>   C           1.31453236670977     -0.03444398940634     -1.05431643889253
| 19>   H          -0.36178294893904     -2.87054364531370      0.07670483035123
| 20>   H          -1.91422633174687     -3.57913947424449     -0.47652236965340
| 21>   H          -1.82343609901136     -2.70994554932332      1.09662546067379
| 22>   H          -1.41325527028497     -1.33535985365995     -1.67169587343493
| 23>   H          -2.91726074129518     -1.26102460701354     -0.70648526134514
| 24>   H          -2.80947694476615      1.50331254843517     -0.66826809100208
| 25>   H          -1.30479595201178      1.48328556558668     -1.63531639896703
| 26>   H          -1.60117178268557      2.81386454823414      1.16885228032051
| 27>   H          -1.62735405359552      3.72859409856670     -0.38065729471023
| 28>   H          -0.13392608124599      2.88647016912749      0.14680684640928
| 29>   H           0.80880526962895     -0.06701554429221      2.33218571870080
| 30>   H           3.34377658360772     -0.16659093885545      2.28972603002353
| 31>   H           4.54541108585833     -0.17993631778817      0.08903268387168
| 32>   H           3.24538426905434     -0.09546228231456     -2.05169107411844
| 33>   H           0.75134234814412      0.00211187115221     -2.00106469904245
| 34> **                         ****END OF INPUT****
================================================================================

                       ****************************
                       * Single Point Calculation *
                       ****************************

---------------------------------
CARTESIAN COORDINATES (ANGSTROEM)
---------------------------------
  C     -1.459771   -2.716166    0.050082
  C     -1.815908   -1.393688   -0.637402
  P     -1.192213    0.042019    0.337622
  O     -1.633872    0.039887    1.792537
  C     -1.701096    1.547065   -0.598870
  C     -1.240735    2.819046    0.121168
  C      0.636877   -0.026843    0.182071
  C      1.369465   -0.074267    1.384011
  C      2.772162   -0.129190    1.349458
  C      3.445640   -0.136685    0.116144
  C      2.716887   -0.089352   -1.085880
  C      1.314532   -0.034444   -1.054316
  H     -0.361783   -2.870544    0.076705
  H     -1.914226   -3.579139   -0.476522
  H     -1.823436   -2.709946    1.096625
  H     -1.413255   -1.335360   -1.671696
  H     -2.917261   -1.261025   -0.706485
  H     -2.809477    1.503313   -0.668268
  H     -1.304796    1.483286   -1.635316
  H     -1.601172    2.813865    1.168852
  H     -1.627354    3.728594   -0.380657
  H     -0.133926    2.886470    0.146807
  H      0.808805   -0.067016    2.332186
  H      3.343777   -0.166591    2.289726
  H      4.545411   -0.179936    0.089033
  H      3.245384   -0.095462   -2.051691
  H      0.751342    0.002112   -2.001065

----------------------------
CARTESIAN COORDINATES (A.U.)
----------------------------
  NO LB      ZA    FRAG     MASS         X           Y           Z
   0 C     6.0000    0    12.011   -2.758567   -5.132811    0.094642
   1 C     6.0000    0    12.011   -3.431569   -2.633689   -1.204516
   2 P    15.0000    0    30.974   -2.252957    0.079404    0.638014
   3 O     8.0000    0    15.999   -3.087571    0.075376    3.387404
   4 C     6.0000    0    12.011   -3.214605    2.923529   -1.131701
   5 C     6.0000    0    12.011   -2.344649    5.327225    0.228974
   6 C     6.0000    0    12.011    1.203523   -0.050726    0.344065
   7 C     6.0000    0    12.011    2.587914   -0.140344    2.615401
   8 C     6.0000    0    12.011    5.238627   -0.244134    2.550107
   9 C     6.0000    0    12.011    6.511316   -0.258298    0.219481
  10 C     6.0000    0    12.011    5.134172   -0.168851   -2.052016
  11 C     6.0000    0    12.011    2.484106   -0.065090   -1.992369
  12 H     1.0000    0     1.008   -0.683671   -5.424541    0.144951
  13 H     1.0000    0     1.008   -3.617364   -6.763593   -0.900497
  14 H     1.0000    0     1.008   -3.445795   -5.121055    2.072322
  15 H     1.0000    0     1.008   -2.670665   -2.523464   -3.159047
  16 H     1.0000    0     1.008   -5.512824   -2.382991   -1.335064
  17 H     1.0000    0     1.008   -5.309142    2.840849   -1.262844
  18 H     1.0000    0     1.008   -2.465707    2.803003   -3.090300
  19 H     1.0000    0     1.008   -3.025776    5.317433    2.208811
  20 H     1.0000    0     1.008   -3.075253    7.046022   -0.719338
  21 H     1.0000    0     1.008   -0.253084    5.454638    0.277425
  22 H     1.0000    0     1.008    1.528420   -0.126641    4.407192
  23 H     1.0000    0     1.008    6.318822   -0.314811    4.326955
  24 H     1.0000    0     1.008    8.589582   -0.340030    0.168247
  25 H     1.0000    0     1.008    6.132887   -0.180398   -3.877134
  26 H     1.0000    0     1.008    1.419831    0.003991   -3.781464

--------------------------------
INTERNAL COORDINATES (ANGSTROEM)
--------------------------------
 C      0   0   0     0.000000000000     0.00000000     0.00000000
 C      1   0   0     1.532454468504     0.00000000     0.00000000
 P      2   1   0     1.844159157740   110.85838348     0.00000000
 O      3   2   1     1.520474750348   113.99034334   306.49347128
 C      3   2   1     1.844219203462   105.87496012   180.36568512
 C      5   3   2     1.532423678411   110.84844436   179.76456760
 C      3   2   1     1.836983575861   105.23587366    69.25715364
 C      7   3   2     1.408400611547   116.54617209   235.93572317
 C      8   7   3     1.404197264977   119.99459317   179.96306560
 C      9   8   7     1.405237203944   120.03672959     0.00000000
 C     10   9   8     1.406479523713   120.10387934     0.00000000
 C     11  10   9     1.403783906055   119.98096253     0.00000000
 H      1   2   3     1.109106862401   111.15879432   294.95374214
 H      1   2   3     1.108406497570   111.31338296   174.51665017
 H      1   2   3     1.107945838914   110.03708116    54.10082243
 H      2   1   3     1.111438144881   112.24543270   122.39876110
 H      2   1   3     1.111463087428   111.17215657   242.40364851
 H      5   3   2     1.111413276287   105.94782934    59.01678107
 H      5   3   2     1.111459388688   109.16628257   303.91383945
 H      6   5   3     1.107964141022   110.04112094   306.01198927
 H      6   5   3     1.108413730053   111.32195463   185.59449587
 H      6   5   3     1.109156636671   111.16755183    65.16728935
 H      8   7   3     1.101557106216   118.00913321     0.00000000
 H      9   8   7     1.101019956116   119.92912692   180.02159921
 H     10   9   8     1.100955306350   120.03768615   180.01136454
 H     11  10   9     1.100971127865   120.05335732   180.01185837
 H     12  11  10     1.102203064798   119.50048942   180.01780657

---------------------------
INTERNAL COORDINATES (A.U.)
---------------------------
 C      0   0   0     0.000000000000     0.00000000     0.00000000
 C      1   0   0     2.895919258175     0.00000000     0.00000000
 P      2   1   0     3.484955755491   110.85838348     0.00000000
 O      3   2   1     2.873280871701   113.99034334   306.49347128
 C      3   2   1     3.485069225462   105.87496012   180.36568512
 C      5   3   2     2.895861073333   110.84844436   179.76456760
 C      3   2   1     3.471395870889   105.23587366    69.25715364
 C      7   3   2     2.661491442671   116.54617209   235.93572317
 C      8   7   3     2.653548268807   119.99459317   179.96306560
 C      9   8   7     2.655513468652   120.03672959     0.00000000
 C     10   9   8     2.657861112786   120.10387934     0.00000000
 C     11  10   9     2.652767133650   119.98096253     0.00000000
 H      1   2   3     2.095908223191   111.15879432   294.95374214
 H      1   2   3     2.094584725467   111.31338296   174.51665017
 H      1   2   3     2.093714206765   110.03708116    54.10082243
 H      2   1   3     2.100313708619   112.24543270   122.39876110
 H      2   1   3     2.100360843201   111.17215657   242.40364851
 H      5   3   2     2.100266713786   105.94782934    59.01678107
 H      5   3   2     2.100353853596   109.16628257   303.91383945
 H      6   5   3     2.093748792737   110.04112094   306.01198927
 H      6   5   3     2.094598392878   111.32195463   185.59449587
 H      6   5   3     2.096002282930   111.16755183    65.16728935
 H      8   7   3     2.081641251623   118.00913321     0.00000000
 H      9   8   7     2.080626185041   119.92912692   180.02159921
 H     10   9   8     2.080504014689   120.03768615   180.01136454
 H     11  10   9     2.080533913020   120.05335732   180.01185837
 H     12  11  10     2.082861936437   119.50048942   180.01780657

---------------------
BASIS SET INFORMATION
---------------------
There are 4 groups of distinct atoms

 Group   1 Type C   : 11s6p2d1f contracted to 5s3p2d1f pattern {62111/411/11/1}
 Group   2 Type P   : 14s9p3d1f contracted to 5s5p2d1f pattern {73211/51111/21/1}
 Group   3 Type O   : 11s6p2d1f contracted to 5s3p2d1f pattern {62111/411/11/1}
 Group   4 Type H   : 5s1p contracted to 3s1p pattern {311/1}

Atom   0C    basis set group =>   1
Atom   1C    basis set group =>   1
Atom   2P    basis set group =>   2
Atom   3O    basis set group =>   3
Atom   4C    basis set group =>   1
Atom   5C    basis set group =>   1
Atom   6C    basis set group =>   1
Atom   7C    basis set group =>   1
Atom   8C    basis set group =>   1
Atom   9C    basis set group =>   1
Atom  10C    basis set group =>   1
Atom  11C    basis set group =>   1
Atom  12H    basis set group =>   4
Atom  13H    basis set group =>   4
Atom  14H    basis set group =>   4
Atom  15H    basis set group =>   4
Atom  16H    basis set group =>   4
Atom  17H    basis set group =>   4
Atom  18H    basis set group =>   4
Atom  19H    basis set group =>   4
Atom  20H    basis set group =>   4
Atom  21H    basis set group =>   4
Atom  22H    basis set group =>   4
Atom  23H    basis set group =>   4
Atom  24H    basis set group =>   4
Atom  25H    basis set group =>   4
Atom  26H    basis set group =>   4
---------------------------------
AUXILIARY/J BASIS SET INFORMATION
---------------------------------
There are 4 groups of distinct atoms

 Group   1 Type C   : 12s5p4d2f1g contracted to 6s4p3d1f1g pattern {711111/2111/211/2/1}
 Group   2 Type P   : 14s5p5d2f1g contracted to 8s4p3d1f1g pattern {71111111/2111/311/2/1}
 Group   3 Type O   : 12s5p4d2f1g contracted to 6s4p3d1f1g pattern {711111/2111/211/2/1}
 Group   4 Type H   : 5s2p1d contracted to 3s1p1d pattern {311/2/1}

Atom   0C    basis set group =>   1
Atom   1C    basis set group =>   1
Atom   2P    basis set group =>   2
Atom   3O    basis set group =>   3
Atom   4C    basis set group =>   1
Atom   5C    basis set group =>   1
Atom   6C    basis set group =>   1
Atom   7C    basis set group =>   1
Atom   8C    basis set group =>   1
Atom   9C    basis set group =>   1
Atom  10C    basis set group =>   1
Atom  11C    basis set group =>   1
Atom  12H    basis set group =>   4
Atom  13H    basis set group =>   4
Atom  14H    basis set group =>   4
Atom  15H    basis set group =>   4
Atom  16H    basis set group =>   4
Atom  17H    basis set group =>   4
Atom  18H    basis set group =>   4
Atom  19H    basis set group =>   4
Atom  20H    basis set group =>   4
Atom  21H    basis set group =>   4
Atom  22H    basis set group =>   4
Atom  23H    basis set group =>   4
Atom  24H    basis set group =>   4
Atom  25H    basis set group =>   4
Atom  26H    basis set group =>   4


           ************************************************************
           *        Program running with 6 parallel MPI-processes     *
           *              working on a common directory               *
           ************************************************************
------------------------------------------------------------------------------
                             ORCA STARTUP CALCULATIONS
                           -- RI-GTO INTEGRALS CHOSEN --
------------------------------------------------------------------------------
------------------------------------------------------------------------------
                   ___                                                        
                  /   \      - P O W E R E D   B Y -                         
                 /     \                                                     
                 |  |  |   _    _      __       _____    __    __             
                 |  |  |  | |  | |    /  \     |  _  \  |  |  /  |          
                  \  \/   | |  | |   /    \    | | | |  |  | /  /          
                 / \  \   | |__| |  /  /\  \   | |_| |  |  |/  /          
                |  |  |   |  __  | /  /__\  \  |    /   |      \           
                |  |  |   | |  | | |   __   |  |    \   |  |\   \          
                \     /   | |  | | |  |  |  |  | |\  \  |  | \   \       
                 \___/    |_|  |_| |__|  |__|  |_| \__\ |__|  \__/        
                                                                              
                      - O R C A' S   B I G   F R I E N D -                    
                                      &                                       
                       - I N T E G R A L  F E E D E R -                       
                                                                              
 v1 FN, 2020, v2 2021, v3 2022-2024                                           
------------------------------------------------------------------------------


----------------------
SHARK INTEGRAL PACKAGE
----------------------

Number of atoms                             ...     27
Number of basis functions                   ...    468
Number of shells                            ...    194
Maximum angular momentum                    ...      3
Integral batch strategy                     ... SHARK/LIBINT Hybrid
RI-J (if used) integral strategy            ... SPLIT-RIJ (Revised 2003 algorithm where possible)
Printlevel                                  ...      1
Contraction scheme used                     ... SEGMENTED contraction
Prescreening option                         ... SCHWARTZ
   Thresh                                   ... 1.000e-10
   Tcut                                     ... 1.000e-11
   Tpresel                                  ... 1.000e-11 
Coulomb Range Separation                    ... NOT USED
Exchange Range Separation                   ... NOT USED
Multipole approximations                    ... NOT USED
Finite Nucleus Model                        ... NOT USED
CABS basis                                  ... NOT available
Auxiliary Coulomb fitting basis             ... AVAILABLE
   # of basis functions in Aux-J            ...    755
   # of shells in Aux-J                     ...    257
   Maximum angular momentum in Aux-J        ...      4
Auxiliary J/K fitting basis                 ... NOT available
Auxiliary Correlation fitting basis         ... NOT available
Auxiliary 'external' fitting basis          ... NOT available

Checking pre-screening integrals            ... done (  0.0 sec) Dimension = 194
Check shell pair data                       ... done (  0.0 sec)
Shell pair information
Shell pair cut-off parameter TPreSel        ...   1.0e-11
Total number of shell pairs                 ...     18915
Shell pairs after pre-screening             ...     15715
Total number of primitive shell pairs       ...     57276
Primitive shell pairs kept                  ...     33300
          la=0 lb=0:   4470 shell pairs
          la=1 lb=0:   4630 shell pairs
          la=1 lb=1:   1254 shell pairs
          la=2 lb=0:   2100 shell pairs
          la=2 lb=1:   1125 shell pairs
          la=2 lb=2:    277 shell pairs
          la=3 lb=0:   1002 shell pairs
          la=3 lb=1:    541 shell pairs
          la=3 lb=2:    252 shell pairs
          la=3 lb=3:     64 shell pairs

Calculating one electron integrals          ... done (  0.0 sec)
Calculating RI/J V-Matrix + Cholesky decomp.... done (  0.0 sec)
Calculating Nuclear repulsion               ... done (  0.0 sec) ENN=    816.870962674376 Eh

Diagonalization of the overlap matrix:
Smallest eigenvalue                        ... 8.788e-06
Time for diagonalization                   ...    0.034 sec
Threshold for overlap eigenvalues          ... 1.000e-07
Number of eigenvalues below threshold      ... 0
Time for construction of square roots      ...    0.016 sec
Total time needed                          ...    0.052 sec

-------------------
DFT GRID GENERATION
-------------------

General Integration Accuracy     IntAcc      ... 4.388
Radial Grid Type                 RadialGrid  ... OptM3 with GC (2021)
Angular Grid (max. ang.)         AngularGrid ... 4 (Lebedev-302)
Angular grid pruning method      GridPruning ... 4 (adaptive)
Weight generation scheme         WeightScheme... mBecke (2022)
Basis function cutoff            BFCut       ... 1.0000e-10
Integration weight cutoff        WCut        ... 1.0000e-14
Partially contracted basis set               ... off
Rotationally invariant grid construction     ... off
Angular grids for H and He will be reduced by one unit

Total number of grid points                  ...   121009
Total number of batches                      ...     1904
Average number of points per batch           ...       63
Average number of grid points per atom       ...     4482

--------------------
COSX GRID GENERATION
--------------------

GRIDX 1
-------
General Integration Accuracy     IntAcc      ... 3.816
Radial Grid Type                 RadialGrid  ... OptM3 with GC (2021)
Angular Grid (max. ang.)         AngularGrid ... 1 (Lebedev-50)
Angular grid pruning method      GridPruning ... 4 (adaptive)
Weight generation scheme         WeightScheme... mBecke (2022)
Basis function cutoff            BFCut       ... 1.0000e-10
Integration weight cutoff        WCut        ... 1.0000e-14
Partially contracted basis set               ... on
Rotationally invariant grid construction     ... off
Angular grids for H and He will be reduced by one unit

Total number of grid points                  ...    16460
Total number of batches                      ...      141
Average number of points per batch           ...      116
Average number of grid points per atom       ...      610
UseSFitting                                  ... on

GRIDX 2
-------
General Integration Accuracy     IntAcc      ... 4.020
Radial Grid Type                 RadialGrid  ... OptM3 with GC (2021)
Angular Grid (max. ang.)         AngularGrid ... 2 (Lebedev-110)
Angular grid pruning method      GridPruning ... 4 (adaptive)
Weight generation scheme         WeightScheme... mBecke (2022)
Basis function cutoff            BFCut       ... 1.0000e-10
Integration weight cutoff        WCut        ... 1.0000e-14
Partially contracted basis set               ... on
Rotationally invariant grid construction     ... off
Angular grids for H and He will be reduced by one unit

Total number of grid points                  ...    32602
Total number of batches                      ...      268
Average number of points per batch           ...      121
Average number of grid points per atom       ...     1207
UseSFitting                                  ... on

GRIDX 3
-------
General Integration Accuracy     IntAcc      ... 4.338
Radial Grid Type                 RadialGrid  ... OptM3 with GC (2021)
Angular Grid (max. ang.)         AngularGrid ... 3 (Lebedev-194)
Angular grid pruning method      GridPruning ... 4 (adaptive)
Weight generation scheme         WeightScheme... mBecke (2022)
Basis function cutoff            BFCut       ... 1.0000e-10
Integration weight cutoff        WCut        ... 1.0000e-14
Partially contracted basis set               ... on
Rotationally invariant grid construction     ... off
Angular grids for H and He will be reduced by one unit

Total number of grid points                  ...    71575
Total number of batches                      ...      574
Average number of points per batch           ...      124
Average number of grid points per atom       ...     2651
UseSFitting                                  ... on
Initializing property integral containers    ... done (  0.0 sec)

SHARK setup successfully completed in   2.3 seconds

Maximum memory used throughout the entire STARTUP-calculation: 45.2 MB


           ************************************************************
           *        Program running with 6 parallel MPI-processes     *
           *              working on a common directory               *
           ************************************************************
-------------------------------------------------------------------------------
                                 ORCA GUESS
                   Start orbitals & Density for SCF / CASSCF
-------------------------------------------------------------------------------

------------
SCF SETTINGS
------------
Hamiltonian:
 Density Functional     Method          .... DFT(GTOs)
 Exchange Functional    Exchange        .... M062X
 Correlation Functional Correlation     .... M062X
 Gradients option       PostSCFGGA      .... off
 Hybrid DFT is turned on
   Fraction HF Exchange ScalHFX         ....  0.540000
   Scaling of DF-GGA-X  ScalDFX         ....  0.460000
   Scaling of DF-GGA-C  ScalDFC         ....  1.000000
   Scaling of DF-LDA-C  ScalLDAC        ....  1.000000
   Perturbative correction              ....  0.000000
 RI-approximation to the Coulomb term is turned on
   Number of AuxJ basis functions       .... 755
   RIJ-COSX (HFX calculated with COS-X)).... on


General Settings:
 Integral files         IntName         .... data/single_point_PO_M06-2x/74149/74149
 Hartree-Fock type      HFTyp           .... RHF
 Total Charge           Charge          ....    0
 Multiplicity           Mult            ....    1
 Number of Electrons    NEL             ....   98
 Basis Dimension        Dim             ....  468
 Nuclear Repulsion      ENuc            ....    816.8709626744 Eh

Convergence Acceleration:
 AO-DIIS                CNVDIIS         .... on
   Start iteration      DIISMaxIt       ....    12
   Startup error        DIISStart       ....  0.200000
   # of expansion vecs  DIISMaxEq       ....     5
   Bias factor          DIISBfac        ....   1.050
   Max. coefficient     DIISMaxC        ....  10.000
 MO-DIIS                CNVKDIIS        .... off
 Trust-Rad. Augm. Hess. CNVTRAH         .... auto
   Auto Start mean grad. ratio tolernc. ....  1.125000
   Auto Start start iteration           ....    50
   Auto Start num. interpolation iter.  ....    10
   Max. Number of Micro iterations      ....    24
   Max. Number of Macro iterations      .... Maxiter - #DIIS iter
   Number of Davidson start vectors     ....     2
   Converg. threshold    (grad. norm)   ....   5.000e-05
   Grad. Scal. Fac. for Micro threshold ....   0.100
   Minimum threshold for Micro iter.    ....   1.000e-02
   NR start threshold (gradient norm)   ....   1.000e-04
   Initial trust radius                 ....   0.400
   Minimum AH scaling param. (alpha)    ....   1.000
   Maximum AH scaling param. (alpha)    .... 1000.000
   Quad. conv. algorithm                .... NR
   White noise on init. David. guess    .... on
   Maximum white noise                  ....   0.010
   Pseudo random numbers                .... off
   Inactive MOs                         .... canonical
   Orbital update algorithm             .... Taylor
   Preconditioner                       .... Diag
   Full preconditioner red. dimension   ....   250
 SOSCF                  CNVSOSCF        .... on
   Start iteration      SOSCFMaxIt      ....   150
   Startup grad/error   SOSCFStart      ....  0.003300
   Hessian update       SOSCFHessUp     .... L-BFGS
 Level Shifting         CNVShift        .... on
   Level shift para.    LevelShift      ....    0.2500
   Turn off err/grad.   ShiftErr        ....    0.0010
 Zerner damping         CNVZerner       .... off
 Static damping         CNVDamp         .... on
   Fraction old density DampFac         ....    0.7000
   Max. Damping (<1)    DampMax         ....    0.9800
   Min. Damping (>=0)   DampMin         ....    0.0000
   Turn off err/grad.   DampErr         ....    0.1000

SCF Procedure:
 Maximum # iterations   MaxIter         ....   125
 SCF integral mode      SCFMode         .... Direct
   Integral package                     .... SHARK and LIBINT hybrid scheme
 Reset frequency        DirectResetFreq ....    20
 Integral Threshold     Thresh          ....  1.000e-10 Eh
 Primitive CutOff       TCut            ....  1.000e-11 Eh

Convergence Tolerance:
 Convergence Check Mode ConvCheckMode   .... Total+1el-Energy
 Convergence forced     ConvForced      .... 0
 Energy Change          TolE            ....  1.000e-06 Eh
 1-El. energy change                    ....  1.000e-03 Eh
 Orbital Gradient       TolG            ....  5.000e-05
 Orbital Rotation angle TolX            ....  5.000e-05
 DIIS Error             TolErr          ....  1.000e-05

------------------------------
INITIAL GUESS: MODEL POTENTIAL
------------------------------
Loading Hartree-Fock densities                     ... done
Calculating cut-offs                               ... done
Initializing the effective Hamiltonian             ... done
Setting up the integral package (SHARK)            ... done
Starting the Coulomb interaction                   ... done (   0.2 sec)
Making the grid                                    ... done (   0.2 sec)
Mapping shells                                     ... done
Starting the XC term evaluation                    ... done (   0.3 sec)
  promolecular density results
     # of electrons  =     97.989801535
     EX              =    -86.195983409
     EC              =     -3.303694176
     EX+EC           =    -89.499677585
Transforming the Hamiltonian                       ... done (   0.0 sec)
Diagonalizing the Hamiltonian                      ... done (   0.0 sec)
Back transforming the eigenvectors                 ... done (   0.0 sec)
Now organizing SCF variables                       ... done
                      ------------------
                      INITIAL GUESS DONE (   0.8 sec)
                      ------------------
             **** ENERGY FILE WAS UPDATED (data/single_point_PO_M06-2x/74149/74149.en.tmp) ****
Finished Guess after   0.9 sec
Maximum memory used throughout the entire GUESS-calculation: 30.7 MB


           ************************************************************
           *        Program running with 6 parallel MPI-processes     *
           *              working on a common directory               *
           ************************************************************

-------------------------------------------------------------------------------------------
                                      ORCA LEAN-SCF
                              memory conserving SCF solver
-------------------------------------------------------------------------------------------

----------------------------------------D-I-I-S--------------------------------------------
Iteration    Energy (Eh)           Delta-E    RMSDP     MaxDP     DIISErr   Damp  Time(sec)
-------------------------------------------------------------------------------------------
               ***  Starting incremental Fock matrix formation  ***
    1    -806.2358174037996150     0.00e+00  1.64e-03  1.13e-01  3.67e-01  0.700   7.0
    2    -806.4300715846228513    -1.94e-01  1.32e-03  1.08e-01  1.59e-01  0.700   4.3
                               ***Turning on AO-DIIS***
    3    -806.5151974450815260    -8.51e-02  7.05e-04  1.85e-02  4.62e-02  0.700   5.5
    4    -806.5659033007972312    -5.07e-02  1.57e-03  5.10e-02  3.26e-02  0.000   4.2
    5    -806.6757059876589437    -1.10e-01  1.53e-04  1.48e-02  6.06e-03  0.000   4.3
                              *** Initializing SOSCF ***
---------------------------------------S-O-S-C-F--------------------------------------
Iteration    Energy (Eh)           Delta-E    RMSDP     MaxDP     MaxGrad    Time(sec)
--------------------------------------------------------------------------------------
    6    -806.6759970035030847    -2.91e-04  6.31e-05  6.77e-03  3.03e-03     4.0
               *** Restarting incremental Fock matrix formation ***
    7    -806.6759011581726782     9.58e-05  5.67e-05  1.95e-03  2.07e-04     7.4
    8    -806.6759024255999293    -1.27e-06  2.18e-05  1.17e-03  2.19e-04     4.9
    9    -806.6759050745555442    -2.65e-06  1.43e-05  5.41e-04  3.19e-05     5.0
   10    -806.6759051341272198    -5.96e-08  1.14e-06  5.21e-05  1.33e-05     4.4
                 **** Energy Check signals convergence ****

               *****************************************************
               *                     SUCCESS                       *
               *           SCF CONVERGED AFTER  10 CYCLES          *
               *****************************************************

Recomputing exchange energy using gridx3       ... done (    9.468 sec)
Old exchange energy                            :    -47.526548951 Eh
New exchange energy                            :    -47.526524480 Eh
Exchange energy change after final integration :      0.000024472 Eh
Total energy after final integration           :   -806.675880662 Eh
             **** ENERGY FILE WAS UPDATED (data/single_point_PO_M06-2x/74149/74149.en.tmp) ****

----------------
TOTAL SCF ENERGY
----------------

Total Energy       :       -806.67588066227586 Eh          -21950.76667 eV

Components:
Nuclear Repulsion  :        816.87096267437607 Eh           22228.18895 eV
Electronic Energy  :      -1623.54686780850329 Eh          -44178.95629 eV
One Electron Energy:      -2723.51123244745668 Eh          -74110.50834 eV
Two Electron Energy:       1099.96436463895338 Eh           29931.55205 eV

Virial components:
Potential Energy   :      -1609.59700542051087 Eh          -43799.36123 eV
Kinetic Energy     :        802.92112475823501 Eh           21848.59457 eV
Virial Ratio       :          2.00467636955644

DFT components:
N(Alpha)           :       48.999962998463 electrons
N(Beta)            :       48.999962998463 electrons
N(Total)           :       97.999925996926 electrons
E(XC)              :      -43.979348461332 Eh       

---------------
SCF CONVERGENCE
---------------

  Last Energy change         ...    5.9572e-08  Tolerance :   1.0000e-06
  Last MAX-Density change    ...    5.2124e-05  Tolerance :   1.0000e-05
  Last RMS-Density change    ...    1.1391e-06  Tolerance :   1.0000e-06
  Last DIIS Error            ...    3.0329e-03  Tolerance :   1.0000e-05
  Last Orbital Gradient      ...    1.3315e-05  Tolerance :   5.0000e-05
  Last Orbital Rotation      ...    2.6818e-05  Tolerance :   5.0000e-05


----------------
ORBITAL ENERGIES
----------------

  NO   OCC          E(Eh)            E(eV) 
   0   2.0000     -78.086812     -2124.8502 
   1   2.0000     -19.561024      -532.2825 
   2   2.0000     -10.565606      -287.5048 
   3   2.0000     -10.560724      -287.3719 
   4   2.0000     -10.559950      -287.3508 
   5   2.0000     -10.557570      -287.2861 
   6   2.0000     -10.556967      -287.2697 
   7   2.0000     -10.555640      -287.2336 
   8   2.0000     -10.552857      -287.1578 
   9   2.0000     -10.552792      -287.1561 
  10   2.0000     -10.537616      -286.7431 
  11   2.0000     -10.537605      -286.7428 
  12   2.0000      -6.893706      -187.5873 
  13   2.0000      -5.010862      -136.3525 
  14   2.0000      -5.010490      -136.3424 
  15   2.0000      -5.008982      -136.3013 
  16   2.0000      -1.056378       -28.7455 
  17   2.0000      -0.964107       -26.2347 
  18   2.0000      -0.882459       -24.0129 
  19   2.0000      -0.859483       -23.3877 
  20   2.0000      -0.849127       -23.1059 
  21   2.0000      -0.846816       -23.0430 
  22   2.0000      -0.746722       -20.3193 
  23   2.0000      -0.698199       -18.9990 
  24   2.0000      -0.697744       -18.9866 
  25   2.0000      -0.690866       -18.7994 
  26   2.0000      -0.622703       -16.9446 
  27   2.0000      -0.583333       -15.8733 
  28   2.0000      -0.535068       -14.5599 
  29   2.0000      -0.526023       -14.3138 
  30   2.0000      -0.524110       -14.2618 
  31   2.0000      -0.522954       -14.2303 
  32   2.0000      -0.518566       -14.1109 
  33   2.0000      -0.494452       -13.4547 
  34   2.0000      -0.480112       -13.0645 
  35   2.0000      -0.471412       -12.8278 
  36   2.0000      -0.454734       -12.3739 
  37   2.0000      -0.446560       -12.1515 
  38   2.0000      -0.433231       -11.7888 
  39   2.0000      -0.425829       -11.5874 
  40   2.0000      -0.416305       -11.3282 
  41   2.0000      -0.412933       -11.2365 
  42   2.0000      -0.403608       -10.9827 
  43   2.0000      -0.400982       -10.9113 
  44   2.0000      -0.396963       -10.8019 
  45   2.0000      -0.328404        -8.9363 
  46   2.0000      -0.328354        -8.9350 
  47   2.0000      -0.317438        -8.6379 
  48   2.0000      -0.315888        -8.5957 
  49   0.0000      -0.006180        -0.1682 
  50   0.0000       0.007335         0.1996 
  51   0.0000       0.050877         1.3844 
  52   0.0000       0.076751         2.0885 
  53   0.0000       0.084179         2.2906 
  54   0.0000       0.085146         2.3169 
  55   0.0000       0.092878         2.5273 
  56   0.0000       0.103108         2.8057 
  57   0.0000       0.111797         3.0421 
  58   0.0000       0.122551         3.3348 
  59   0.0000       0.125676         3.4198 
*Only the first 10 virtual orbitals were printed.

                    ********************************
                    * MULLIKEN POPULATION ANALYSIS *
                    ********************************

-----------------------
MULLIKEN ATOMIC CHARGES
-----------------------
   0 C :   -0.434338
   1 C :   -0.332512
   2 P :    0.631121
   3 O :   -0.608720
   4 C :   -0.333514
   5 C :   -0.433227
   6 C :   -0.161378
   7 C :   -0.119376
   8 C :   -0.137048
   9 C :   -0.135841
  10 C :   -0.155857
  11 C :   -0.163618
  12 H :    0.154440
  13 H :    0.145905
  14 H :    0.175945
  15 H :    0.155242
  16 H :    0.159455
  17 H :    0.159709
  18 H :    0.155406
  19 H :    0.175606
  20 H :    0.145965
  21 H :    0.154370
  22 H :    0.199130
  23 H :    0.150864
  24 H :    0.148836
  25 H :    0.147342
  26 H :    0.156092
Sum of atomic charges:   -0.0000000

--------------------------------
MULLIKEN REDUCED ORBITAL CHARGES
--------------------------------
  0 C s       :     3.322165  s :     3.322165
      pz      :     1.055656  p :     3.052875
      px      :     1.064289
      py      :     0.932930
      dz2     :     0.016526  d :     0.055893
      dxz     :     0.004335
      dyz     :     0.009835
      dx2y2   :     0.015158
      dxy     :     0.010039
      f0      :     0.000401  f :     0.003405
      f+1     :     0.000394
      f-1     :     0.000623
      f+2     :     0.000410
      f-2     :     0.000435
      f+3     :     0.000674
      f-3     :     0.000468

  1 C s       :     3.229907  s :     3.229907
      pz      :     1.000942  p :     3.029414
      px      :     1.069458
      py      :     0.959014
      dz2     :     0.019987  d :     0.069579
      dxz     :     0.005866
      dyz     :     0.012770
      dx2y2   :     0.016931
      dxy     :     0.014027
      f0      :     0.000330  f :     0.003611
      f+1     :     0.000389
      f-1     :     0.000785
      f+2     :     0.000474
      f-2     :     0.000425
      f+3     :     0.000639
      f-3     :     0.000569

  2 P s       :     5.314375  s :     5.314375
      pz      :     2.622371  p :     8.301224
      px      :     2.798568
      py      :     2.880286
      dz2     :     0.130372  d :     0.687613
      dxz     :     0.146600
      dyz     :     0.228122
      dx2y2   :     0.119016
      dxy     :     0.063504
      f0      :     0.011762  f :     0.065666
      f+1     :     0.012311
      f-1     :     0.016696
      f+2     :     0.006691
      f-2     :     0.008273
      f+3     :     0.003356
      f-3     :     0.006578

  3 O s       :     3.872464  s :     3.872464
      pz      :     1.397481  p :     4.710320
      px      :     1.647350
      py      :     1.665489
      dz2     :     0.009046  d :     0.024686
      dxz     :     0.007534
      dyz     :     0.006638
      dx2y2   :     0.000709
      dxy     :     0.000760
      f0      :     0.000442  f :     0.001249
      f+1     :     0.000371
      f-1     :     0.000283
      f+2     :     0.000074
      f-2     :     0.000071
      f+3     :     0.000004
      f-3     :     0.000004

  4 C s       :     3.230403  s :     3.230403
      pz      :     1.000625  p :     3.029889
      px      :     1.069480
      py      :     0.959784
      dz2     :     0.020771  d :     0.069611
      dxz     :     0.005783
      dyz     :     0.012134
      dx2y2   :     0.019344
      dxy     :     0.011578
      f0      :     0.000335  f :     0.003611
      f+1     :     0.000420
      f-1     :     0.000766
      f+2     :     0.000491
      f-2     :     0.000413
      f+3     :     0.000597
      f-3     :     0.000590

  5 C s       :     3.321363  s :     3.321363
      pz      :     1.051634  p :     3.052582
      px      :     1.057869
      py      :     0.943080
      dz2     :     0.017116  d :     0.055877
      dxz     :     0.004287
      dyz     :     0.009299
      dx2y2   :     0.017512
      dxy     :     0.007664
      f0      :     0.000405  f :     0.003404
      f+1     :     0.000422
      f-1     :     0.000604
      f+2     :     0.000443
      f-2     :     0.000406
      f+3     :     0.000643
      f-3     :     0.000480

  6 C s       :     3.268791  s :     3.268791
      pz      :     0.871104  p :     2.814431
      px      :     0.953725
      py      :     0.989602
      dz2     :     0.017966  d :     0.071083
      dxz     :     0.011177
      dyz     :     0.022105
      dx2y2   :     0.010233
      dxy     :     0.009602
      f0      :     0.001647  f :     0.007072
      f+1     :     0.000937
      f-1     :     0.001111
      f+2     :     0.001064
      f-2     :     0.000877
      f+3     :     0.000736
      f-3     :     0.000700

  7 C s       :     3.191494  s :     3.191494
      pz      :     1.005552  p :     2.858566
      px      :     0.935530
      py      :     0.917483
      dz2     :     0.011983  d :     0.062858
      dxz     :     0.019454
      dyz     :     0.008284
      dx2y2   :     0.005424
      dxy     :     0.017713
      f0      :     0.001244  f :     0.006458
      f+1     :     0.000919
      f-1     :     0.000548
      f+2     :     0.001273
      f-2     :     0.000413
      f+3     :     0.000787
      f-3     :     0.001274

  8 C s       :     3.225385  s :     3.225385
      pz      :     0.966357  p :     2.845894
      px      :     0.917467
      py      :     0.962070
      dz2     :     0.012410  d :     0.059533
      dxz     :     0.014937
      dyz     :     0.009277
      dx2y2   :     0.007219
      dxy     :     0.015689
      f0      :     0.001227  f :     0.006236
      f+1     :     0.000902
      f-1     :     0.000694
      f+2     :     0.001173
      f-2     :     0.000331
      f+3     :     0.000687
      f-3     :     0.001222

  9 C s       :     3.227341  s :     3.227341
      pz      :     0.880306  p :     2.840872
      px      :     1.009027
      py      :     0.951539
      dz2     :     0.012875  d :     0.061344
      dxz     :     0.014413
      dyz     :     0.021371
      dx2y2   :     0.007799
      dxy     :     0.004885
      f0      :     0.001477  f :     0.006285
      f+1     :     0.000962
      f-1     :     0.001026
      f+2     :     0.000842
      f-2     :     0.000880
      f+3     :     0.000730
      f-3     :     0.000368

 10 C s       :     3.231784  s :     3.231784
      pz      :     0.972680  p :     2.857696
      px      :     0.918772
      py      :     0.966244
      dz2     :     0.012547  d :     0.060064
      dxz     :     0.014965
      dyz     :     0.008602
      dx2y2   :     0.006960
      dxy     :     0.016989
      f0      :     0.001228  f :     0.006313
      f+1     :     0.000894
      f-1     :     0.000627
      f+2     :     0.001179
      f-2     :     0.000378
      f+3     :     0.000715
      f-3     :     0.001292

 11 C s       :     3.174689  s :     3.174689
      pz      :     0.952428  p :     2.915004
      px      :     0.996520
      py      :     0.966056
      dz2     :     0.013016  d :     0.067394
      dxz     :     0.020678
      dyz     :     0.008848
      dx2y2   :     0.006893
      dxy     :     0.017959
      f0      :     0.001292  f :     0.006531
      f+1     :     0.000935
      f-1     :     0.000651
      f+2     :     0.001231
      f-2     :     0.000356
      f+3     :     0.000766
      f-3     :     0.001300

 12 H s       :     0.827089  s :     0.827089
      pz      :     0.003572  p :     0.018472
      px      :     0.011369
      py      :     0.003531

 13 H s       :     0.835646  s :     0.835646
      pz      :     0.005008  p :     0.018449
      px      :     0.004710
      py      :     0.008730

 14 H s       :     0.805101  s :     0.805101
      pz      :     0.011331  p :     0.018954
      px      :     0.004243
      py      :     0.003380

 15 H s       :     0.825237  s :     0.825237
      pz      :     0.011097  p :     0.019521
      px      :     0.004516
      py      :     0.003908

 16 H s       :     0.820867  s :     0.820867
      pz      :     0.003731  p :     0.019678
      px      :     0.011944
      py      :     0.004003

 17 H s       :     0.820619  s :     0.820619
      pz      :     0.003712  p :     0.019671
      px      :     0.012006
      py      :     0.003953

 18 H s       :     0.825070  s :     0.825070
      pz      :     0.011108  p :     0.019524
      px      :     0.004456
      py      :     0.003960

 19 H s       :     0.805436  s :     0.805436
      pz      :     0.011345  p :     0.018958
      px      :     0.004232
      py      :     0.003382

 20 H s       :     0.835585  s :     0.835585
      pz      :     0.004856  p :     0.018450
      px      :     0.004350
      py      :     0.009244

 21 H s       :     0.827158  s :     0.827158
      pz      :     0.003568  p :     0.018472
      px      :     0.011516
      py      :     0.003388

 22 H s       :     0.780021  s :     0.780021
      pz      :     0.010827  p :     0.020849
      px      :     0.006546
      py      :     0.003475

 23 H s       :     0.829409  s :     0.829409
      pz      :     0.010450  p :     0.019727
      px      :     0.005501
      py      :     0.003775

 24 H s       :     0.831511  s :     0.831511
      pz      :     0.002666  p :     0.019653
      px      :     0.013230
      py      :     0.003757

 25 H s       :     0.832950  s :     0.832950
      pz      :     0.010760  p :     0.019707
      px      :     0.005112
      py      :     0.003835

 26 H s       :     0.824275  s :     0.824275
      pz      :     0.010409  p :     0.019633
      px      :     0.005364
      py      :     0.003860



                     *******************************
                     * LOEWDIN POPULATION ANALYSIS *
                     *******************************

----------------------
LOEWDIN ATOMIC CHARGES
----------------------
   0 C :   -0.334981
   1 C :   -0.394163
   2 P :    0.605506
   3 O :   -0.323170
   4 C :   -0.394107
   5 C :   -0.334951
   6 C :   -0.239805
   7 C :   -0.119449
   8 C :   -0.135941
   9 C :   -0.133535
  10 C :   -0.142045
  11 C :   -0.140260
  12 H :    0.127263
  13 H :    0.123324
  14 H :    0.134800
  15 H :    0.136804
  16 H :    0.143231
  17 H :    0.143247
  18 H :    0.136806
  19 H :    0.134790
  20 H :    0.123317
  21 H :    0.127281
  22 H :    0.162838
  23 H :    0.149528
  24 H :    0.148588
  25 H :    0.148342
  26 H :    0.146741

-------------------------------
LOEWDIN REDUCED ORBITAL CHARGES
-------------------------------
  0 C s       :     2.844808  s :     2.844808
      pz      :     1.082551  p :     3.202746
      px      :     1.078288
      py      :     1.041906
      dz2     :     0.065601  d :     0.262771
      dxz     :     0.020575
      dyz     :     0.054964
      dx2y2   :     0.072967
      dxy     :     0.048664
      f0      :     0.002432  f :     0.024656
      f+1     :     0.002978
      f-1     :     0.003998
      f+2     :     0.002997
      f-2     :     0.004519
      f+3     :     0.004843
      f-3     :     0.002889

  1 C s       :     2.844315  s :     2.844315
      pz      :     1.062914  p :     3.202030
      px      :     1.057326
      py      :     1.081790
      dz2     :     0.075098  d :     0.320992
      dxz     :     0.029719
      dyz     :     0.072154
      dx2y2   :     0.086954
      dxy     :     0.057067
      f0      :     0.002362  f :     0.026825
      f+1     :     0.003207
      f-1     :     0.005167
      f+2     :     0.003224
      f-2     :     0.004368
      f+3     :     0.004998
      f-3     :     0.003500

  2 P s       :     4.663671  s :     4.663671
      pz      :     2.741667  p :     8.310026
      px      :     2.770093
      py      :     2.798267
      dz2     :     0.267394  d :     1.197834
      dxz     :     0.236688
      dyz     :     0.357534
      dx2y2   :     0.213815
      dxy     :     0.122403
      f0      :     0.046369  f :     0.222961
      f+1     :     0.043354
      f-1     :     0.050491
      f+2     :     0.024003
      f-2     :     0.026325
      f+3     :     0.012182
      f-3     :     0.020237

  3 O s       :     3.541860  s :     3.541860
      pz      :     1.538596  p :     4.737493
      px      :     1.595476
      py      :     1.603421
      dz2     :     0.021045  d :     0.041726
      dxz     :     0.011447
      dyz     :     0.007576
      dx2y2   :     0.000928
      dxy     :     0.000729
      f0      :     0.000847  f :     0.002091
      f+1     :     0.000643
      f-1     :     0.000373
      f+2     :     0.000145
      f-2     :     0.000070
      f+3     :     0.000007
      f-3     :     0.000005

  4 C s       :     2.844268  s :     2.844268
      pz      :     1.062067  p :     3.202015
      px      :     1.056237
      py      :     1.083711
      dz2     :     0.077222  d :     0.320998
      dxz     :     0.029423
      dyz     :     0.070551
      dx2y2   :     0.093670
      dxy     :     0.050131
      f0      :     0.002378  f :     0.026827
      f+1     :     0.003449
      f-1     :     0.004994
      f+2     :     0.003339
      f-2     :     0.004311
      f+3     :     0.004694
      f-3     :     0.003662

  5 C s       :     2.844800  s :     2.844800
      pz      :     1.081924  p :     3.202730
      px      :     1.077193
      py      :     1.043613
      dz2     :     0.067762  d :     0.262767
      dxz     :     0.021202
      dyz     :     0.052835
      dx2y2   :     0.080212
      dxy     :     0.040757
      f0      :     0.002434  f :     0.024653
      f+1     :     0.003281
      f-1     :     0.003784
      f+2     :     0.003170
      f-2     :     0.004432
      f+3     :     0.004638
      f-3     :     0.002914

  6 C s       :     2.773502  s :     2.773502
      pz      :     1.066718  p :     2.991100
      px      :     1.040237
      py      :     0.884145
      dz2     :     0.143009  d :     0.431499
      dxz     :     0.115502
      dyz     :     0.078304
      dx2y2   :     0.064537
      dxy     :     0.030146
      f0      :     0.012651  f :     0.043705
      f+1     :     0.007983
      f-1     :     0.003366
      f+2     :     0.008441
      f-2     :     0.007040
      f+3     :     0.002489
      f-3     :     0.001735

  7 C s       :     2.777252  s :     2.777252
      pz      :     1.017662  p :     2.921882
      px      :     1.047778
      py      :     0.856442
      dz2     :     0.088770  d :     0.379357
      dxz     :     0.148113
      dyz     :     0.026947
      dx2y2   :     0.054818
      dxy     :     0.060709
      f0      :     0.010000  f :     0.040957
      f+1     :     0.006591
      f-1     :     0.003390
      f+2     :     0.008502
      f-2     :     0.003129
      f+3     :     0.004709
      f-3     :     0.004636

  8 C s       :     2.778417  s :     2.778417
      pz      :     1.013917  p :     2.944860
      px      :     1.048059
      py      :     0.882884
      dz2     :     0.086718  d :     0.372285
      dxz     :     0.151626
      dyz     :     0.028379
      dx2y2   :     0.050767
      dxy     :     0.054795
      f0      :     0.010284  f :     0.040379
      f+1     :     0.006595
      f-1     :     0.003776
      f+2     :     0.008117
      f-2     :     0.002448
      f+3     :     0.004677
      f-3     :     0.004483

  9 C s       :     2.779572  s :     2.779572
      pz      :     1.069792  p :     2.939609
      px      :     0.994303
      py      :     0.875515
      dz2     :     0.136455  d :     0.373941
      dxz     :     0.099974
      dyz     :     0.075422
      dx2y2   :     0.050214
      dxy     :     0.011876
      f0      :     0.011788  f :     0.040414
      f+1     :     0.007748
      f-1     :     0.003470
      f+2     :     0.007344
      f-2     :     0.007055
      f+3     :     0.002524
      f-3     :     0.000486

 10 C s       :     2.778192  s :     2.778192
      pz      :     1.011388  p :     2.949631
      px      :     1.048506
      py      :     0.889737
      dz2     :     0.090292  d :     0.373688
      dxz     :     0.144070
      dyz     :     0.026173
      dx2y2   :     0.052928
      dxy     :     0.060224
      f0      :     0.010006  f :     0.040534
      f+1     :     0.006557
      f-1     :     0.003437
      f+2     :     0.008218
      f-2     :     0.002884
      f+3     :     0.004777
      f-3     :     0.004656

 11 C s       :     2.774718  s :     2.774718
      pz      :     1.007552  p :     2.941176
      px      :     1.046667
      py      :     0.886958
      dz2     :     0.088909  d :     0.383467
      dxz     :     0.153379
      dyz     :     0.029944
      dx2y2   :     0.051527
      dxy     :     0.059708
      f0      :     0.010333  f :     0.040898
      f+1     :     0.006545
      f-1     :     0.003916
      f+2     :     0.008180
      f-2     :     0.002601
      f+3     :     0.004657
      f-3     :     0.004666

 12 H s       :     0.814217  s :     0.814217
      pz      :     0.012258  p :     0.058520
      px      :     0.034589
      py      :     0.011673

 13 H s       :     0.818498  s :     0.818498
      pz      :     0.017388  p :     0.058179
      px      :     0.016091
      py      :     0.024700

 14 H s       :     0.805743  s :     0.805743
      pz      :     0.033566  p :     0.059457
      px      :     0.014662
      py      :     0.011228

 15 H s       :     0.804109  s :     0.804109
      pz      :     0.031018  p :     0.059087
      px      :     0.015249
      py      :     0.012820

 16 H s       :     0.797623  s :     0.797623
      pz      :     0.012215  p :     0.059146
      px      :     0.034018
      py      :     0.012913

 17 H s       :     0.797597  s :     0.797597
      pz      :     0.012177  p :     0.059156
      px      :     0.034142
      py      :     0.012837

 18 H s       :     0.804111  s :     0.804111
      pz      :     0.031025  p :     0.059084
      px      :     0.015106
      py      :     0.012953

 19 H s       :     0.805755  s :     0.805755
      pz      :     0.033550  p :     0.059455
      px      :     0.014632
      py      :     0.011273

 20 H s       :     0.818496  s :     0.818496
      pz      :     0.016918  p :     0.058187
      px      :     0.015032
      py      :     0.026236

 21 H s       :     0.814202  s :     0.814202
      pz      :     0.012237  p :     0.058516
      px      :     0.034844
      py      :     0.011436

 22 H s       :     0.778221  s :     0.778221
      pz      :     0.029376  p :     0.058941
      px      :     0.018431
      py      :     0.011134

 23 H s       :     0.794592  s :     0.794592
      pz      :     0.027723  p :     0.055880
      px      :     0.016310
      py      :     0.011847

 24 H s       :     0.795623  s :     0.795623
      pz      :     0.009882  p :     0.055789
      px      :     0.034152
      py      :     0.011755

 25 H s       :     0.795754  s :     0.795754
      pz      :     0.028456  p :     0.055903
      px      :     0.015417
      py      :     0.012031

 26 H s       :     0.797341  s :     0.797341
      pz      :     0.027603  p :     0.055918
      px      :     0.016068
      py      :     0.012247



                      *****************************
                      * MAYER POPULATION ANALYSIS *
                      *****************************

  NA   - Mulliken gross atomic population
  ZA   - Total nuclear charge
  QA   - Mulliken gross atomic charge
  VA   - Mayer's total valence
  BVA  - Mayer's bonded valence
  FA   - Mayer's free valence

  ATOM       NA         ZA         QA         VA         BVA        FA
  0 C      6.4343     6.0000    -0.4343     3.8313     3.8313    -0.0000
  1 C      6.3325     6.0000    -0.3325     3.7131     3.7131    -0.0000
  2 P     14.3689    15.0000     0.6311     4.8237     4.8237    -0.0000
  3 O      8.6087     8.0000    -0.6087     1.9711     1.9711    -0.0000
  4 C      6.3335     6.0000    -0.3335     3.7138     3.7138    -0.0000
  5 C      6.4332     6.0000    -0.4332     3.8304     3.8304    -0.0000
  6 C      6.1614     6.0000    -0.1614     3.7384     3.7384    -0.0000
  7 C      6.1194     6.0000    -0.1194     3.8898     3.8898    -0.0000
  8 C      6.1370     6.0000    -0.1370     3.9156     3.9156     0.0000
  9 C      6.1358     6.0000    -0.1358     3.9353     3.9353     0.0000
 10 C      6.1559     6.0000    -0.1559     4.0211     4.0211     0.0000
 11 C      6.1636     6.0000    -0.1636     3.9269     3.9269    -0.0000
 12 H      0.8456     1.0000     0.1544     0.9564     0.9564    -0.0000
 13 H      0.8541     1.0000     0.1459     0.9533     0.9533    -0.0000
 14 H      0.8241     1.0000     0.1759     0.9625     0.9625    -0.0000
 15 H      0.8448     1.0000     0.1552     0.9486     0.9486    -0.0000
 16 H      0.8405     1.0000     0.1595     0.9539     0.9539    -0.0000
 17 H      0.8403     1.0000     0.1597     0.9539     0.9539    -0.0000
 18 H      0.8446     1.0000     0.1554     0.9486     0.9486     0.0000
 19 H      0.8244     1.0000     0.1756     0.9627     0.9627     0.0000
 20 H      0.8540     1.0000     0.1460     0.9533     0.9533     0.0000
 21 H      0.8456     1.0000     0.1544     0.9566     0.9566    -0.0000
 22 H      0.8009     1.0000     0.1991     0.9726     0.9726    -0.0000
 23 H      0.8491     1.0000     0.1509     0.9650     0.9650     0.0000
 24 H      0.8512     1.0000     0.1488     0.9635     0.9635     0.0000
 25 H      0.8527     1.0000     0.1473     0.9654     0.9654     0.0000
 26 H      0.8439     1.0000     0.1561     0.9624     0.9624    -0.0000

  Mayer bond orders larger than 0.100000
B(  0-C ,  1-C ) :   0.9386 B(  0-C , 12-H ) :   0.9646 B(  0-C , 13-H ) :   0.9706 
B(  0-C , 14-H ) :   0.9632 B(  1-C ,  2-P ) :   0.9171 B(  1-C , 15-H ) :   0.9415 
B(  1-C , 16-H ) :   0.9403 B(  2-P ,  3-O ) :   1.9162 B(  2-P ,  4-C ) :   0.9172 
B(  2-P ,  6-C ) :   0.9105 B(  4-C ,  5-C ) :   0.9387 B(  4-C , 17-H ) :   0.9402 
B(  4-C , 18-H ) :   0.9415 B(  5-C , 19-H ) :   0.9631 B(  5-C , 20-H ) :   0.9706 
B(  5-C , 21-H ) :   0.9645 B(  6-C ,  7-C ) :   1.3952 B(  6-C , 11-C ) :   1.3549 
B(  7-C ,  8-C ) :   1.4269 B(  7-C , 22-H ) :   0.9075 B(  8-C ,  9-C ) :   1.4380 
B(  8-C , 23-H ) :   0.9476 B(  9-C , 10-C ) :   1.4371 B(  9-C , 24-H ) :   0.9460 
B( 10-C , 11-C ) :   1.5030 B( 10-C , 25-H ) :   0.9458 B( 11-C , 26-H ) :   0.9161 


-------
TIMINGS
-------

Total SCF time: 0 days 0 hours 1 min 0 sec 

Total time                  ....      60.910 sec
Sum of individual times     ....      60.891 sec  (100.0%)

SCF preparation             ....       0.220 sec  (  0.4%)
Fock matrix formation       ....      59.268 sec  ( 97.3%)
  Startup                   ....       0.062 sec  (  0.1% of F)
  Split-RI-J                ....       4.254 sec  (  7.2% of F)
  Chain of spheres X        ....      39.417 sec  ( 66.5% of F)
  XC integration            ....      15.351 sec  ( 25.9% of F)
    Basis function eval.    ....       2.218 sec  ( 14.4% of XC)
    Density eval.           ....       6.297 sec  ( 41.0% of XC)
    XC-Functional eval.     ....       0.387 sec  (  2.5% of XC)
    XC-Potential eval.      ....       5.837 sec  ( 38.0% of XC)
Diagonalization             ....       0.000 sec  (  0.0%)
Density matrix formation    ....       0.152 sec  (  0.2%)
Total Energy calculation    ....       0.052 sec  (  0.1%)
Population analysis         ....       0.089 sec  (  0.1%)
Orbital Transformation      ....       0.145 sec  (  0.2%)
Orbital Orthonormalization  ....       0.000 sec  (  0.0%)
DIIS solution               ....       0.664 sec  (  1.1%)
SOSCF solution              ....       0.301 sec  (  0.5%)
Finished LeanSCF after  60.9 sec

Maximum memory used throughout the entire LEANSCF-calculation: 56.2 MB


-------------------------------------------------------------------------------
                          DFT DISPERSION CORRECTION                            
                                                                               
                              DFTD3 V3.1  Rev 1                                
                              USING zero damping                               
-------------------------------------------------------------------------------
The M062X functional is recognized
Active option DFTDOPT                   ...         3   

molecular C6(AA) [au] = 7948.650897 


            DFT-D V3
 parameters
 s6 scaling factor         :     1.0000 
 rs6 scaling factor        :     1.6190 
 s8 scaling factor         :     0.0000 
 rs8 scaling factor        :     1.0000 
 Damping factor alpha6     :    14.0000 
 Damping factor alpha8     :    16.0000 
 ad hoc parameters k1-k3   :    16.0000     1.3333    -4.0000 

 Edisp/kcal,au: -0.830324763709  -0.001323206596 
 E6   /kcal   :  -0.830324764 
 E8   /kcal   :  -0.000000000 
 % E8         :   0.000000000 

-------------------------   ----------------
Dispersion correction           -0.001323207
-------------------------   ----------------


-------------------------   --------------------
FINAL SINGLE POINT ENERGY      -806.677203868872
-------------------------   --------------------



           ************************************************************
           *        Program running with 6 parallel MPI-processes     *
           *              working on a common directory               *
           ************************************************************

------------------------------------------------------------------------------
                              ORCA PROPERTY CALCULATIONS
------------------------------------------------------------------------------

GBWName                                 ... data/single_point_PO_M06-2x/74149/74149.gbw
Number of atoms                         ...     27
Number of basis functions               ...    468
Max core memory                         ...   1024 MB

Electric properties:
Dipole moment                           ... YES
Quadrupole moment                       ...  NO
Static polarizability (Dipole/Dipole)   ...  NO
Static polarizability (Dipole/Quad.)    ...  NO
Static polarizability (Quad./Quad.)     ...  NO
Static polarizability (Velocity)        ...  NO

Atomic electric properties:
Dipole moment                           ...  NO
Quadrupole moment                       ...  NO
Static polarizability                   ...  NO

Choice of electric origin               ... Center of mass
Position of electric origin             ...     0.064485    -0.007503     0.359282

General magnetic properties:
Magnetizability                         ...  NO

EPR properties:
g-Tensor (aka g-matrix)                 ...  NO
Zero-Field splitting spin-orbit         ...  NO
Zero-field splitting spin-spin          ...  NO
Hyperfine couplings                     ...  NO (   0 nuclei)
Quadrupole couplings                    ...  NO (   0 nuclei)
Contact density                         ...  NO (   0 nuclei)

NMR properties:
Chemical shifts                         ...  NO (   0 nuclei)
Spin-rotation constants                 ...  NO (   0 nuclei)
Spin-spin couplings                     ...  NO (   0 nuclei,    0 pairs)

Choice of magnetic origin               ... GIAO
Position of magnetic origin             ...     0.000000     0.000000     0.000000

Properties with geometric perturbations:
SCF Hessian                             ...  NO
IR spectrum                             ...  NO
VCD spectrum                            ...  NO
X-ray spectroscopy properties:
SCF XES/XAS/RIXS spectra                ...  NO


-------------
DIPOLE MOMENT
-------------

Method             : SCF
Type of density    : Electron Density
Multiplicity       :   1
Irrep              :   0
Energy             :  -806.6758806622758584 Eh
Relativity type    : 
Basis              : AO
                                X                 Y                 Z
Electronic contribution:      3.051729787      -0.163695337       3.528242514
Nuclear contribution   :     -2.422548204       0.158615548      -5.027533033
                        -----------------------------------------
Total Dipole Moment    :      0.629181582      -0.005079790      -1.499290519
                        -----------------------------------------
Magnitude (a.u.)       :      1.625966583
Magnitude (Debye)      :      4.132878608



--------------------
Rotational spectrum 
--------------------
 
Rotational constants in cm-1:             0.036457             0.020734             0.017610 
Rotational constants in MHz :          1092.960049           621.582223           527.931915 

Dipole components along the rotational axes: 
x,y,z [a.u.] :    -0.651289     0.002542    -1.489827 
x,y,z [Debye]:    -1.655446     0.006461    -3.786838 

 

Dipole moment calculation done in   0.0 sec 

Maximum memory used throughout the entire PROP-calculation: 28.7 MB

--------------------------------
SUGGESTED CITATIONS FOR THIS RUN
--------------------------------

Below you find a list of papers that are relevant to this ORCA run
We neither can nor want to force you to cite these papers, but we appreciate if you do
You receive ORCA, which is the product of decades of hard work by many enthusiastic individuals, for free
The only thing we kindly ask in return is that you cite our papers,
We deeply appreciate it, if you show your appreciation for ORCA by not just citing the generic ORCA reference.

Please note that relegating all ORCA citations to the supporting information does *not* help us.
SI sections are not indexed - citations you put there will not count into any citation statistics
But we need these citations in order to attract the funding resources that allow us to do what we are doing

Therefore, if you are a happy ORCA user, please consider citing a few of the papers listed below in the main body of your paper

In addition to the list printed below, the program has created the file data/single_point_PO_M06-2x/74149/74149.bibtex that contains the list in bibtex format
You can import this file easily into all common literature databanks and citation aid programs


List of essential papers. We consider these as the minimum necessary citations

  1. Neese,F.
     Software update: the ORCA program system, version 5.0
     WIRES Comput. Molec. Sci., 2022 12(1)e1606
     doi.org/10.1002/wcms.1606

List of papers to cite with high priority. The work reported in these papers was absolutely
necessary for this run to complete.
Our perspective: the developers of density functionals and basis sets usually get cited in chemistry papers
Good! But without the algorithms to do something with them, the functionals or basis sets would not do anything.
Hence, in our opinion, the algorithm design and method developments papers are equally worthy of getting cited

  1. Neese,F.
     An improvement of the resolution of the identity approximation for the formation of the Coulomb matrix
     J. Comp. Chem., 2003 24(14)1740-1747
     doi.org/10.1002/jcc.10318
  2. Neese,F.; Wennmohs,F.; Hansen,A.; Becker,U.
     Efficient, approximate and parallel Hartree-Fock and hybrid DFT calculations. A 'chain-of-spheres' algorithm for the Hartree-Fock exchange
     Chem. Phys., 2009 356(1-3)98-109
     doi.org/10.1016/j.chemphys.2008.10.036
  3. Helmich-Paris,B.; de Souza,B.; Neese,F.; Izsák,R.
     An improved chain of spheres for exchange algorithm
     J. Chem. Phys., 2021 155 104109
     doi.org/doi: 10.1063/5.0058766.
  4. Neese,F.
     The SHARK Integral Generation and Digestion System
     J. Comp. Chem., 2022  1-16
     doi.org/10.1002/jcc.26942
  5. Grimme,S.; Antony,J.; Ehrlich,S.; Krieg,H.
     A consistent and accurate ab initio parametrization of density functional dispersion correction (DFT-D) for the 94 elements H-Pu
     J. Chem. Phys., 2010 132 154104-XXXX
     doi.org/10.1063/1.3382344

List of suggested additional citations. These are papers that are important in the 'surrounding' of 
of this run, or papers that preceded the highly important papers. If you like your results we are grateful for a citation.

  1. Izsak,R.; Neese,F.
     An overlap fitted chain of spheres exchange method
     J. Chem. Phys., 2011 135 144105
     doi.org/10.1063/1.3646921
  2. Izsak,R.; Hansen,A.; Neese,F.
     The resolution of identity and chain of spheres approximations for the LPNO-CCSD singles Fock term
     Molec. Phys., 2012 110 2413-2417
     doi.org/10.1080/00268976.2012.687466
  3. Neese,F.
     The ORCA program system
     WIRES Comput. Molec. Sci., 2012 2(1)73-78
     doi.org/10.1002/wcms.81
  4. Izsak,R.; Neese,F.; Klopper,W.
     Robust fitting techniques in the chain of spheres approximation to the Fock exchange: The role of the complementary space
     J. Chem. Phys., 2013 139 
     doi.org/10.1063/1.4819264
  5. Neese,F.
     Software update: the ORCA program system, version 4.0
     WIRES Comput. Molec. Sci., 2018 8(1)1-6
     doi.org/10.1002/wcms.1327
  6. Neese,F.; Wennmohs,F.; Becker,U.; Riplinger,C.
     The ORCA quantum chemistry program package
     J. Chem. Phys., 2020 152 Art. No. L224108
     doi.org/10.1063/5.0004608

List of optional additional citations

  1. Neese,F.
     Approximate second-order SCF convergence for spin unrestricted wavefunctions
     Chem. Phys. Lett., 2000 325(1-3)93-98
     doi.org/10.1016/s0009-2614(00)00662-x

Timings for individual modules:

Sum of individual times          ...       64.638 sec (=   1.077 min)
Startup calculation              ...        2.384 sec (=   0.040 min)   3.7 %
SCF iterations                   ...       62.039 sec (=   1.034 min)  96.0 %
Property calculations            ...        0.215 sec (=   0.004 min)   0.3 %
                             ****ORCA TERMINATED NORMALLY****
TOTAL RUN TIME: 0 days 0 hours 1 minutes 4 seconds 882 msec
