
                                 *****************
                                 * O   R   C   A *
                                 *****************

                                            #,                                       
                                            ###                                      
                                            ####                                     
                                            #####                                    
                                            ######                                   
                                           ########,                                 
                                     ,,################,,,,,                         
                               ,,#################################,,                 
                          ,,##########################################,,             
                       ,#########################################, ''#####,          
                    ,#############################################,,   '####,        
                  ,##################################################,,,,####,       
                ,###########''''           ''''###############################       
              ,#####''   ,,,,##########,,,,          '''####'''          '####       
            ,##' ,,,,###########################,,,                        '##       
           ' ,,###''''                  '''############,,,                           
         ,,##''                                '''############,,,,        ,,,,,,###''
      ,#''                                            '''#######################'''  
     '                                                          ''''####''''         
             ,#######,   #######,   ,#######,      ##                                
            ,#'     '#,  ##    ##  ,#'     '#,    #''#        ,####,   ,####,        
            ##       ##  ##   ,#'  ##            #'  '#       #'       #'  '#        
            ##       ##  #######   ##           ,######,      #####,   #    #        
            '#,     ,#'  ##    ##  '#,     ,#' ,#      #,     #,   #   #,  ,#        
             '#######'   ##     ##  '#######'  #'      '#     '####' # '####'        



                #########################################################
                #                        -***-                          #
                #          Department of theory and spectroscopy        #
                #                                                       #
                #                      Frank Neese                      #
                #                                                       #
                #     Directorship, Architecture, Infrastructure        #
                #                    SHARK, DRIVERS                     #
                #        Core code/Algorithms in most modules           #
                #                                                       #
                #        Max Planck Institute fuer Kohlenforschung      #
                #                Kaiser Wilhelm Platz 1                 #
                #                 D-45470 Muelheim/Ruhr                 #
                #                      Germany                          #
                #                                                       #
                #                  All rights reserved                  #
                #                        -***-                          #
                #########################################################


                         Program Version 6.0.0  -   RELEASE   -


 With contributions from (in alphabetic order):
   Daniel Aravena         : Magnetic Suceptibility
   Michael Atanasov       : Ab Initio Ligand Field Theory (pilot matlab implementation)
   Alexander A. Auer      : GIAO ZORA, VPT2 properties, NMR spectrum
   Ute Becker             : All parallelization in ORCA, NUMFREQ, NUMCALC
   Giovanni Bistoni       : ED, misc. LED, open-shell LED, HFLD
   Martin Brehm           : Molecular dynamics
   Dmytro Bykov           : pre 5.0 version of the SCF Hessian
   Marcos Casanova-Páez   : Triplet and SCS-CIS(D). UHF-(DLPNO)-IP/EA/STEOM-CCSD. UHF-CVS-IP/STEOM-CCSD
   Vijay G. Chilkuri      : MRCI spin determinant printing, contributions to CSF-ICE
   Pauline Colinet        : FMM embedding
   Dipayan Datta          : RHF DLPNO-CCSD density
   Achintya Kumar Dutta   : EOM-CC, STEOM-CC
   Nicolas Foglia         : Exact transition moments, OPA infrastructure, MCD improvements
   Dmitry Ganyushin       : Spin-Orbit,Spin-Spin,Magnetic field MRCI
   Miquel Garcia          : C-PCM and meta-GGA Hessian, CCSD/C-PCM, Gaussian charge scheme
   Tiago L. C. Gouveia    : GS-ROHF, GS-ROCIS
   Yang Guo               : DLPNO-NEVPT2, F12-NEVPT2, CIM, IAO-localization
   Andreas Hansen         : Spin unrestricted coupled pair/coupled cluster methods
   Ingolf Harden          : AUTO-CI MPn and infrastructure 
   Benjamin Helmich-Paris : MC-RPA, TRAH-(SCF,CASSCF), AVAS, COSX integrals, SCF dyn. polar.
   Lee Huntington         : MR-EOM, pCC
   Robert Izsak           : Overlap fitted RIJCOSX, COSX-SCS-MP3, EOM
   Riya Kayal             : Wick's Theorem for AUTO-CI, AUTO-CI UHF-CCSDT
   Emily Kempfer          : AUTO-CI, RHF CISDT and CCSDT
   Christian Kollmar      : KDIIS, OOCD, Brueckner-CCSD(T), CCSD density, CASPT2, CASPT2-K, improved NEVPT2
   Axel Koslowski         : Symmetry handling
   Simone Kossmann        : Meta GGA functionals, TD-DFT gradient, OOMP2, (MP2 Hessian; deprecated post 5.0)
   Lucas Lang             : DCDCAS
   Marvin Lechner         : AUTO-CI (C++ implementation), FIC-MRCC
   Spencer Leger          : CASSCF response
   Dagmar Lenk            : GEPOL surface, SMD, ORCA-2-JSON
   Dimitrios Liakos       : Extrapolation schemes; Compound Job, initial MDCI parallelization
   Dimitrios Manganas     : Further ROCIS development; embedding schemes. LFT, Crystal Embedding
   Dimitrios Pantazis     : SARC Basis sets
   Anastasios Papadopoulos: AUTO-CI, single reference methods and gradients
   Taras Petrenko         : pre 6.0 DFT Hessian and TD-DFT gradient, (ASA, deprecated), ECA, 1-Electron XAS/XES, NRVS
   Peter Pinski           : DLPNO-MP2, DLPNO-MP2 Gradient
   Christoph Reimann      : Effective Core Potentials
   Marius Retegan         : Local ZFS, SOC
   Christoph Riplinger    : Optimizer, TS searches, QM/MM, DLPNO-CCSD(T), (RO)-DLPNO pert. Triples
   Michael Roemelt        : Original ROCIS implementation
   Masaaki Saitow         : Open-shell DLPNO-CCSD energy and density
   Barbara Sandhoefer     : DKH picture change effects
   Kantharuban Sivalingam : CASSCF convergence/infrastructure, NEVPT2 and variants, FIC-MRCI
   Bernardo de Souza      : ESD, SOC TD-DFT
   Georgi Stoychev        : AutoAux, RI-MP2 NMR, DLPNO-MP2 response, X2C
   Van Anh Tran           : RI-MP2 g-tensors
   Willem Van den Heuvel  : Paramagnetic NMR
   Zikuan Wang            : NOTCH, Electric field optimization 
   Frank Wennmohs         : Technical directorship and infrastructure
   Hang Xu                : AUTO-CI-Response properties 


 We gratefully acknowledge several colleagues who have allowed us to
 interface, adapt or use parts of their codes:
   Stefan Grimme, W. Hujo, H. Kruse, P. Pracht,  : VdW corrections, initial TS optimization,
                  C. Bannwarth, S. Ehlert,         DFT functionals, gCP, sTDA/sTD-DF
                  L. Wittmann, M. Mueller
   Ed Valeev, F. Pavosevic, A. Kumar             : LibInt (2-el integral package), F12 methods
   Garnet Chan, S. Sharma, J. Yang, R. Olivares  : DMRG
   Ulf Ekstrom                                   : XCFun DFT Library
   Mihaly Kallay                                 : mrcc  (arbitrary order and MRCC methods)
   Frank Weinhold                                : gennbo (NPA and NBO analysis)
   Simon Mueller                                 : openCOSMO-RS
   Christopher J. Cramer and Donald G. Truhlar   : smd solvation model
   Lars Goerigk                                  : TD-DFT with DH, B97 family of functionals
   V. Asgeirsson, H. Jonsson                     : NEB implementation
   FAccTs GmbH                                   : IRC, NEB, NEB-TS, DLPNO-Multilevel, CI-OPT
                                                   MM, QMMM, 2- and 3-layer-ONIOM, Crystal-QMMM,
                                                   LR-CPCM, SF, NACMEs, symmetry and pop. for TD-DFT,
                                                   nearIR, NL-DFT gradient (VV10), updates on ESD,
                                                   ML-optimized integration grids, MBIS, APM,
                                                   GOAT, DOCKER, SOLVATOR, interface openCOSMO-RS
   S Lehtola, MJT Oliveira, MAL Marques          : LibXC Library
   Liviu Ungur et al                             : ANISO software


 Your calculation uses the libint2 library for the computation of 2-el integrals
 For citations please refer to: http://libint.valeyev.net

 Your ORCA version has been built with support for libXC version: 6.2.2
 For citations please refer to: https://libxc.gitlab.io

 This ORCA versions uses:
   CBLAS   interface :  Fast vector & matrix operations
   LAPACKE interface :  Fast linear algebra routines
   Shared memory     :  Shared parallel matrices


Your calculation utilizes the atom-pairwise dispersion correction
with the Becke-Johnson damping scheme (D3BJ)


Warning: RI is on but no J-basis has been assigned. Assigning Def2/J (nothing to worry about!)
================================================================================

----- Orbital basis set information -----
Your calculation utilizes the basis: def2-SVP
   F. Weigend and R. Ahlrichs, Phys. Chem. Chem. Phys. 7, 3297 (2005).

----- AuxJ basis set information -----
Your calculation utilizes the auxiliary basis: def2/J
   F. Weigend, Phys. Chem. Chem. Phys. 8, 1057 (2006).

================================================================================
                                        WARNINGS
                       Please study these warnings very carefully!
================================================================================


WARNING: Geometry Optimization
  ===> : Switching off AutoStart
         For restart on a previous wavefunction, please use MOREAD

================================================================================
                                       INPUT FILE
================================================================================
NAME = data/geom_opt_PO_BP86/77831/77831.inp
|  1> ! RI BP86 def2-SVP D3BJ TIGHTSCF Opt
|  2> %pal
|  3> nprocs 6
|  4> end
|  5> 
|  6> * xyz 0 1
|  7> C      7.223109    1.674506    0.720642
|  8> C      5.873663    1.151122    0.253295
|  9> C      4.796687    1.354634    1.320138
| 10> C      3.398233    0.929705    0.859574
| 11> C      3.288263   -0.566450    0.574372
| 12> C      1.849329   -1.048452    0.409555
| 13> P      0.973617   -0.494155   -1.049102
| 14> O      1.863609   -0.481447   -2.263613
| 15> C     -0.411023   -1.617365   -1.301502
| 16> C     -1.058976   -2.211581   -0.055588
| 17> C     -2.320649   -3.002924   -0.404099
| 18> C     -2.960198   -3.604338    0.849914
| 19> C     -4.168412   -4.491931    0.547270
| 20> C     -5.346086   -3.734765   -0.044466
| 21> C      0.269824    1.134352   -0.769298
| 22> C     -0.621413    1.321916    0.449666
| 23> C     -1.011222    2.782870    0.700385
| 24> C     -1.793884    3.463521   -0.427839
| 25> C     -3.122172    2.775624   -0.746649
| 26> C     -3.911671    3.550678   -1.790538
| 27> H      7.554702    1.152091    1.623945
| 28> H      7.978447    1.522575   -0.056505
| 29> H      7.173104    2.745108    0.941648
| 30> H      5.975787    0.087717    0.011841
| 31> H      5.586583    1.670127   -0.668308
| 32> H      4.759199    2.416692    1.593812
| 33> H      5.066888    0.804626    2.230343
| 34> H      2.681027    1.206694    1.641177
| 35> H      3.135642    1.498217   -0.037477
| 36> H      3.853246   -0.813485   -0.330481
| 37> H      3.743142   -1.125248    1.401348
| 38> H      1.894964   -2.142409    0.345494
| 39> H      1.273563   -0.822809    1.312065
| 40> H     -0.045562   -2.443030   -1.922910
| 41> H     -1.161032   -1.088396   -1.899642
| 42> H     -0.343597   -2.871379    0.446720
| 43> H     -1.305003   -1.424481    0.660190
| 44> H     -2.068226   -3.803868   -1.110120
| 45> H     -3.032882   -2.338285   -0.905807
| 46> H     -3.256886   -2.801392    1.536126
| 47> H     -2.213253   -4.210796    1.377602
| 48> H     -3.876689   -5.301612   -0.131226
| 49> H     -4.493299   -4.964452    1.481662
| 50> H     -5.112279   -3.339053   -1.036527
| 51> H     -6.206708   -4.402312   -0.148695
| 52> H     -5.641514   -2.901800    0.600105
| 53> H      1.090817    1.855742   -0.726995
| 54> H     -0.300521    1.380326   -1.672045
| 55> H     -0.103123    0.953105    1.340111
| 56> H     -1.524451    0.715646    0.345741
| 57> H     -1.605079    2.829705    1.622122
| 58> H     -0.101690    3.366366    0.890866
| 59> H     -1.177652    3.519472   -1.333200
| 60> H     -1.990977    4.500863   -0.126716
| 61> H     -3.722872    2.685480    0.166184
| 62> H     -2.946544    1.762415   -1.124548
| 63> H     -3.341309    3.650312   -2.719199
| 64> H     -4.846939    3.031831   -2.020660
| 65> H     -4.159650    4.554178   -1.430158
| 66> **                         ****END OF INPUT****
================================================================================

                       *****************************
                       * Geometry Optimization Run *
                       *****************************

Geometry optimization settings:
Update method            Update   .... BFGS
Choice of coordinates    CoordSys .... (2022) Redundant Internals
Initial Hessian          InHess   .... Almloef's Model
Max. no of cycles        MaxIter  .... 177

Convergence Tolerances:
Energy Change            TolE     ....  5.0000e-06 Eh
Max. Gradient            TolMAXG  ....  3.0000e-04 Eh/bohr
RMS Gradient             TolRMSG  ....  1.0000e-04 Eh/bohr
Max. Displacement        TolMAXD  ....  4.0000e-03 bohr
RMS Displacement         TolRMSD  ....  2.0000e-03 bohr
Strict Convergence                .... False

------------------------------------------------------------------------------
                        ORCA OPTIMIZATION COORDINATE SETUP
------------------------------------------------------------------------------

The optimization will be done in redundant internal coordinates (2022)
Making redundant internal coordinates   ...  (2022 redundants) done
Evaluating the initial hessian          ...  (Almloef) done
Evaluating the coordinates              ...  done
Calculating the B-matrix                .... done
Calculating the G-matrix                .... done
Diagonalizing the G-matrix              .... done
Small eigenvalue found = 1.042e-03
Small eigenvalue found = 1.199e-03
Small eigenvalue found = 1.996e-03
Small eigenvalue found = 4.034e-03
Small eigenvalue found = 5.080e-03
Small eigenvalue found = 7.532e-03
Small eigenvalue found = 9.049e-03
Small eigenvalue found = 1.299e-02
Small eigenvalue found = 1.478e-02
Small eigenvalue found = 2.036e-02
Small eigenvalue found = 2.336e-02
The first mode is                       ....  109
The number of degrees of freedom        ....  171

    -----------------------------------------------------------------
                    Redundant Internal Coordinates


    -----------------------------------------------------------------
         Definition                    Initial Value    Approx d2E/dq
    -----------------------------------------------------------------
      1. B(C   1,C   0)                  1.5210         0.386176   
      2. B(C   2,C   1)                  1.5295         0.374226   
      3. B(C   3,C   2)                  1.5324         0.370248   
      4. B(C   4,C   3)                  1.5271         0.377631   
      5. B(C   5,C   4)                  1.5264         0.378491   
      6. B(P   6,C   5)                  1.7894         0.484267   
      7. B(O   7,P   6)                  1.5058         1.229411   
      8. B(C   8,P   6)                  1.8007         0.464495   
      9. B(C   9,C   8)                  1.5249         0.380678   
     10. B(C  10,C   9)                  1.5295         0.374202   
     11. B(C  11,C  10)                  1.5308         0.372513   
     12. B(C  12,C  11)                  1.5294         0.374340   
     13. B(C  13,C  12)                  1.5200         0.387569   
     14. B(C  14,P   6)                  1.7960         0.472575   
     15. B(C  15,C  14)                  1.5216         0.385240   
     16. B(C  16,C  15)                  1.5327         0.369875   
     17. B(C  17,C  16)                  1.5326         0.370080   
     18. B(C  18,C  17)                  1.5294         0.374342   
     19. B(C  19,C  18)                  1.5211         0.386002   
     20. B(H  20,C   0)                  1.0949         0.353663   
     21. B(H  21,C   0)                  1.0943         0.354407   
     22. B(H  22,C   0)                  1.0943         0.354432   
     23. B(H  23,C   1)                  1.0952         0.353229   
     24. B(H  24,C   1)                  1.0960         0.352298   
     25. B(H  25,C   2)                  1.0974         0.350452   
     26. B(H  26,C   2)                  1.0973         0.350616   
     27. B(H  27,C   3)                  1.0964         0.351781   
     28. B(H  28,C   3)                  1.0940         0.354833   
     29. B(H  29,C   4)                  1.0950         0.353566   
     30. B(H  30,C   4)                  1.0968         0.351163   
     31. B(H  31,C   5)                  1.0968         0.351241   
     32. B(H  32,C   5)                  1.0941         0.354782   
     33. B(H  33,C   8)                  1.0961         0.352122   
     34. B(H  34,C   8)                  1.0955         0.352913   
     35. B(H  35,C   9)                  1.0952         0.353315   
     36. B(H  36,C   9)                  1.0920         0.357506   
     37. B(H  37,C  10)                  1.0971         0.350790   
     38. B(H  38,C  10)                  1.0958         0.352536   
     39. B(H  39,C  11)                  1.0971         0.350826   
     40. B(H  40,C  11)                  1.0973         0.350509   
     41. B(H  41,C  12)                  1.0959         0.352352   
     42. B(H  42,C  12)                  1.0963         0.351837   
     43. B(H  43,C  13)                  1.0934         0.355681   
     44. B(H  44,C  13)                  1.0941         0.354658   
     45. B(H  45,C  13)                  1.0939         0.355000   
     46. B(H  46,C  14)                  1.0937         0.355213   
     47. B(H  47,C  14)                  1.0958         0.352526   
     48. B(H  48,C  15)                  1.0943         0.354429   
     49. B(H  49,C  15)                  1.0926         0.356637   
     50. B(H  50,C  16)                  1.0975         0.350342   
     51. B(H  51,C  16)                  1.0973         0.350611   
     52. B(H  52,C  17)                  1.0966         0.351463   
     53. B(H  53,C  17)                  1.0980         0.349674   
     54. B(H  54,C  18)                  1.0965         0.351651   
     55. B(H  55,C  18)                  1.0956         0.352823   
     56. B(H  56,C  19)                  1.0944         0.354362   
     57. B(H  57,C  19)                  1.0940         0.354818   
     58. B(H  58,C  19)                  1.0947         0.353929   
     59. A(C   1,C   0,H  20)          110.9779         0.325126   
     60. A(H  21,C   0,H  22)          108.1066         0.289392   
     61. A(C   1,C   0,H  21)          110.2675         0.325239   
     62. A(C   1,C   0,H  22)          110.9877         0.325243   
     63. A(H  20,C   0,H  21)          108.0955         0.289293   
     64. A(H  20,C   0,H  22)          108.3013         0.289297   
     65. A(C   2,C   1,H  24)          109.8209         0.323247   
     66. A(H  23,C   1,H  24)          107.3876         0.288967   
     67. A(C   0,C   1,C   2)          111.3837         0.365528   
     68. A(C   2,C   1,H  23)          110.4024         0.323387   
     69. A(C   0,C   1,H  23)          108.6097         0.325061   
     70. A(C   0,C   1,H  24)          109.1371         0.324920   
     71. A(H  25,C   2,H  26)          106.6578         0.288394   
     72. A(C   1,C   2,H  26)          109.7859         0.322994   
     73. A(C   1,C   2,H  25)          109.0729         0.322969   
     74. A(C   3,C   2,H  25)          108.1882         0.322404   
     75. A(C   3,C   2,H  26)          109.5747         0.322428   
     76. A(C   1,C   2,C   3)          113.3307         0.362905   
     77. A(C   2,C   3,C   4)          113.1742         0.363467   
     78. A(C   4,C   3,H  28)          109.7986         0.324109   
     79. A(C   2,C   3,H  27)          108.2196         0.322604   
     80. A(H  27,C   3,H  28)          107.2326         0.289106   
     81. A(C   2,C   3,H  28)          108.7464         0.323061   
     82. A(C   4,C   3,H  27)          109.4854         0.323650   
     83. A(C   3,C   4,H  30)          109.1760         0.323557   
     84. A(C   5,C   4,H  29)          109.0219         0.324040   
     85. A(C   3,C   4,H  29)          109.7684         0.323919   
     86. A(C   5,C   4,H  30)          108.1484         0.323678   
     87. A(C   3,C   4,C   5)          113.4176         0.364838   
     88. A(H  29,C   4,H  30)          107.1050         0.288865   
     89. A(P   6,C   5,H  32)          110.5498         0.358848   
     90. A(H  31,C   5,H  32)          106.0093         0.289030   
     91. A(C   4,C   5,H  32)          109.9929         0.324223   
     92. A(P   6,C   5,H  31)          106.3633         0.358236   
     93. A(C   4,C   5,H  31)          106.3820         0.323689   
     94. A(C   4,C   5,P   6)          116.8430         0.405605   
     95. A(O   7,P   6,C  14)          110.4643         0.531979   
     96. A(C   5,P   6,C  14)          110.2223         0.450205   
     97. A(C   8,P   6,C  14)          106.6247         0.446813   
     98. A(O   7,P   6,C   8)          110.2857         0.530253   
     99. A(C   5,P   6,O   7)          111.7688         0.534436   
    100. A(C   5,P   6,C   8)          107.2990         0.448798   
    101. A(C   9,C   8,H  34)          110.0820         0.324248   
    102. A(C   9,C   8,H  33)          108.1408         0.324129   
    103. A(P   6,C   8,H  33)          107.0346         0.355859   
    104. A(P   6,C   8,H  34)          107.5650         0.355994   
    105. A(H  33,C   8,H  34)          106.4068         0.288904   
    106. A(P   6,C   8,C   9)          117.0833         0.403041   
    107. A(H  35,C   9,H  36)          106.3070         0.289644   
    108. A(C  10,C   9,H  36)          109.6598         0.324023   
    109. A(C   8,C   9,H  36)          110.5136         0.324938   
    110. A(C  10,C   9,H  35)          109.3673         0.323397   
    111. A(C   8,C   9,H  35)          109.3873         0.324309   
    112. A(C   8,C   9,C  10)          111.4658         0.364628   
    113. A(C   9,C  10,H  37)          109.5449         0.323017   
    114. A(C   9,C  10,C  11)          111.1760         0.363279   
    115. A(C  11,C  10,H  38)          109.9877         0.323040   
    116. A(C   9,C  10,H  38)          109.0663         0.323280   
    117. A(C  11,C  10,H  37)          109.6623         0.322777   
    118. A(H  37,C  10,H  38)          107.3199         0.288685   
    119. A(C  10,C  11,C  12)          113.3250         0.363302   
    120. A(H  39,C  11,H  40)          106.7250         0.288429   
    121. A(C  12,C  11,H  40)          108.1886         0.322994   
    122. A(C  10,C  11,H  40)          109.0673         0.322735   
    123. A(C  12,C  11,H  39)          109.5649         0.323042   
    124. A(C  10,C  11,H  39)          109.7449         0.322783   
    125. A(C  11,C  12,C  13)          113.5786         0.365773   
    126. A(H  41,C  12,H  42)          106.7453         0.288796   
    127. A(C  13,C  12,H  42)          108.4755         0.325042   
    128. A(C  11,C  12,H  42)          108.3958         0.323194   
    129. A(C  13,C  12,H  41)          109.4663         0.325120   
    130. A(C  11,C  12,H  41)          109.9371         0.323272   
    131. A(H  43,C  13,H  45)          108.4704         0.289627   
    132. A(C  12,C  13,H  45)          111.0495         0.325521   
    133. A(H  43,C  13,H  44)          107.6126         0.289584   
    134. A(H  44,C  13,H  45)          107.9558         0.289497   
    135. A(C  12,C  13,H  44)          110.0350         0.325469   
    136. A(C  12,C  13,H  43)          111.5824         0.325623   
    137. A(H  46,C  14,H  47)          105.9328         0.289250   
    138. A(P   6,C  14,H  47)          106.2096         0.356972   
    139. A(C  15,C  14,H  46)          109.1094         0.325231   
    140. A(P   6,C  14,H  46)          108.0554         0.357433   
    141. A(C  15,C  14,H  47)          109.1135         0.324825   
    142. A(P   6,C  14,C  15)          117.7810         0.405120   
    143. A(H  48,C  15,H  49)          106.3692         0.289676   
    144. A(C  16,C  15,H  49)          109.5274         0.323276   
    145. A(C  14,C  15,H  49)          109.8457         0.325445   
    146. A(C  16,C  15,H  48)          107.9746         0.322947   
    147. A(C  14,C  15,H  48)          109.4448         0.325112   
    148. A(C  14,C  15,C  16)          113.4219         0.364646   
    149. A(H  50,C  16,H  51)          106.2625         0.288380   
    150. A(C  17,C  16,H  51)          108.3569         0.322404   
    151. A(C  15,C  16,H  51)          108.9328         0.322375   
    152. A(C  17,C  16,H  50)          108.8440         0.322363   
    153. A(C  15,C  16,H  50)          108.4019         0.322334   
    154. A(C  15,C  16,C  17)          115.6451         0.362152   
    155. A(H  52,C  17,H  53)          106.2056         0.288403   
    156. A(C  18,C  17,H  53)          109.0381         0.322868   
    157. A(C  16,C  17,H  53)          108.0213         0.322262   
    158. A(C  18,C  17,H  52)          109.8092         0.323138   
    159. A(C  16,C  17,H  52)          110.0881         0.322532   
    160. A(C  16,C  17,C  18)          113.4046         0.362896   
    161. A(H  54,C  18,H  55)          107.3952         0.288832   
    162. A(C  19,C  18,H  55)          108.5252         0.324975   
    163. A(C  17,C  18,H  55)          110.4041         0.323343   
    164. A(C  19,C  18,H  54)          109.2007         0.324798   
    165. A(C  17,C  18,H  54)          109.8304         0.323166   
    166. A(C  17,C  18,C  19)          111.3860         0.365519   
    167. A(H  57,C  19,H  58)          108.0794         0.289380   
    168. A(H  56,C  19,H  58)          108.2979         0.289322   
    169. A(C  18,C  19,H  58)          111.0226         0.325143   
    170. A(H  56,C  19,H  57)          108.0732         0.289435   
    171. A(C  18,C  19,H  57)          110.2685         0.325277   
    172. A(C  18,C  19,H  56)          110.9921         0.325208   
    173. D(C   2,C   1,C   0,H  20)     60.4159         0.011867   
    174. D(H  23,C   1,C   0,H  21)     58.3685         0.011867   
    175. D(H  23,C   1,C   0,H  20)    -61.3797         0.011867   
    176. D(C   2,C   1,C   0,H  21)   -179.8359         0.011867   
    177. D(C   2,C   1,C   0,H  22)    -60.0675         0.011867   
    178. D(H  23,C   1,C   0,H  22)    178.1370         0.011867   
    179. D(H  25,C   2,C   1,H  24)    -65.5252         0.011180   
    180. D(C   3,C   2,C   1,H  24)     55.0590         0.011180   
    181. D(H  25,C   2,C   1,H  23)    176.2471         0.011180   
    182. D(C   3,C   2,C   1,H  23)    -63.1687         0.011180   
    183. D(C   3,C   2,C   1,C   0)    176.0813         0.011180   
    184. D(H  25,C   2,C   1,C   0)     55.4972         0.011180   
    185. D(C   4,C   3,C   2,H  25)   -174.5940         0.010958   
    186. D(C   4,C   3,C   2,H  26)    -58.6770         0.010958   
    187. D(C   4,C   3,C   2,C   1)     64.3222         0.010958   
    188. D(H  27,C   3,C   2,H  26)     62.8499         0.010958   
    189. D(H  27,C   3,C   2,H  25)    -53.0671         0.010958   
    190. D(H  27,C   3,C   2,C   1)   -174.1509         0.010958   
    191. D(H  29,C   4,C   3,H  28)     51.5114         0.011373   
    192. D(H  29,C   4,C   3,H  27)    168.9869         0.011373   
    193. D(H  29,C   4,C   3,C   2)    -70.2007         0.011373   
    194. D(C   5,C   4,C   3,H  28)    -70.7027         0.011373   
    195. D(C   5,C   4,C   3,C   2)    167.5852         0.011373   
    196. D(C   5,C   4,C   3,H  27)     46.7729         0.011373   
    197. D(H  31,C   5,C   4,H  30)    -51.3645         0.011422   
    198. D(H  31,C   5,C   4,H  29)     64.7653         0.011422   
    199. D(H  31,C   5,C   4,C   3)   -172.6069         0.011422   
    200. D(P   6,C   5,C   4,H  30)   -169.9118         0.011422   
    201. D(P   6,C   5,C   4,C   3)     68.8459         0.011422   
    202. D(P   6,C   5,C   4,H  29)    -53.7820         0.011422   
    203. D(O   7,P   6,C   5,C   4)     39.4096         0.004969   
    204. D(C   8,P   6,C   5,H  32)    -72.7726         0.004969   
    205. D(C   8,P   6,C   5,H  31)     41.8753         0.004969   
    206. D(C   8,P   6,C   5,C   4)    160.4327         0.004969   
    207. D(O   7,P   6,C   5,H  32)    166.2043         0.004969   
    208. D(O   7,P   6,C   5,H  31)    -79.1478         0.004969   
    209. D(H  33,C   8,P   6,C  14)    153.2605         0.004682   
    210. D(H  33,C   8,P   6,O   7)     33.3023         0.004682   
    211. D(H  33,C   8,P   6,C   5)    -88.6516         0.004682   
    212. D(C   9,C   8,P   6,O   7)    154.7970         0.004682   
    213. D(C   9,C   8,P   6,C  14)    -85.2448         0.004682   
    214. D(C   9,C   8,P   6,C   5)     32.8431         0.004682   
    215. D(H  35,C   9,C   8,H  34)    170.8039         0.011548   
    216. D(H  35,C   9,C   8,H  33)     54.9390         0.011548   
    217. D(H  35,C   9,C   8,P   6)    -65.9768         0.011548   
    218. D(C  10,C   9,C   8,H  33)    -66.1345         0.011548   
    219. D(C  10,C   9,C   8,P   6)    172.9496         0.011548   
    220. D(C  10,C   9,C   8,H  34)     49.7304         0.011548   
    221. D(H  37,C  10,C   9,H  36)   -179.0435         0.011179   
    222. D(H  37,C  10,C   9,H  35)    -62.8355         0.011179   
    223. D(H  37,C  10,C   9,C   8)     58.2497         0.011179   
    224. D(C  11,C  10,C   9,H  35)     58.5255         0.011179   
    225. D(C  11,C  10,C   9,H  36)    -57.6824         0.011179   
    226. D(C  11,C  10,C   9,C   8)    179.6108         0.011179   
    227. D(H  39,C  11,C  10,H  38)    -59.5101         0.011084   
    228. D(H  39,C  11,C  10,H  37)   -177.3088         0.011084   
    229. D(H  39,C  11,C  10,C   9)     61.3989         0.011084   
    230. D(C  12,C  11,C  10,H  38)     63.3253         0.011084   
    231. D(C  12,C  11,C  10,H  37)    -54.4734         0.011084   
    232. D(C  12,C  11,C  10,C   9)   -175.7657         0.011084   
    233. D(C  13,C  12,C  11,H  40)    173.4489         0.011187   
    234. D(C  13,C  12,C  11,H  39)     57.4570         0.011187   
    235. D(C  13,C  12,C  11,C  10)    -65.4778         0.011187   
    236. D(H  41,C  12,C  11,H  40)    -63.5196         0.011187   
    237. D(H  41,C  12,C  11,H  39)   -179.5115         0.011187   
    238. D(H  41,C  12,C  11,C  10)     57.5537         0.011187   
    239. D(H  44,C  13,C  12,H  42)    -54.0254         0.011949   
    240. D(H  44,C  13,C  12,H  41)     62.0968         0.011949   
    241. D(H  44,C  13,C  12,C  11)   -174.6136         0.011949   
    242. D(H  43,C  13,C  12,H  42)   -173.4056         0.011949   
    243. D(H  43,C  13,C  12,H  41)    -57.2834         0.011949   
    244. D(H  43,C  13,C  12,C  11)     66.0062         0.011949   
    245. D(H  46,C  14,P   6,C   8)   -173.6172         0.004797   
    246. D(H  46,C  14,P   6,O   7)    -53.7744         0.004797   
    247. D(H  46,C  14,P   6,C   5)     70.2339         0.004797   
    248. D(C  15,C  14,P   6,C   8)     62.2631         0.004797   
    249. D(C  15,C  14,P   6,O   7)   -177.8941         0.004797   
    250. D(C  15,C  14,P   6,C   5)    -53.8858         0.004797   
    251. D(H  48,C  15,C  14,H  47)    172.5770         0.011812   
    252. D(H  48,C  15,C  14,H  46)    -72.1118         0.011812   
    253. D(H  48,C  15,C  14,P   6)     51.4797         0.011812   
    254. D(C  16,C  15,C  14,H  47)    -66.7872         0.011812   
    255. D(C  16,C  15,C  14,H  46)     48.5240         0.011812   
    256. D(C  16,C  15,C  14,P   6)    172.1155         0.011812   
    257. D(H  50,C  16,C  15,H  49)     59.8498         0.010937   
    258. D(H  50,C  16,C  15,H  48)    -55.5816         0.010937   
    259. D(H  50,C  16,C  15,C  14)   -177.0445         0.010937   
    260. D(C  17,C  16,C  15,H  49)    -62.6514         0.010937   
    261. D(C  17,C  16,C  15,H  48)   -178.0828         0.010937   
    262. D(C  17,C  16,C  15,C  14)     60.4543         0.010937   
    263. D(H  52,C  17,C  16,H  51)     59.0985         0.010948   
    264. D(H  52,C  17,C  16,H  50)    174.2497         0.010948   
    265. D(H  52,C  17,C  16,C  15)    -63.4841         0.010948   
    266. D(C  18,C  17,C  16,H  51)   -177.4327         0.010948   
    267. D(C  18,C  17,C  16,H  50)    -62.2815         0.010948   
    268. D(C  18,C  17,C  16,C  15)     59.9848         0.010948   
    269. D(H  54,C  18,C  17,H  53)    -66.1441         0.011187   
    270. D(H  54,C  18,C  17,H  52)    177.8732         0.011187   
    271. D(H  54,C  18,C  17,C  16)     54.2517         0.011187   
    272. D(C  19,C  18,C  17,H  53)     54.9662         0.011187   
    273. D(C  19,C  18,C  17,H  52)    -61.0165         0.011187   
    274. D(C  19,C  18,C  17,C  16)    175.3620         0.011187   
    275. D(H  57,C  19,C  18,H  55)     57.0198         0.011857   
    276. D(H  57,C  19,C  18,H  54)    -59.7601         0.011857   
    277. D(H  57,C  19,C  18,C  17)    178.7625         0.011857   
    278. D(H  56,C  19,C  18,H  55)    -62.7104         0.011857   
    279. D(H  56,C  19,C  18,H  54)   -179.4903         0.011857   
    280. D(H  56,C  19,C  18,C  17)     59.0322         0.011857   
    -----------------------------------------------------------------

Number of atoms                         .... 59
Number of degrees of freedom            .... 280


         *************************************************************
         *                GEOMETRY OPTIMIZATION CYCLE   1            *
         *************************************************************
---------------------------------
CARTESIAN COORDINATES (ANGSTROEM)
---------------------------------
  C      7.223109    1.674506    0.720642
  C      5.873663    1.151122    0.253295
  C      4.796687    1.354634    1.320138
  C      3.398233    0.929705    0.859574
  C      3.288263   -0.566450    0.574372
  C      1.849329   -1.048452    0.409555
  P      0.973617   -0.494155   -1.049102
  O      1.863609   -0.481447   -2.263613
  C     -0.411023   -1.617365   -1.301502
  C     -1.058976   -2.211581   -0.055588
  C     -2.320649   -3.002924   -0.404099
  C     -2.960198   -3.604338    0.849914
  C     -4.168412   -4.491931    0.547270
  C     -5.346086   -3.734765   -0.044466
  C      0.269824    1.134352   -0.769298
  C     -0.621413    1.321916    0.449666
  C     -1.011222    2.782870    0.700385
  C     -1.793884    3.463521   -0.427839
  C     -3.122172    2.775624   -0.746649
  C     -3.911671    3.550678   -1.790538
  H      7.554702    1.152091    1.623945
  H      7.978447    1.522575   -0.056505
  H      7.173104    2.745108    0.941648
  H      5.975787    0.087717    0.011841
  H      5.586583    1.670127   -0.668308
  H      4.759199    2.416692    1.593812
  H      5.066888    0.804626    2.230343
  H      2.681027    1.206694    1.641177
  H      3.135642    1.498217   -0.037477
  H      3.853246   -0.813485   -0.330481
  H      3.743142   -1.125248    1.401348
  H      1.894964   -2.142409    0.345494
  H      1.273563   -0.822809    1.312065
  H     -0.045562   -2.443030   -1.922910
  H     -1.161032   -1.088396   -1.899642
  H     -0.343597   -2.871379    0.446720
  H     -1.305003   -1.424481    0.660190
  H     -2.068226   -3.803868   -1.110120
  H     -3.032882   -2.338285   -0.905807
  H     -3.256886   -2.801392    1.536126
  H     -2.213253   -4.210796    1.377602
  H     -3.876689   -5.301612   -0.131226
  H     -4.493299   -4.964452    1.481662
  H     -5.112279   -3.339053   -1.036527
  H     -6.206708   -4.402312   -0.148695
  H     -5.641514   -2.901800    0.600105
  H      1.090817    1.855742   -0.726995
  H     -0.300521    1.380326   -1.672045
  H     -0.103123    0.953105    1.340111
  H     -1.524451    0.715646    0.345741
  H     -1.605079    2.829705    1.622122
  H     -0.101690    3.366366    0.890866
  H     -1.177652    3.519472   -1.333200
  H     -1.990977    4.500863   -0.126716
  H     -3.722872    2.685480    0.166184
  H     -2.946544    1.762415   -1.124548
  H     -3.341309    3.650312   -2.719199
  H     -4.846939    3.031831   -2.020660
  H     -4.159650    4.554178   -1.430158

----------------------------
CARTESIAN COORDINATES (A.U.)
----------------------------
  NO LB      ZA    FRAG     MASS         X           Y           Z
   0 C     6.0000    0    12.011   13.649698    3.164358    1.361816
   1 C     6.0000    0    12.011   11.099614    2.175305    0.478658
   2 C     6.0000    0    12.011    9.064425    2.559887    2.494699
   3 C     6.0000    0    12.011    6.421730    1.756888    1.624359
   4 C     6.0000    0    12.011    6.213917   -1.070435    1.085406
   5 C     6.0000    0    12.011    3.494725   -1.981287    0.773947
   6 P    15.0000    0    30.974    1.839869   -0.933818   -1.982515
   7 O     8.0000    0    15.999    3.521711   -0.909803   -4.277609
   8 C     6.0000    0    12.011   -0.776721   -3.056377   -2.459482
   9 C     6.0000    0    12.011   -2.001175   -4.179282   -0.105046
  10 C     6.0000    0    12.011   -4.385391   -5.674704   -0.763636
  11 C     6.0000    0    12.011   -5.593964   -6.811212    1.606105
  12 C     6.0000    0    12.011   -7.877157   -8.488519    1.034190
  13 C     6.0000    0    12.011  -10.102638   -7.057683   -0.084029
  14 C     6.0000    0    12.011    0.509893    2.143615   -1.453763
  15 C     6.0000    0    12.011   -1.174300    2.498059    0.849746
  16 C     6.0000    0    12.011   -1.910933    5.258862    1.323536
  17 C     6.0000    0    12.011   -3.389949    6.545106   -0.808499
  18 C     6.0000    0    12.011   -5.900050    5.245169   -1.410962
  19 C     6.0000    0    12.011   -7.391987    6.709809   -3.383626
  20 H     1.0000    0     1.008   14.276318    2.177136    3.068811
  21 H     1.0000    0     1.008   15.077080    2.877250   -0.106779
  22 H     1.0000    0     1.008   13.555202    5.187502    1.779457
  23 H     1.0000    0     1.008   11.292601    0.165761    0.022376
  24 H     1.0000    0     1.008   10.557112    3.156083   -1.262919
  25 H     1.0000    0     1.008    8.993583    4.566886    3.011868
  26 H     1.0000    0     1.008    9.575031    1.520523    4.214737
  27 H     1.0000    0     1.008    5.066407    2.280321    3.101375
  28 H     1.0000    0     1.008    5.925505    2.831220   -0.070821
  29 H     1.0000    0     1.008    7.281580   -1.537264   -0.624519
  30 H     1.0000    0     1.008    7.073513   -2.126411    2.648164
  31 H     1.0000    0     1.008    3.580963   -4.048566    0.652889
  32 H     1.0000    0     1.008    2.406685   -1.554884    2.479444
  33 H     1.0000    0     1.008   -0.086100   -4.616658   -3.633773
  34 H     1.0000    0     1.008   -2.194033   -2.056770   -3.589803
  35 H     1.0000    0     1.008   -0.649304   -5.426120    0.844178
  36 H     1.0000    0     1.008   -2.466098   -2.691879    1.247578
  37 H     1.0000    0     1.008   -3.908381   -7.188269   -2.097823
  38 H     1.0000    0     1.008   -5.731316   -4.418718   -1.711727
  39 H     1.0000    0     1.008   -6.154623   -5.293864    2.902857
  40 H     1.0000    0     1.008   -4.182442   -7.957251    2.603291
  41 H     1.0000    0     1.008   -7.325881  -10.018595   -0.247981
  42 H     1.0000    0     1.008   -8.491105   -9.381455    2.799935
  43 H     1.0000    0     1.008   -9.660807   -6.309896   -1.958752
  44 H     1.0000    0     1.008  -11.728978   -8.319164   -0.280993
  45 H     1.0000    0     1.008  -10.660916   -5.483607    1.134034
  46 H     1.0000    0     1.008    2.061345    3.506844   -1.373821
  47 H     1.0000    0     1.008   -0.567902    2.608438   -3.159707
  48 H     1.0000    0     1.008   -0.194874    1.801107    2.532443
  49 H     1.0000    0     1.008   -2.880795    1.352375    0.653356
  50 H     1.0000    0     1.008   -3.033160    5.347367    3.065366
  51 H     1.0000    0     1.008   -0.192166    6.361510    1.683493
  52 H     1.0000    0     1.008   -2.225440    6.650838   -2.519383
  53 H     1.0000    0     1.008   -3.762401    8.505398   -0.239459
  54 H     1.0000    0     1.008   -7.035209    5.074822    0.314042
  55 H     1.0000    0     1.008   -5.568161    3.330482   -2.125088
  56 H     1.0000    0     1.008   -6.314159    6.898090   -5.138541
  57 H     1.0000    0     1.008   -9.159387    5.729330   -3.818494
  58 H     1.0000    0     1.008   -7.860599    8.606149   -2.702607

--------------------------------
INTERNAL COORDINATES (ANGSTROEM)
--------------------------------
 C      0   0   0     0.000000000000     0.00000000     0.00000000
 C      1   0   0     1.520969604161     0.00000000     0.00000000
 C      2   1   0     1.529525555644   111.38372493     0.00000000
 C      3   2   1     1.532435135088   113.33074879   176.08132702
 C      4   3   2     1.527060367415   113.17415515    64.32217425
 C      5   4   3     1.526440836668   113.41758863   167.58522646
 P      6   5   4     1.789356564467   116.84296872    68.84585575
 O      7   6   5     1.505750385173   111.76878411    39.40958392
 C      7   6   5     1.800703860633   107.29901283   160.43269086
 C      9   7   6     1.524872925939   117.08328389    32.84312278
 C     10   9   7     1.529543206222   111.46584675   172.94964708
 C     11  10   9     1.530774420666   111.17602705   179.61077434
 C     12  11  10     1.529442968594   113.32503702   184.23428994
 C     13  12  11     1.519989439282   113.57864796   294.52217654
 C      7   6   5     1.796009441599   110.22228877   276.15876962
 C     15   7   6     1.521629678194   117.78096182   306.11417488
 C     16  15   7     1.532709256042   113.42188235   172.11546795
 C     17  16  15     1.532558313481   115.64508056    60.45434530
 C     18  17  16     1.529441437144   113.40462929    59.98481503
 C     19  18  17     1.521092245144   111.38597527   175.36197909
 H      1   2   3     1.094909886558   110.97789577    60.41587321
 H      1   2   3     1.094338148204   110.26746523   180.16410393
 H      1   2   3     1.094318415483   110.98771483   299.93251416
 H      2   1   3     1.095244054774   108.60973422   238.20444440
 H      2   1   3     1.095962228379   109.13713057   121.42139780
 H      3   2   1     1.097392365466   109.07292919    55.49717290
 H      3   2   1     1.097265019259   109.78586759   298.96392755
 H      4   3   2     1.096362441060   108.21958331   185.84905724
 H      4   3   2     1.094011162661   108.74638963   302.02143568
 H      5   4   3     1.094984489901   109.76836139   289.79926397
 H      5   4   3     1.096840651153   109.17600970    46.92152680
 H      6   5   4     1.096780872734   106.38195435   187.39313910
 H      6   5   4     1.094050067549   109.99289309   301.77749641
 H      9   7   6     1.096098689539   107.03455490   271.34839670
 H      9   7   6     1.095487636919   107.56496489   157.34134715
 H     10   9   7     1.095177538716   109.38733704   294.02317806
 H     10   9   7     1.091967874991   110.51358373    50.73368247
 H     11  10   9     1.097130035368   109.54485961    58.24971605
 H     11  10   9     1.095779067091   109.06627686   301.05981392
 H     12  11  10     1.097102072372   109.74491239    61.39890406
 H     12  11  10     1.097348059703   109.06729651   304.81121759
 H     13  12  11     1.095920824013   109.93706629    57.55371658
 H     13  12  11     1.096319327511   108.39583023   173.88909811
 H     14  13  12     1.093361206516   111.58235789    66.00619010
 H     14  13  12     1.094144829780   110.03499880   185.38639979
 H     14  13  12     1.093883068911   111.04945920   304.85496256
 H     15   7   6     1.093719608473   108.05535131    70.23390507
 H     15   7   6     1.095786828589   106.20959090   183.52778633
 H     16  15   7     1.094320965643   109.44476642    51.47967122
 H     16  15   7     1.092630471829   109.84568387   295.04599309
 H     17  16  15     1.097478360080   108.40192075   182.95553532
 H     17  16  15     1.097268906149   108.93283771   298.17768783
 H     18  17  16     1.096608832969   110.08807210   296.51594825
 H     18  17  16     1.097997785399   108.02126282   180.95501388
 H     19  18  17     1.096462729246   109.83039305    54.25170470
 H     19  18  17     1.095557084896   110.40411783   296.00782350
 H     20  19  18     1.094372421948   110.99212436    59.03224270
 H     20  19  18     1.094022200925   110.26850202   178.76247423
 H     20  19  18     1.094705247471   111.02261671   298.52015155

---------------------------
INTERNAL COORDINATES (A.U.)
---------------------------
 C      0   0   0     0.000000000000     0.00000000     0.00000000
 C      1   0   0     2.874216009882     0.00000000     0.00000000
 C      2   1   0     2.890384415001   111.38372493     0.00000000
 C      3   2   1     2.895882723315   113.33074879   176.08132702
 C      4   3   2     2.885725884379   113.17415515    64.32217425
 C      5   4   3     2.884555140937   113.41758863   167.58522646
 P      6   5   4     3.381393862777   116.84296872    68.84585575
 O      7   6   5     2.845455854024   111.76878411    39.40958392
 C      7   6   5     3.402837144892   107.29901283   160.43269086
 C      9   7   6     2.881592219055   117.08328389    32.84312278
 C     10   9   7     2.890417769759   111.46584675   172.94964708
 C     11  10   9     2.892744427871   111.17602705   179.61077434
 C     12  11  10     2.890228348094   113.32503702   184.23428994
 C     13  12  11     2.872363766695   113.57864796   294.52217654
 C      7   6   5     3.393965978560   110.22228877   276.15876962
 C     15   7   6     2.875463369034   117.78096182   306.11417488
 C     16  15   7     2.896400736846   113.42188235   172.11546795
 C     17  16  15     2.896115496744   115.64508056    60.45434530
 C     18  17  16     2.890225454073   113.40462929    59.98481503
 C     19  18  17     2.874447767754   111.38597527   175.36197909
 H      1   2   3     2.069079826918   110.97789577    60.41587321
 H      1   2   3     2.067999398008   110.26746523   180.16410393
 H      1   2   3     2.067962108569   110.98771483   299.93251416
 H      2   1   3     2.069711313328   108.60973422   238.20444440
 H      2   1   3     2.071068464759   109.13713057   121.42139780
 H      3   2   1     2.073771032188   109.07292919    55.49717290
 H      3   2   1     2.073530382732   109.78586759   298.96392755
 H      4   3   2     2.071824757120   108.21958331   185.84905724
 H      4   3   2     2.067381484881   108.74638963   302.02143568
 H      5   4   3     2.069220806804   109.76836139   289.79926397
 H      5   4   3     2.072728443230   109.17600970    46.92152680
 H      6   5   4     2.072615478390   106.38195435   187.39313910
 H      6   5   4     2.067455004467   109.99289309   301.77749641
 H      9   7   6     2.071326338979   107.03455490   271.34839670
 H      9   7   6     2.070171616873   107.56496489   157.34134715
 H     10   9   7     2.069585616196   109.38733704   294.02317806
 H     10   9   7     2.063520230774   110.51358373    50.73368247
 H     11  10   9     2.073275300144   109.54485961    58.24971605
 H     11  10   9     2.070722340085   109.06627686   301.05981392
 H     12  11  10     2.073222457741   109.74491239    61.39890406
 H     12  11  10     2.073687306428   109.06729651   304.81121759
 H     13  12  11     2.070990221846   109.93706629    57.55371658
 H     13  12  11     2.071743284320   108.39583023   173.88909811
 H     14  13  12     2.066153245769   111.58235789    66.00619010
 H     14  13  12     2.067634079130   110.03499880   185.38639979
 H     14  13  12     2.067139422775   111.04945920   304.85496256
 H     15   7   6     2.066830527313   108.05535131    70.23390507
 H     15   7   6     2.070737007192   106.20959090   183.52778633
 H     16  15   7     2.067966927674   109.44476642    51.47967122
 H     16  15   7     2.064772357334   109.84568387   295.04599309
 H     17  16  15     2.073933538455   108.40192075   182.95553532
 H     17  16  15     2.073537727889   108.93283771   298.17768783
 H     18  17  16     2.072290370351   110.08807210   296.51594825
 H     18  17  16     2.074915110057   108.02126282   180.95501388
 H     19  18  17     2.072014274326   109.83039305    54.25170470
 H     19  18  17     2.070302854531   110.40411783   296.00782350
 H     20  19  18     2.068064165998   110.99212436    59.03224270
 H     20  19  18     2.067402344178   110.26850202   178.76247423
 H     20  19  18     2.068693115087   111.02261671   298.52015155

---------------------
BASIS SET INFORMATION
---------------------
There are 4 groups of distinct atoms

 Group   1 Type C   : 7s4p1d contracted to 3s2p1d pattern {511/31/1}
 Group   2 Type P   : 10s7p1d contracted to 4s3p1d pattern {5311/511/1}
 Group   3 Type O   : 7s4p1d contracted to 3s2p1d pattern {511/31/1}
 Group   4 Type H   : 4s1p contracted to 2s1p pattern {31/1}

Atom   0C    basis set group =>   1
Atom   1C    basis set group =>   1
Atom   2C    basis set group =>   1
Atom   3C    basis set group =>   1
Atom   4C    basis set group =>   1
Atom   5C    basis set group =>   1
Atom   6P    basis set group =>   2
Atom   7O    basis set group =>   3
Atom   8C    basis set group =>   1
Atom   9C    basis set group =>   1
Atom  10C    basis set group =>   1
Atom  11C    basis set group =>   1
Atom  12C    basis set group =>   1
Atom  13C    basis set group =>   1
Atom  14C    basis set group =>   1
Atom  15C    basis set group =>   1
Atom  16C    basis set group =>   1
Atom  17C    basis set group =>   1
Atom  18C    basis set group =>   1
Atom  19C    basis set group =>   1
Atom  20H    basis set group =>   4
Atom  21H    basis set group =>   4
Atom  22H    basis set group =>   4
Atom  23H    basis set group =>   4
Atom  24H    basis set group =>   4
Atom  25H    basis set group =>   4
Atom  26H    basis set group =>   4
Atom  27H    basis set group =>   4
Atom  28H    basis set group =>   4
Atom  29H    basis set group =>   4
Atom  30H    basis set group =>   4
Atom  31H    basis set group =>   4
Atom  32H    basis set group =>   4
Atom  33H    basis set group =>   4
Atom  34H    basis set group =>   4
Atom  35H    basis set group =>   4
Atom  36H    basis set group =>   4
Atom  37H    basis set group =>   4
Atom  38H    basis set group =>   4
Atom  39H    basis set group =>   4
Atom  40H    basis set group =>   4
Atom  41H    basis set group =>   4
Atom  42H    basis set group =>   4
Atom  43H    basis set group =>   4
Atom  44H    basis set group =>   4
Atom  45H    basis set group =>   4
Atom  46H    basis set group =>   4
Atom  47H    basis set group =>   4
Atom  48H    basis set group =>   4
Atom  49H    basis set group =>   4
Atom  50H    basis set group =>   4
Atom  51H    basis set group =>   4
Atom  52H    basis set group =>   4
Atom  53H    basis set group =>   4
Atom  54H    basis set group =>   4
Atom  55H    basis set group =>   4
Atom  56H    basis set group =>   4
Atom  57H    basis set group =>   4
Atom  58H    basis set group =>   4
---------------------------------
AUXILIARY/J BASIS SET INFORMATION
---------------------------------
There are 4 groups of distinct atoms

 Group   1 Type C   : 12s5p4d2f1g contracted to 6s4p3d1f1g pattern {711111/2111/211/2/1}
 Group   2 Type P   : 14s5p5d2f1g contracted to 8s4p3d1f1g pattern {71111111/2111/311/2/1}
 Group   3 Type O   : 12s5p4d2f1g contracted to 6s4p3d1f1g pattern {711111/2111/211/2/1}
 Group   4 Type H   : 5s2p1d contracted to 3s1p1d pattern {311/2/1}

Atom   0C    basis set group =>   1
Atom   1C    basis set group =>   1
Atom   2C    basis set group =>   1
Atom   3C    basis set group =>   1
Atom   4C    basis set group =>   1
Atom   5C    basis set group =>   1
Atom   6P    basis set group =>   2
Atom   7O    basis set group =>   3
Atom   8C    basis set group =>   1
Atom   9C    basis set group =>   1
Atom  10C    basis set group =>   1
Atom  11C    basis set group =>   1
Atom  12C    basis set group =>   1
Atom  13C    basis set group =>   1
Atom  14C    basis set group =>   1
Atom  15C    basis set group =>   1
Atom  16C    basis set group =>   1
Atom  17C    basis set group =>   1
Atom  18C    basis set group =>   1
Atom  19C    basis set group =>   1
Atom  20H    basis set group =>   4
Atom  21H    basis set group =>   4
Atom  22H    basis set group =>   4
Atom  23H    basis set group =>   4
Atom  24H    basis set group =>   4
Atom  25H    basis set group =>   4
Atom  26H    basis set group =>   4
Atom  27H    basis set group =>   4
Atom  28H    basis set group =>   4
Atom  29H    basis set group =>   4
Atom  30H    basis set group =>   4
Atom  31H    basis set group =>   4
Atom  32H    basis set group =>   4
Atom  33H    basis set group =>   4
Atom  34H    basis set group =>   4
Atom  35H    basis set group =>   4
Atom  36H    basis set group =>   4
Atom  37H    basis set group =>   4
Atom  38H    basis set group =>   4
Atom  39H    basis set group =>   4
Atom  40H    basis set group =>   4
Atom  41H    basis set group =>   4
Atom  42H    basis set group =>   4
Atom  43H    basis set group =>   4
Atom  44H    basis set group =>   4
Atom  45H    basis set group =>   4
Atom  46H    basis set group =>   4
Atom  47H    basis set group =>   4
Atom  48H    basis set group =>   4
Atom  49H    basis set group =>   4
Atom  50H    basis set group =>   4
Atom  51H    basis set group =>   4
Atom  52H    basis set group =>   4
Atom  53H    basis set group =>   4
Atom  54H    basis set group =>   4
Atom  55H    basis set group =>   4
Atom  56H    basis set group =>   4
Atom  57H    basis set group =>   4
Atom  58H    basis set group =>   4


           ************************************************************
           *        Program running with 6 parallel MPI-processes     *
           *              working on a common directory               *
           ************************************************************
------------------------------------------------------------------------------
                             ORCA STARTUP CALCULATIONS
                           -- RI-GTO INTEGRALS CHOSEN --
------------------------------------------------------------------------------
------------------------------------------------------------------------------
                   ___                                                        
                  /   \      - P O W E R E D   B Y -                         
                 /     \                                                     
                 |  |  |   _    _      __       _____    __    __             
                 |  |  |  | |  | |    /  \     |  _  \  |  |  /  |          
                  \  \/   | |  | |   /    \    | | | |  |  | /  /          
                 / \  \   | |__| |  /  /\  \   | |_| |  |  |/  /          
                |  |  |   |  __  | /  /__\  \  |    /   |      \           
                |  |  |   | |  | | |   __   |  |    \   |  |\   \          
                \     /   | |  | | |  |  |  |  | |\  \  |  | \   \       
                 \___/    |_|  |_| |__|  |__|  |_| \__\ |__|  \__/        
                                                                              
                      - O R C A' S   B I G   F R I E N D -                    
                                      &                                       
                       - I N T E G R A L  F E E D E R -                       
                                                                              
 v1 FN, 2020, v2 2021, v3 2022-2024                                           
------------------------------------------------------------------------------


----------------------
SHARK INTEGRAL PACKAGE
----------------------

Number of atoms                             ...     59
Number of basis functions                   ...    479
Number of shells                            ...    239
Maximum angular momentum                    ...      2
Integral batch strategy                     ... SHARK/LIBINT Hybrid
RI-J (if used) integral strategy            ... SPLIT-RIJ (Revised 2003 algorithm where possible)
Printlevel                                  ...      1
Contraction scheme used                     ... SEGMENTED contraction
Prescreening option                         ... SCHWARTZ
   Thresh                                   ... 2.500e-11
   Tcut                                     ... 2.500e-12
   Tpresel                                  ... 2.500e-12 
Coulomb Range Separation                    ... NOT USED
Exchange Range Separation                   ... NOT USED
Multipole approximations                    ... NOT USED
Finite Nucleus Model                        ... NOT USED
CABS basis                                  ... NOT available
Auxiliary Coulomb fitting basis             ... AVAILABLE
   # of basis functions in Aux-J            ...   1411
   # of shells in Aux-J                     ...    497
   Maximum angular momentum in Aux-J        ...      4
Auxiliary J/K fitting basis                 ... NOT available
Auxiliary Correlation fitting basis         ... NOT available
Auxiliary 'external' fitting basis          ... NOT available

Checking pre-screening integrals            ... done (  0.0 sec) Dimension = 239
Check shell pair data                       ... done (  0.0 sec)
Shell pair information
Shell pair cut-off parameter TPreSel        ...   2.5e-12
Total number of shell pairs                 ...     28680
Shell pairs after pre-screening             ...     18529
Total number of primitive shell pairs       ...     97848
Primitive shell pairs kept                  ...     40887
          la=0 lb=0:   6787 shell pairs
          la=1 lb=0:   7216 shell pairs
          la=1 lb=1:   1895 shell pairs
          la=2 lb=0:   1686 shell pairs
          la=2 lb=1:    844 shell pairs
          la=2 lb=2:    101 shell pairs

Calculating one electron integrals          ... done (  0.0 sec)
Calculating RI/J V-Matrix + Cholesky decomp.... done (  0.1 sec)
Calculating Nuclear repulsion               ... done (  0.0 sec) ENN=   1809.346951502722 Eh

Diagonalization of the overlap matrix:
Smallest eigenvalue                        ... 9.281e-04
Time for diagonalization                   ...    0.033 sec
Threshold for overlap eigenvalues          ... 1.000e-07
Number of eigenvalues below threshold      ... 0
Time for construction of square roots      ...    0.018 sec
Total time needed                          ...    0.054 sec

-------------------
DFT GRID GENERATION
-------------------

General Integration Accuracy     IntAcc      ... 4.388
Radial Grid Type                 RadialGrid  ... OptM3 with GC (2021)
Angular Grid (max. ang.)         AngularGrid ... 4 (Lebedev-302)
Angular grid pruning method      GridPruning ... 4 (adaptive)
Weight generation scheme         WeightScheme... mBecke (2022)
Basis function cutoff            BFCut       ... 1.0000e-11
Integration weight cutoff        WCut        ... 1.0000e-14
Partially contracted basis set               ... off
Rotationally invariant grid construction     ... off
Angular grids for H and He will be reduced by one unit

Total number of grid points                  ...   243665
Total number of batches                      ...     3840
Average number of points per batch           ...       63
Average number of grid points per atom       ...     4130
Initializing property integral containers    ... done (  0.0 sec)

SHARK setup successfully completed in   1.8 seconds

Maximum memory used throughout the entire STARTUP-calculation: 71.5 MB


           ************************************************************
           *        Program running with 6 parallel MPI-processes     *
           *              working on a common directory               *
           ************************************************************
-------------------------------------------------------------------------------
                                 ORCA GUESS
                   Start orbitals & Density for SCF / CASSCF
-------------------------------------------------------------------------------

------------
SCF SETTINGS
------------
Hamiltonian:
 Density Functional     Method          .... DFT(GTOs)
 Exchange Functional    Exchange        .... B88
   X-Alpha parameter    XAlpha          ....  0.666667
   Becke's b parameter  XBeta           ....  0.004200
 Correlation Functional Correlation     .... P86
 LDA part of GGA corr.  LDAOpt          .... PW91-LDA
 Gradients option       PostSCFGGA      .... off
   NL short-range parameter             ....  4.400000
 RI-approximation to the Coulomb term is turned on
   Number of AuxJ basis functions       .... 1411


General Settings:
 Integral files         IntName         .... data/geom_opt_PO_BP86/77831/77831
 Hartree-Fock type      HFTyp           .... RHF
 Total Charge           Charge          ....    0
 Multiplicity           Mult            ....    1
 Number of Electrons    NEL             ....  170
 Basis Dimension        Dim             ....  479
 Nuclear Repulsion      ENuc            ....   1809.3469515027 Eh

Convergence Acceleration:
 AO-DIIS                CNVDIIS         .... on
   Start iteration      DIISMaxIt       ....    12
   Startup error        DIISStart       ....  0.200000
   # of expansion vecs  DIISMaxEq       ....     5
   Bias factor          DIISBfac        ....   1.050
   Max. coefficient     DIISMaxC        ....  10.000
 MO-DIIS                CNVKDIIS        .... off
 Trust-Rad. Augm. Hess. CNVTRAH         .... auto
   Auto Start mean grad. ratio tolernc. ....  1.125000
   Auto Start start iteration           ....    50
   Auto Start num. interpolation iter.  ....    10
   Max. Number of Micro iterations      ....    24
   Max. Number of Macro iterations      .... Maxiter - #DIIS iter
   Number of Davidson start vectors     ....     2
   Converg. threshold    (grad. norm)   ....   1.000e-05
   Grad. Scal. Fac. for Micro threshold ....   0.100
   Minimum threshold for Micro iter.    ....   1.000e-02
   NR start threshold (gradient norm)   ....   1.000e-04
   Initial trust radius                 ....   0.400
   Minimum AH scaling param. (alpha)    ....   1.000
   Maximum AH scaling param. (alpha)    .... 1000.000
   Quad. conv. algorithm                .... NR
   White noise on init. David. guess    .... on
   Maximum white noise                  ....   0.010
   Pseudo random numbers                .... off
   Inactive MOs                         .... canonical
   Orbital update algorithm             .... Taylor
   Preconditioner                       .... Diag
   Full preconditioner red. dimension   ....   250
 SOSCF                  CNVSOSCF        .... on
   Start iteration      SOSCFMaxIt      ....   150
   Startup grad/error   SOSCFStart      ....  0.003300
   Hessian update       SOSCFHessUp     .... L-BFGS
 Level Shifting         CNVShift        .... on
   Level shift para.    LevelShift      ....    0.2500
   Turn off err/grad.   ShiftErr        ....    0.0010
 Zerner damping         CNVZerner       .... off
 Static damping         CNVDamp         .... on
   Fraction old density DampFac         ....    0.7000
   Max. Damping (<1)    DampMax         ....    0.9800
   Min. Damping (>=0)   DampMin         ....    0.0000
   Turn off err/grad.   DampErr         ....    0.1000

SCF Procedure:
 Maximum # iterations   MaxIter         ....   125
 SCF integral mode      SCFMode         .... Direct
   Integral package                     .... SHARK and LIBINT hybrid scheme
 Reset frequency        DirectResetFreq ....    20
 Integral Threshold     Thresh          ....  2.500e-11 Eh
 Primitive CutOff       TCut            ....  2.500e-12 Eh

Convergence Tolerance:
 Convergence Check Mode ConvCheckMode   .... Total+1el-Energy
 Convergence forced     ConvForced      .... 0
 Energy Change          TolE            ....  1.000e-08 Eh
 1-El. energy change                    ....  1.000e-05 Eh
 Orbital Gradient       TolG            ....  1.000e-05
 Orbital Rotation angle TolX            ....  1.000e-05
 DIIS Error             TolErr          ....  5.000e-07

------------------------------
INITIAL GUESS: MODEL POTENTIAL
------------------------------
Loading Hartree-Fock densities                     ... done
Calculating cut-offs                               ... done
Initializing the effective Hamiltonian             ... done
Setting up the integral package (SHARK)            ... done
Starting the Coulomb interaction                   ... done (   0.3 sec)
Making the grid                                    ... done (   0.4 sec)
Mapping shells                                     ... done
Starting the XC term evaluation                    ... done (   0.2 sec)
  promolecular density results
     # of electrons  =    169.980000086
     EX              =   -135.110993711
     EC              =     -6.209419684
     EX+EC           =   -141.320413395
Transforming the Hamiltonian                       ... done (   0.0 sec)
Diagonalizing the Hamiltonian                      ... done (   0.0 sec)
Back transforming the eigenvectors                 ... done (   0.0 sec)
Now organizing SCF variables                       ... done
                      ------------------
                      INITIAL GUESS DONE (   1.0 sec)
                      ------------------
             **** ENERGY FILE WAS UPDATED (data/geom_opt_PO_BP86/77831/77831.en.tmp) ****
Finished Guess after   1.1 sec
Maximum memory used throughout the entire GUESS-calculation: 39.1 MB


           ************************************************************
           *        Program running with 6 parallel MPI-processes     *
           *              working on a common directory               *
           ************************************************************

-------------------------------------------------------------------------------------------
                                      ORCA LEAN-SCF
                              memory conserving SCF solver
-------------------------------------------------------------------------------------------

----------------------------------------D-I-I-S--------------------------------------------
Iteration    Energy (Eh)           Delta-E    RMSDP     MaxDP     DIISErr   Damp  Time(sec)
-------------------------------------------------------------------------------------------
               ***  Starting incremental Fock matrix formation  ***
    1    -1124.6216928910469051     0.00e+00  3.09e-03  2.32e-01  3.42e-01  0.700   1.4
    2    -1124.9833260316343058    -3.62e-01  1.92e-03  1.34e-01  8.97e-02  0.700   1.5
                               ***Turning on AO-DIIS***
    3    -1125.1008510116878369    -1.18e-01  6.15e-04  2.53e-02  2.61e-02  0.700   1.3
    4    -1125.1745106217952070    -7.37e-02  9.74e-04  4.70e-02  8.66e-03  0.000   1.3
    5    -1125.3418975126699024    -1.67e-01  2.78e-04  1.60e-02  8.27e-03  0.000   1.9
                              *** Initializing SOSCF ***
---------------------------------------S-O-S-C-F--------------------------------------
Iteration    Energy (Eh)           Delta-E    RMSDP     MaxDP     MaxGrad    Time(sec)
--------------------------------------------------------------------------------------
    6    -1125.3436029781425987    -1.71e-03  9.62e-05  3.02e-03  1.93e-03     1.4
               *** Restarting incremental Fock matrix formation ***
    7    -1125.3437486394843745    -1.46e-04  1.03e-04  7.69e-03  3.48e-04     1.6
    8    -1125.3437365290585603     1.21e-05  5.56e-05  4.92e-03  7.78e-04     1.3
    9    -1125.3437637905115025    -2.73e-05  3.14e-05  1.50e-03  1.86e-04     1.2
   10    -1125.3437582273943462     5.56e-06  1.76e-05  9.28e-04  1.79e-04     1.2
   11    -1125.3437672661427769    -9.04e-06  3.63e-06  1.45e-04  1.01e-05     1.2
   12    -1125.3437672428956375     2.32e-08  1.69e-06  6.73e-05  1.20e-05     1.1
   13    -1125.3437673171840743    -7.43e-08  8.07e-07  3.28e-05  2.58e-06     1.3
   14    -1125.3437673529131189    -3.57e-08  4.41e-07  2.53e-05  2.49e-06     1.1
                  *** Gradient check signals convergence ***

               *****************************************************
               *                     SUCCESS                       *
               *           SCF CONVERGED AFTER  14 CYCLES          *
               *****************************************************

             **** ENERGY FILE WAS UPDATED (data/geom_opt_PO_BP86/77831/77831.en.tmp) ****

----------------
TOTAL SCF ENERGY
----------------

Total Energy       :      -1125.34376735291312 Eh          -30622.16071 eV

Components:
Nuclear Repulsion  :       1809.34695150272205 Eh           49234.83360 eV
Electronic Energy  :      -2934.69071885563517 Eh          -79856.99431 eV
One Electron Energy:      -5126.78022364617391 Eh         -139506.78227 eV
Two Electron Energy:       2192.08950479053874 Eh           59649.78796 eV

Virial components:
Potential Energy   :      -2240.15026000299486 Eh          -60957.58760 eV
Kinetic Energy     :       1114.80649265008174 Eh           30335.42689 eV
Virial Ratio       :          2.00945211099173

DFT components:
N(Alpha)           :       85.000046193019 electrons
N(Beta)            :       85.000046193019 electrons
N(Total)           :      170.000092386038 electrons
E(X)               :     -138.066420464104 Eh       
E(C)               :       -6.186368883929 Eh       
E(XC)              :     -144.252789348034 Eh       

---------------
SCF CONVERGENCE
---------------

  Last Energy change         ...    3.5729e-08  Tolerance :   1.0000e-08
  Last MAX-Density change    ...    2.5338e-05  Tolerance :   1.0000e-07
  Last RMS-Density change    ...    4.4113e-07  Tolerance :   5.0000e-09
  Last DIIS Error            ...    1.9286e-03  Tolerance :   5.0000e-07
  Last Orbital Gradient      ...    2.4944e-06  Tolerance :   1.0000e-05
  Last Orbital Rotation      ...    2.5459e-06  Tolerance :   1.0000e-05


----------------
ORBITAL ENERGIES
----------------

  NO   OCC          E(Eh)            E(eV) 
   0   2.0000     -76.389676     -2078.6688 
   1   2.0000     -18.686936      -508.4974 
   2   2.0000      -9.919137      -269.9135 
   3   2.0000      -9.918227      -269.8887 
   4   2.0000      -9.912548      -269.7341 
   5   2.0000      -9.911979      -269.7187 
   6   2.0000      -9.911860      -269.7154 
   7   2.0000      -9.910590      -269.6809 
   8   2.0000      -9.910305      -269.6731 
   9   2.0000      -9.910157      -269.6691 
  10   2.0000      -9.909959      -269.6637 
  11   2.0000      -9.909395      -269.6484 
  12   2.0000      -9.909151      -269.6417 
  13   2.0000      -9.908605      -269.6269 
  14   2.0000      -9.904003      -269.5016 
  15   2.0000      -9.903418      -269.4857 
  16   2.0000      -9.902957      -269.4732 
  17   2.0000      -9.902465      -269.4598 
  18   2.0000      -9.900097      -269.3953 
  19   2.0000      -9.895973      -269.2831 
  20   2.0000      -6.351439      -172.8314 
  21   2.0000      -4.572424      -124.4220 
  22   2.0000      -4.572299      -124.4186 
  23   2.0000      -4.572265      -124.4177 
  24   2.0000      -0.833449       -22.6793 
  25   2.0000      -0.744273       -20.2527 
  26   2.0000      -0.739201       -20.1147 
  27   2.0000      -0.732749       -19.9391 
  28   2.0000      -0.710933       -19.3455 
  29   2.0000      -0.700027       -19.0487 
  30   2.0000      -0.695448       -18.9241 
  31   2.0000      -0.658855       -17.9284 
  32   2.0000      -0.643456       -17.5093 
  33   2.0000      -0.640455       -17.4277 
  34   2.0000      -0.597797       -16.2669 
  35   2.0000      -0.583662       -15.8822 
  36   2.0000      -0.574843       -15.6423 
  37   2.0000      -0.546300       -14.8656 
  38   2.0000      -0.538260       -14.6468 
  39   2.0000      -0.537370       -14.6226 
  40   2.0000      -0.511351       -13.9146 
  41   2.0000      -0.505992       -13.7687 
  42   2.0000      -0.501803       -13.6547 
  43   2.0000      -0.470531       -12.8038 
  44   2.0000      -0.443163       -12.0591 
  45   2.0000      -0.435528       -11.8513 
  46   2.0000      -0.429726       -11.6934 
  47   2.0000      -0.423165       -11.5149 
  48   2.0000      -0.413131       -11.2419 
  49   2.0000      -0.410461       -11.1692 
  50   2.0000      -0.400749       -10.9049 
  51   2.0000      -0.398956       -10.8561 
  52   2.0000      -0.391938       -10.6652 
  53   2.0000      -0.386197       -10.5090 
  54   2.0000      -0.379543       -10.3279 
  55   2.0000      -0.376497       -10.2450 
  56   2.0000      -0.374747       -10.1974 
  57   2.0000      -0.363456        -9.8901 
  58   2.0000      -0.360679        -9.8146 
  59   2.0000      -0.355214        -9.6659 
  60   2.0000      -0.348385        -9.4800 
  61   2.0000      -0.347895        -9.4667 
  62   2.0000      -0.339007        -9.2248 
  63   2.0000      -0.329713        -8.9719 
  64   2.0000      -0.326672        -8.8892 
  65   2.0000      -0.322467        -8.7748 
  66   2.0000      -0.320113        -8.7107 
  67   2.0000      -0.315776        -8.5927 
  68   2.0000      -0.313233        -8.5235 
  69   2.0000      -0.309106        -8.4112 
  70   2.0000      -0.305945        -8.3252 
  71   2.0000      -0.300062        -8.1651 
  72   2.0000      -0.293228        -7.9791 
  73   2.0000      -0.291031        -7.9194 
  74   2.0000      -0.290211        -7.8970 
  75   2.0000      -0.287148        -7.8137 
  76   2.0000      -0.284914        -7.7529 
  77   2.0000      -0.282554        -7.6887 
  78   2.0000      -0.280738        -7.6393 
  79   2.0000      -0.276561        -7.5256 
  80   2.0000      -0.274200        -7.4613 
  81   2.0000      -0.271763        -7.3951 
  82   2.0000      -0.268727        -7.3124 
  83   2.0000      -0.195581        -5.3220 
  84   2.0000      -0.192577        -5.2403 
  85   0.0000       0.011709         0.3186 
  86   0.0000       0.023950         0.6517 
  87   0.0000       0.033868         0.9216 
  88   0.0000       0.036377         0.9899 
  89   0.0000       0.041542         1.1304 
  90   0.0000       0.043540         1.1848 
  91   0.0000       0.046713         1.2711 
  92   0.0000       0.053139         1.4460 
  93   0.0000       0.062502         1.7008 
  94   0.0000       0.064471         1.7543 
  95   0.0000       0.065633         1.7860 
*Only the first 10 virtual orbitals were printed.

                    ********************************
                    * MULLIKEN POPULATION ANALYSIS *
                    ********************************

-----------------------
MULLIKEN ATOMIC CHARGES
-----------------------
   0 C :   -0.021436
   1 C :   -0.072372
   2 C :   -0.016967
   3 C :   -0.030411
   4 C :    0.011789
   5 C :   -0.126923
   6 P :    0.413482
   7 O :   -0.472622
   8 C :   -0.100526
   9 C :   -0.027427
  10 C :   -0.030174
  11 C :   -0.017116
  12 C :   -0.020240
  13 C :   -0.051579
  14 C :   -0.116291
  15 C :   -0.047402
  16 C :    0.019417
  17 C :   -0.040323
  18 C :   -0.070762
  19 C :   -0.023029
  20 H :    0.018084
  21 H :    0.023451
  22 H :    0.018708
  23 H :    0.025675
  24 H :    0.021909
  25 H :    0.004122
  26 H :    0.003703
  27 H :    0.000932
  28 H :    0.034852
  29 H :    0.042581
  30 H :    0.007472
  31 H :    0.048811
  32 H :    0.029728
  33 H :    0.056626
  34 H :    0.039105
  35 H :    0.015088
  36 H :    0.011381
  37 H :    0.010446
  38 H :    0.013605
  39 H :    0.006692
  40 H :    0.007351
  41 H :    0.013028
  42 H :    0.012236
  43 H :    0.029885
  44 H :    0.025693
  45 H :    0.020685
  46 H :    0.044172
  47 H :    0.055046
  48 H :    0.015963
  49 H :    0.033387
  50 H :    0.007149
  51 H :    0.010799
  52 H :    0.016413
  53 H :    0.011909
  54 H :    0.014277
  55 H :    0.020575
  56 H :    0.023751
  57 H :    0.022789
  58 H :    0.022833
Sum of atomic charges:   -0.0000000

--------------------------------
MULLIKEN REDUCED ORBITAL CHARGES
--------------------------------
  0 C s       :     2.990747  s :     2.990747
      pz      :     1.002548  p :     3.003769
      px      :     0.991017
      py      :     1.010204
      dz2     :     0.004122  d :     0.026920
      dxz     :     0.007927
      dyz     :     0.003837
      dx2y2   :     0.007722
      dxy     :     0.003311

  1 C s       :     3.047817  s :     3.047817
      pz      :     1.006439  p :     2.989709
      px      :     0.966881
      py      :     1.016389
      dz2     :     0.006718  d :     0.034846
      dxz     :     0.008252
      dyz     :     0.005734
      dx2y2   :     0.009121
      dxy     :     0.005021

  2 C s       :     3.014808  s :     3.014808
      pz      :     1.008243  p :     2.967946
[...]
      px      :     0.015647
      py      :     0.018526

 43 H s       :     0.910371  s :     0.910371
      pz      :     0.032000  p :     0.064107
      px      :     0.014889
      py      :     0.017219

 44 H s       :     0.905957  s :     0.905957
      pz      :     0.013656  p :     0.063422
      px      :     0.026786
      py      :     0.022979

 45 H s       :     0.910165  s :     0.910165
      pz      :     0.020768  p :     0.063132
      px      :     0.016181
      py      :     0.026183

 46 H s       :     0.894000  s :     0.894000
      pz      :     0.013289  p :     0.069781
      px      :     0.029293
      py      :     0.027198

 47 H s       :     0.893119  s :     0.893119
      pz      :     0.034834  p :     0.069916
      px      :     0.016578
      py      :     0.018504

 48 H s       :     0.909956  s :     0.909956
      pz      :     0.032071  p :     0.064799
      px      :     0.016255
      py      :     0.016473

 49 H s       :     0.909992  s :     0.909992
      pz      :     0.014096  p :     0.066451
      px      :     0.028670
      py      :     0.023684

 50 H s       :     0.909582  s :     0.909582
      pz      :     0.026814  p :     0.063717
      px      :     0.024377
      py      :     0.012525

 51 H s       :     0.908933  s :     0.908933
      pz      :     0.015559  p :     0.063704
      px      :     0.026717
      py      :     0.021429

 52 H s       :     0.911641  s :     0.911641
      pz      :     0.025178  p :     0.064510
      px      :     0.025683
      py      :     0.013650

 53 H s       :     0.908417  s :     0.908417
      pz      :     0.014273  p :     0.063738
      px      :     0.015104
      py      :     0.034361

 54 H s       :     0.912068  s :     0.912068
      pz      :     0.025022  p :     0.063174
      px      :     0.024505
      py      :     0.013647

 55 H s       :     0.913921  s :     0.913921
      pz      :     0.015310  p :     0.064077
      px      :     0.015733
      py      :     0.033033

 56 H s       :     0.908293  s :     0.908293
      pz      :     0.026374  p :     0.063226
      px      :     0.023539
      py      :     0.013314

 57 H s       :     0.907363  s :     0.907363
      pz      :     0.016730  p :     0.063389
      px      :     0.026891
      py      :     0.019767

 58 H s       :     0.909763  s :     0.909763
      pz      :     0.014407  p :     0.063120
      px      :     0.015984
      py      :     0.032728



                      *****************************
                      * MAYER POPULATION ANALYSIS *
                      *****************************

  NA   - Mulliken gross atomic population
  ZA   - Total nuclear charge
  QA   - Mulliken gross atomic charge
  VA   - Mayer's total valence
  BVA  - Mayer's bonded valence
  FA   - Mayer's free valence

  ATOM       NA         ZA         QA         VA         BVA        FA
  0 C      6.0421     6.0000    -0.0421     4.0176     4.0176    -0.0000
  1 C      6.0797     6.0000    -0.0797     4.1204     4.1204    -0.0000
  2 C      6.0213     6.0000    -0.0213     4.0969     4.0969    -0.0000
  3 C      6.0477     6.0000    -0.0477     4.0783     4.0783    -0.0000
  4 C      6.0135     6.0000    -0.0135     4.0800     4.0800    -0.0000
  5 C      6.1524     6.0000    -0.1524     3.9067     3.9067    -0.0000
  6 P     14.5436    15.0000     0.4564     4.8315     4.8315    -0.0000
  7 O      8.4704     8.0000    -0.4704     2.1117     2.1117    -0.0000
  8 C      6.1450     6.0000    -0.1450     3.8713     3.8713    -0.0000
  9 C      6.0174     6.0000    -0.0174     4.0373     4.0373    -0.0000
 10 C      6.0459     6.0000    -0.0459     4.0723     4.0723    -0.0000
 11 C      6.0253     6.0000    -0.0253     4.0820     4.0820    -0.0000
 12 C      6.0317     6.0000    -0.0317     4.1198     4.1198    -0.0000
 13 C      6.0699     6.0000    -0.0699     4.0208     4.0208    -0.0000
 14 C      6.1524     6.0000    -0.1524     3.8705     3.8705    -0.0000
 15 C      6.0537     6.0000    -0.0537     4.0417     4.0417    -0.0000
 16 C      5.9926     6.0000     0.0074     4.0881     4.0881    -0.0000
 17 C      6.0509     6.0000    -0.0509     4.0876     4.0876    -0.0000
 18 C      6.0795     6.0000    -0.0795     4.1218     4.1218    -0.0000
 19 C      6.0424     6.0000    -0.0424     4.0200     4.0200    -0.0000
 20 H      0.9780     1.0000     0.0220     0.9876     0.9876    -0.0000
 21 H      0.9707     1.0000     0.0293     0.9821     0.9821    -0.0000
 22 H      0.9765     1.0000     0.0235     0.9880     0.9880    -0.0000
 23 H      0.9723     1.0000     0.0277     0.9796     0.9796    -0.0000
 24 H      0.9681     1.0000     0.0319     0.9809     0.9809    -0.0000
 25 H      0.9906     1.0000     0.0094     0.9796     0.9796    -0.0000
 26 H      0.9942     1.0000     0.0058     0.9824     0.9824    -0.0000
 27 H      0.9936     1.0000     0.0064     0.9758     0.9758    -0.0000
 28 H      0.9510     1.0000     0.0490     1.0067     1.0067    -0.0000
 29 H      0.9521     1.0000     0.0479     1.0062     1.0062    -0.0000
 30 H      0.9863     1.0000     0.0137     0.9810     0.9810    -0.0000
 31 H      0.9461     1.0000     0.0539     0.9846     0.9846    -0.0000
 32 H      0.9604     1.0000     0.0396     0.9950     0.9950    -0.0000
 33 H      0.9383     1.0000     0.0617     1.0003     1.0003    -0.0000
 34 H      0.9503     1.0000     0.0497     0.9950     0.9950    -0.0000
 35 H      0.9812     1.0000     0.0188     0.9911     0.9911    -0.0000
 36 H      0.9834     1.0000     0.0166     1.0040     1.0040    -0.0000
 37 H      0.9850     1.0000     0.0150     0.9846     0.9846    -0.0000
 38 H      0.9826     1.0000     0.0174     0.9900     0.9900    -0.0000
 39 H      0.9889     1.0000     0.0111     0.9837     0.9837    -0.0000
 40 H      0.9863     1.0000     0.0137     0.9799     0.9799    -0.0000
 41 H      0.9813     1.0000     0.0187     0.9781     0.9781    -0.0000
 42 H      0.9801     1.0000     0.0199     0.9733     0.9733    -0.0000
 43 H      0.9653     1.0000     0.0347     0.9905     0.9905    -0.0000
 44 H      0.9680     1.0000     0.0320     0.9829     0.9829    -0.0000
 45 H      0.9737     1.0000     0.0263     0.9878     0.9878    -0.0000
 46 H      0.9523     1.0000     0.0477     1.0122     1.0122    -0.0000
 47 H      0.9363     1.0000     0.0637     0.9994     0.9994    -0.0000
 48 H      0.9753     1.0000     0.0247     0.9849     0.9849    -0.0000
 49 H      0.9570     1.0000     0.0430     0.9910     0.9910    -0.0000
 50 H      0.9851     1.0000     0.0149     0.9794     0.9794    -0.0000
 51 H      0.9821     1.0000     0.0179     0.9798     0.9798    -0.0000
 52 H      0.9778     1.0000     0.0222     0.9882     0.9882    -0.0000
 53 H      0.9833     1.0000     0.0167     0.9803     0.9803    -0.0000
 54 H      0.9811     1.0000     0.0189     0.9769     0.9769    -0.0000
 55 H      0.9754     1.0000     0.0246     0.9815     0.9815    -0.0000
 56 H      0.9706     1.0000     0.0294     0.9882     0.9882    -0.0000
 57 H      0.9700     1.0000     0.0300     0.9824     0.9824    -0.0000
 58 H      0.9722     1.0000     0.0278     0.9884     0.9884    -0.0000

  Mayer bond orders larger than 0.100000
B(  0-C ,  1-C ) :   1.1115 B(  0-C , 20-H ) :   0.9650 B(  0-C , 21-H ) :   0.9627 
B(  0-C , 22-H ) :   0.9657 B(  1-C ,  2-C ) :   1.0867 B(  1-C , 23-H ) :   0.9372 
B(  1-C , 24-H ) :   0.9413 B(  2-C ,  3-C ) :   1.1000 B(  2-C , 25-H ) :   0.9336 
B(  2-C , 26-H ) :   0.9323 B(  3-C ,  4-C ) :   1.0854 B(  3-C , 27-H ) :   0.9298 
B(  3-C , 28-H ) :   0.9112 B(  4-C ,  5-C ) :   1.0675 B(  4-C , 29-H ) :   0.9217 
B(  4-C , 30-H ) :   0.9313 B(  5-C ,  6-P ) :   0.9160 B(  5-C , 31-H ) :   0.9190 
B(  5-C , 32-H ) :   0.9110 B(  6-P ,  7-O ) :   1.8664 B(  6-P ,  8-C ) :   0.9095 
B(  6-P , 14-C ) :   0.9264 B(  8-C ,  9-C ) :   1.0435 B(  8-C , 33-H ) :   0.9160 
B(  8-C , 34-H ) :   0.9251 B(  9-C , 10-C ) :   1.0820 B(  9-C , 35-H ) :   0.9223 
B(  9-C , 36-H ) :   0.9284 B( 10-C , 11-C ) :   1.0827 B( 10-C , 37-H ) :   0.9362 
B( 10-C , 38-H ) :   0.9325 B( 11-C , 12-C ) :   1.0938 B( 11-C , 39-H ) :   0.9337 
B( 11-C , 40-H ) :   0.9311 B( 12-C , 13-C ) :   1.1104 B( 12-C , 41-H ) :   0.9374 
B( 12-C , 42-H ) :   0.9363 B( 13-C , 43-H ) :   0.9654 B( 13-C , 44-H ) :   0.9615 
B( 13-C , 45-H ) :   0.9669 B( 14-C , 15-C ) :   1.0313 B( 14-C , 46-H ) :   0.9235 
B( 14-C , 47-H ) :   0.9078 B( 15-C , 16-C ) :   1.0884 B( 15-C , 48-H ) :   0.9286 
B( 15-C , 49-H ) :   0.9179 B( 16-C , 17-C ) :   1.0913 B( 16-C , 50-H ) :   0.9289 
B( 16-C , 51-H ) :   0.9308 B( 17-C , 18-C ) :   1.0868 B( 17-C , 52-H ) :   0.9328 
B( 17-C , 53-H ) :   0.9319 B( 18-C , 19-C ) :   1.1131 B( 18-C , 54-H ) :   0.9399 
B( 18-C , 55-H ) :   0.9302 B( 19-C , 56-H ) :   0.9653 B( 19-C , 57-H ) :   0.9623 
B( 19-C , 58-H ) :   0.9662 

-------
TIMINGS
-------

Total SCF time: 0 days 0 hours 0 min 8 sec 

Total time                  ....       8.675 sec
Sum of individual times     ....       8.536 sec  ( 98.4%)

SCF preparation             ....       0.172 sec  (  2.0%)
Fock matrix formation       ....       7.437 sec  ( 85.7%)
  Startup                   ....       0.040 sec  (  0.5% of F)
  Split-RI-J                ....       2.811 sec  ( 37.8% of F)
  XC integration            ....       4.446 sec  ( 59.8% of F)
    Basis function eval.    ....       1.332 sec  ( 30.0% of XC)
    Density eval.           ....       1.351 sec  ( 30.4% of XC)
    XC-Functional eval.     ....       0.149 sec  (  3.4% of XC)
    XC-Potential eval.      ....       0.878 sec  ( 19.7% of XC)
Diagonalization             ....       0.000 sec  (  0.0%)
Density matrix formation    ....       0.104 sec  (  1.2%)
Total Energy calculation    ....       0.034 sec  (  0.4%)
Population analysis         ....       0.157 sec  (  1.8%)
Orbital Transformation      ....       0.079 sec  (  0.9%)
Orbital Orthonormalization  ....       0.000 sec  (  0.0%)
DIIS solution               ....       0.105 sec  (  1.2%)
SOSCF solution              ....       0.448 sec  (  5.2%)
Finished LeanSCF after   8.8 sec

Maximum memory used throughout the entire LEANSCF-calculation: 55.7 MB


-------------------------------------------------------------------------------
                          DFT DISPERSION CORRECTION                            
                                                                               
                              DFTD3 V3.1  Rev 1                                
                          USING Becke-Johnson damping                          
-------------------------------------------------------------------------------
The BP86 functional is recognized
Active option DFTDOPT                   ...         4   

molecular C6(AA) [au] = 25889.019052 


            DFT-D V3
 parameters
 s6 scaling factor         :     1.0000 
 a1 scaling factor         :     0.3946 
 s8 scaling factor         :     3.2822 
 a2 scaling factor         :     4.8516 
 ad hoc parameters k1-k3   :    16.0000     1.3333    -4.0000 

 Edisp/kcal,au: -60.637788506981  -0.096632456632 
 E6   /kcal   : -24.242680741 
 E8   /kcal   : -36.395107766 
 % E8         :  60.020506456 

-------------------------   ----------------
Dispersion correction           -0.096632457
-------------------------   ----------------


-------------------------   --------------------
FINAL SINGLE POINT ENERGY     -1125.457043809613
-------------------------   --------------------

                                *** OPTIMIZATION RUN DONE ***



           ************************************************************
           *        Program running with 6 parallel MPI-processes     *
           *              working on a common directory               *
           ************************************************************

------------------------------------------------------------------------------
                              ORCA PROPERTY CALCULATIONS
------------------------------------------------------------------------------

GBWName                                 ... data/geom_opt_PO_BP86/77831/77831.gbw
Number of atoms                         ...     59
Number of basis functions               ...    479
Max core memory                         ...   1024 MB

Electric properties:
Dipole moment                           ... YES
Quadrupole moment                       ...  NO
Static polarizability (Dipole/Dipole)   ...  NO
Static polarizability (Dipole/Quad.)    ...  NO
Static polarizability (Quad./Quad.)     ...  NO
Static polarizability (Velocity)        ...  NO

Atomic electric properties:
Dipole moment                           ...  NO
Quadrupole moment                       ...  NO
Static polarizability                   ...  NO

Choice of electric origin               ... Center of mass
Position of electric origin             ...     0.364931    -0.080045    -0.220123

General magnetic properties:
Magnetizability                         ...  NO

EPR properties:
g-Tensor (aka g-matrix)                 ...  NO
Zero-Field splitting spin-orbit         ...  NO
Zero-field splitting spin-spin          ...  NO
Hyperfine couplings                     ...  NO (   0 nuclei)
Quadrupole couplings                    ...  NO (   0 nuclei)
Contact density                         ...  NO (   0 nuclei)

NMR properties:
Chemical shifts                         ...  NO (   0 nuclei)
Spin-rotation constants                 ...  NO (   0 nuclei)
Spin-spin couplings                     ...  NO (   0 nuclei,    0 pairs)

Choice of magnetic origin               ... GIAO
Position of magnetic origin             ...     0.000000     0.000000     0.000000

Properties with geometric perturbations:
SCF Hessian                             ...  NO
IR spectrum                             ...  NO
VCD spectrum                            ...  NO
X-ray spectroscopy properties:
SCF XES/XAS/RIXS spectra                ...  NO


-------------
DIPOLE MOMENT
-------------

Method             : SCF
Type of density    : Electron Density
Multiplicity       :   1
Irrep              :   0
Energy             : -1125.3604113529802362 Eh
Relativity type    : 
Basis              : AO
                                X                 Y                 Z
Electronic contribution:      9.310078481      -2.451260601      -4.892796172
Nuclear contribution   :    -10.434665613       2.333969824       5.956791738
                        -----------------------------------------
Total Dipole Moment    :     -1.124587132      -0.117290778       1.063995566
                        -----------------------------------------
Magnitude (a.u.)       :      1.552591353
Magnitude (Debye)      :      3.946373595



--------------------
Rotational spectrum 
--------------------
 
Rotational constants in cm-1:             0.009790             0.004161             0.003199 
Rotational constants in MHz :           293.510218           124.747261            95.895082 

Dipole components along the rotational axes: 
x,y,z [a.u.] :     1.034026     0.095584     1.154207 
x,y,z [Debye]:     2.628286     0.242954     2.933760 

 

Dipole moment calculation done in   0.0 sec 

Maximum memory used throughout the entire PROP-calculation: 28.5 MB

--------------------------------
SUGGESTED CITATIONS FOR THIS RUN
--------------------------------

Below you find a list of papers that are relevant to this ORCA run
We neither can nor want to force you to cite these papers, but we appreciate if you do
You receive ORCA, which is the product of decades of hard work by many enthusiastic individuals, for free
The only thing we kindly ask in return is that you cite our papers,
We deeply appreciate it, if you show your appreciation for ORCA by not just citing the generic ORCA reference.

Please note that relegating all ORCA citations to the supporting information does *not* help us.
SI sections are not indexed - citations you put there will not count into any citation statistics
But we need these citations in order to attract the funding resources that allow us to do what we are doing

Therefore, if you are a happy ORCA user, please consider citing a few of the papers listed below in the main body of your paper

In addition to the list printed below, the program has created the file data/geom_opt_PO_BP86/77831/77831.bibtex that contains the list in bibtex format
You can import this file easily into all common literature databanks and citation aid programs


List of essential papers. We consider these as the minimum necessary citations

  1. Neese,F.
     Software update: the ORCA program system, version 5.0
     WIRES Comput. Molec. Sci., 2022 12(1)e1606
     doi.org/10.1002/wcms.1606

List of papers to cite with high priority. The work reported in these papers was absolutely
necessary for this run to complete.
Our perspective: the developers of density functionals and basis sets usually get cited in chemistry papers
Good! But without the algorithms to do something with them, the functionals or basis sets would not do anything.
Hence, in our opinion, the algorithm design and method developments papers are equally worthy of getting cited

  1. Neese,F.
     An improvement of the resolution of the identity approximation for the formation of the Coulomb matrix
     J. Comp. Chem., 2003 24(14)1740-1747
     doi.org/10.1002/jcc.10318
  2. Neese,F.
     The SHARK Integral Generation and Digestion System
     J. Comp. Chem., 2022  1-16
     doi.org/10.1002/jcc.26942
  3. Grimme,S.; Antony,J.; Ehrlich,S.; Krieg,H.
     A consistent and accurate ab initio parametrization of density functional dispersion correction (DFT-D) for the 94 elements H-Pu
     J. Chem. Phys., 2010 132 154104-XXXX
     doi.org/10.1063/1.3382344
  4. Grimme,S.; Ehrlich,S.; Goerigk,L.
     Effect of the damping function in dispersion corrected density functional theory
     J. Comput. Chem., 2011 32(7)1456-1465
     doi.org/10.1002/jcc.21759

List of suggested additional citations. These are papers that are important in the 'surrounding' of 
of this run, or papers that preceded the highly important papers. If you like your results we are grateful for a citation.

  1. Neese,F.
     The ORCA program system
     WIRES Comput. Molec. Sci., 2012 2(1)73-78
     doi.org/10.1002/wcms.81
  2. Neese,F.
     Software update: the ORCA program system, version 4.0
     WIRES Comput. Molec. Sci., 2018 8(1)1-6
     doi.org/10.1002/wcms.1327
  3. Neese,F.; Wennmohs,F.; Becker,U.; Riplinger,C.
     The ORCA quantum chemistry program package
     J. Chem. Phys., 2020 152 Art. No. L224108
     doi.org/10.1063/5.0004608

List of optional additional citations

  1. Neese,F.
     Approximate second-order SCF convergence for spin unrestricted wavefunctions
     Chem. Phys. Lett., 2000 325(1-3)93-98
     doi.org/10.1016/s0009-2614(00)00662-x

Timings for individual modules:

Sum of individual times          ...      278.033 sec (=   4.634 min)
Startup calculation              ...       22.445 sec (=   0.374 min)   8.1 %
SCF iterations                   ...      155.037 sec (=   2.584 min)  55.8 %
Property calculations            ...        0.269 sec (=   0.004 min)   0.1 %
SCF Gradient evaluation          ...       99.874 sec (=   1.665 min)  35.9 %
Geometry relaxation              ...        0.408 sec (=   0.007 min)   0.1 %
                             ****ORCA TERMINATED NORMALLY****
TOTAL RUN TIME: 0 days 0 hours 4 minutes 40 seconds 525 msec
