
                                 *****************
                                 * O   R   C   A *
                                 *****************

                                            #,                                       
                                            ###                                      
                                            ####                                     
                                            #####                                    
                                            ######                                   
                                           ########,                                 
                                     ,,################,,,,,                         
                               ,,#################################,,                 
                          ,,##########################################,,             
                       ,#########################################, ''#####,          
                    ,#############################################,,   '####,        
                  ,##################################################,,,,####,       
                ,###########''''           ''''###############################       
              ,#####''   ,,,,##########,,,,          '''####'''          '####       
            ,##' ,,,,###########################,,,                        '##       
           ' ,,###''''                  '''############,,,                           
         ,,##''                                '''############,,,,        ,,,,,,###''
      ,#''                                            '''#######################'''  
     '                                                          ''''####''''         
             ,#######,   #######,   ,#######,      ##                                
            ,#'     '#,  ##    ##  ,#'     '#,    #''#        ,####,   ,####,        
            ##       ##  ##   ,#'  ##            #'  '#       #'       #'  '#        
            ##       ##  #######   ##           ,######,      #####,   #    #        
            '#,     ,#'  ##    ##  '#,     ,#' ,#      #,     #,   #   #,  ,#        
             '#######'   ##     ##  '#######'  #'      '#     '####' # '####'        



                #########################################################
                #                        -***-                          #
                #          Department of theory and spectroscopy        #
                #                                                       #
                #                      Frank Neese                      #
                #                                                       #
                #     Directorship, Architecture, Infrastructure        #
                #                    SHARK, DRIVERS                     #
                #        Core code/Algorithms in most modules           #
                #                                                       #
                #        Max Planck Institute fuer Kohlenforschung      #
                #                Kaiser Wilhelm Platz 1                 #
                #                 D-45470 Muelheim/Ruhr                 #
                #                      Germany                          #
                #                                                       #
                #                  All rights reserved                  #
                #                        -***-                          #
                #########################################################


                         Program Version 6.0.0  -   RELEASE   -


 With contributions from (in alphabetic order):
   Daniel Aravena         : Magnetic Suceptibility
   Michael Atanasov       : Ab Initio Ligand Field Theory (pilot matlab implementation)
   Alexander A. Auer      : GIAO ZORA, VPT2 properties, NMR spectrum
   Ute Becker             : All parallelization in ORCA, NUMFREQ, NUMCALC
   Giovanni Bistoni       : ED, misc. LED, open-shell LED, HFLD
   Martin Brehm           : Molecular dynamics
   Dmytro Bykov           : pre 5.0 version of the SCF Hessian
   Marcos Casanova-Páez   : Triplet and SCS-CIS(D). UHF-(DLPNO)-IP/EA/STEOM-CCSD. UHF-CVS-IP/STEOM-CCSD
   Vijay G. Chilkuri      : MRCI spin determinant printing, contributions to CSF-ICE
   Pauline Colinet        : FMM embedding
   Dipayan Datta          : RHF DLPNO-CCSD density
   Achintya Kumar Dutta   : EOM-CC, STEOM-CC
   Nicolas Foglia         : Exact transition moments, OPA infrastructure, MCD improvements
   Dmitry Ganyushin       : Spin-Orbit,Spin-Spin,Magnetic field MRCI
   Miquel Garcia          : C-PCM and meta-GGA Hessian, CCSD/C-PCM, Gaussian charge scheme
   Tiago L. C. Gouveia    : GS-ROHF, GS-ROCIS
   Yang Guo               : DLPNO-NEVPT2, F12-NEVPT2, CIM, IAO-localization
   Andreas Hansen         : Spin unrestricted coupled pair/coupled cluster methods
   Ingolf Harden          : AUTO-CI MPn and infrastructure 
   Benjamin Helmich-Paris : MC-RPA, TRAH-(SCF,CASSCF), AVAS, COSX integrals, SCF dyn. polar.
   Lee Huntington         : MR-EOM, pCC
   Robert Izsak           : Overlap fitted RIJCOSX, COSX-SCS-MP3, EOM
   Riya Kayal             : Wick's Theorem for AUTO-CI, AUTO-CI UHF-CCSDT
   Emily Kempfer          : AUTO-CI, RHF CISDT and CCSDT
   Christian Kollmar      : KDIIS, OOCD, Brueckner-CCSD(T), CCSD density, CASPT2, CASPT2-K, improved NEVPT2
   Axel Koslowski         : Symmetry handling
   Simone Kossmann        : Meta GGA functionals, TD-DFT gradient, OOMP2, (MP2 Hessian; deprecated post 5.0)
   Lucas Lang             : DCDCAS
   Marvin Lechner         : AUTO-CI (C++ implementation), FIC-MRCC
   Spencer Leger          : CASSCF response
   Dagmar Lenk            : GEPOL surface, SMD, ORCA-2-JSON
   Dimitrios Liakos       : Extrapolation schemes; Compound Job, initial MDCI parallelization
   Dimitrios Manganas     : Further ROCIS development; embedding schemes. LFT, Crystal Embedding
   Dimitrios Pantazis     : SARC Basis sets
   Anastasios Papadopoulos: AUTO-CI, single reference methods and gradients
   Taras Petrenko         : pre 6.0 DFT Hessian and TD-DFT gradient, (ASA, deprecated), ECA, 1-Electron XAS/XES, NRVS
   Peter Pinski           : DLPNO-MP2, DLPNO-MP2 Gradient
   Christoph Reimann      : Effective Core Potentials
   Marius Retegan         : Local ZFS, SOC
   Christoph Riplinger    : Optimizer, TS searches, QM/MM, DLPNO-CCSD(T), (RO)-DLPNO pert. Triples
   Michael Roemelt        : Original ROCIS implementation
   Masaaki Saitow         : Open-shell DLPNO-CCSD energy and density
   Barbara Sandhoefer     : DKH picture change effects
   Kantharuban Sivalingam : CASSCF convergence/infrastructure, NEVPT2 and variants, FIC-MRCI
   Bernardo de Souza      : ESD, SOC TD-DFT
   Georgi Stoychev        : AutoAux, RI-MP2 NMR, DLPNO-MP2 response, X2C
   Van Anh Tran           : RI-MP2 g-tensors
   Willem Van den Heuvel  : Paramagnetic NMR
   Zikuan Wang            : NOTCH, Electric field optimization 
   Frank Wennmohs         : Technical directorship and infrastructure
   Hang Xu                : AUTO-CI-Response properties 


 We gratefully acknowledge several colleagues who have allowed us to
 interface, adapt or use parts of their codes:
   Stefan Grimme, W. Hujo, H. Kruse, P. Pracht,  : VdW corrections, initial TS optimization,
                  C. Bannwarth, S. Ehlert,         DFT functionals, gCP, sTDA/sTD-DF
                  L. Wittmann, M. Mueller
   Ed Valeev, F. Pavosevic, A. Kumar             : LibInt (2-el integral package), F12 methods
   Garnet Chan, S. Sharma, J. Yang, R. Olivares  : DMRG
   Ulf Ekstrom                                   : XCFun DFT Library
   Mihaly Kallay                                 : mrcc  (arbitrary order and MRCC methods)
   Frank Weinhold                                : gennbo (NPA and NBO analysis)
   Simon Mueller                                 : openCOSMO-RS
   Christopher J. Cramer and Donald G. Truhlar   : smd solvation model
   Lars Goerigk                                  : TD-DFT with DH, B97 family of functionals
   V. Asgeirsson, H. Jonsson                     : NEB implementation
   FAccTs GmbH                                   : IRC, NEB, NEB-TS, DLPNO-Multilevel, CI-OPT
                                                   MM, QMMM, 2- and 3-layer-ONIOM, Crystal-QMMM,
                                                   LR-CPCM, SF, NACMEs, symmetry and pop. for TD-DFT,
                                                   nearIR, NL-DFT gradient (VV10), updates on ESD,
                                                   ML-optimized integration grids, MBIS, APM,
                                                   GOAT, DOCKER, SOLVATOR, interface openCOSMO-RS
   S Lehtola, MJT Oliveira, MAL Marques          : LibXC Library
   Liviu Ungur et al                             : ANISO software


 Your calculation uses the libint2 library for the computation of 2-el integrals
 For citations please refer to: http://libint.valeyev.net

 Your ORCA version has been built with support for libXC version: 6.2.2
 For citations please refer to: https://libxc.gitlab.io

 This ORCA versions uses:
   CBLAS   interface :  Fast vector & matrix operations
   LAPACKE interface :  Fast linear algebra routines
   Shared memory     :  Shared parallel matrices


Your calculation utilizes the atom-pairwise dispersion correction
with the Becke-Johnson damping scheme (D3BJ)


Warning: RI is on but no J-basis has been assigned. Assigning Def2/J (nothing to worry about!)
================================================================================

----- Orbital basis set information -----
Your calculation utilizes the basis: def2-SVP
   F. Weigend and R. Ahlrichs, Phys. Chem. Chem. Phys. 7, 3297 (2005).

----- AuxJ basis set information -----
Your calculation utilizes the auxiliary basis: def2/J
   F. Weigend, Phys. Chem. Chem. Phys. 8, 1057 (2006).

================================================================================
                                        WARNINGS
                       Please study these warnings very carefully!
================================================================================


WARNING: Geometry Optimization
  ===> : Switching off AutoStart
         For restart on a previous wavefunction, please use MOREAD

================================================================================
                                       INPUT FILE
================================================================================
NAME = data/geom_opt_PO_BP86/78464/78464.inp
|  1> ! RI BP86 def2-SVP D3BJ TIGHTSCF Opt
|  2> %pal
|  3> nprocs 6
|  4> end
|  5> 
|  6> * xyz 0 1
|  7> C     -0.688204    2.811834    2.721060
|  8> O     -1.331042    2.142919    1.634325
|  9> C     -0.663068    2.381186    0.462902
| 10> C     -0.841672    3.609267   -0.180453
| 11> C     -0.214613    3.852105   -1.399506
| 12> C      0.573176    2.861933   -1.979723
| 13> C      0.730189    1.627268   -1.343445
| 14> C      0.112895    1.364400   -0.109412
| 15> P      0.270250   -0.224968    0.735228
| 16> O      0.750568   -0.046189    2.173717
| 17> C     -1.371790   -0.989681    0.715794
| 18> C     -1.895989   -1.487565    1.922175
| 19> C     -3.160792   -2.071672    1.966647
| 20> C     -3.917431   -2.170727    0.803536
| 21> C     -3.412151   -1.681367   -0.401903
| 22> C     -2.149927   -1.078599   -0.446780
| 23> O     -1.588406   -0.633876   -1.612561
| 24> C     -2.490589    0.050738   -2.479359
| 25> C      1.427214   -1.302679   -0.144679
| 26> C      1.035189   -2.521941   -0.720478
| 27> C      1.959288   -3.339421   -1.378499
| 28> C      3.294114   -2.955507   -1.469050
| 29> C      3.708323   -1.759252   -0.890870
| 30> C      2.784684   -0.955637   -0.216352
| 31> O      3.201385    0.236730    0.313161
| 32> C      3.951489    0.022386    1.510477
| 33> H     -0.930409    3.879598    2.709702
| 34> H     -1.075155    2.386108    3.651625
| 35> H      0.398606    2.670808    2.707991
| 36> H     -1.476106    4.370640    0.263812
| 37> H     -0.345406    4.808150   -1.898838
| 38> H      1.063313    3.044528   -2.932804
| 39> H      1.335757    0.867844   -1.830523
| 40> H     -1.310026   -1.407022    2.836684
| 41> H     -3.551983   -2.447912    2.908376
| 42> H     -4.900053   -2.634393    0.832964
| 43> H     -4.011497   -1.798244   -1.299215
| 44> H     -3.128909    0.752465   -1.930837
| 45> H     -1.894460    0.627409   -3.193047
| 46> H     -3.093135   -0.662450   -3.050086
| 47> H      0.003740   -2.858112   -0.664506
| 48> H      1.631919   -4.276729   -1.822054
| 49> H      4.009630   -3.586348   -1.989429
| 50> H      4.746317   -1.449795   -0.971731
| 51> H      4.970095   -0.299613    1.270652
| 52> H      4.013664    0.976990    2.041322
| 53> H      3.471011   -0.705607    2.173994
| 54> **                         ****END OF INPUT****
================================================================================

                       *****************************
                       * Geometry Optimization Run *
                       *****************************

Geometry optimization settings:
Update method            Update   .... BFGS
Choice of coordinates    CoordSys .... (2022) Redundant Internals
Initial Hessian          InHess   .... Almloef's Model
Max. no of cycles        MaxIter  .... 141

Convergence Tolerances:
Energy Change            TolE     ....  5.0000e-06 Eh
Max. Gradient            TolMAXG  ....  3.0000e-04 Eh/bohr
RMS Gradient             TolRMSG  ....  1.0000e-04 Eh/bohr
Max. Displacement        TolMAXD  ....  4.0000e-03 bohr
RMS Displacement         TolRMSD  ....  2.0000e-03 bohr
Strict Convergence                .... False

------------------------------------------------------------------------------
                        ORCA OPTIMIZATION COORDINATE SETUP
------------------------------------------------------------------------------

The optimization will be done in redundant internal coordinates (2022)
Making redundant internal coordinates   ...  (2022 redundants) done
Evaluating the initial hessian          ...  (Almloef) done
Evaluating the coordinates              ...  done
Calculating the B-matrix                .... done
Calculating the G-matrix                .... done
Diagonalizing the G-matrix              .... done
Small eigenvalue found = 3.221e-03
Small eigenvalue found = 4.487e-03
Small eigenvalue found = 5.452e-03
Small eigenvalue found = 8.284e-03
Small eigenvalue found = 9.939e-03
Small eigenvalue found = 1.148e-02
Small eigenvalue found = 1.578e-02
Small eigenvalue found = 2.340e-02
The first mode is                       ....   97
The number of degrees of freedom        ....  135

    -----------------------------------------------------------------
                    Redundant Internal Coordinates


    -----------------------------------------------------------------
         Definition                    Initial Value    Approx d2E/dq
    -----------------------------------------------------------------
      1. B(O   1,C   0)                  1.4289         0.485126   
      2. B(C   2,O   1)                  1.3694         0.603641   
      3. B(C   3,C   2)                  1.3979         0.607033   
      4. B(C   4,C   3)                  1.3922         0.619732   
      5. B(C   5,C   4)                  1.3920         0.620190   
      6. B(C   6,C   5)                  1.3978         0.607103   
      7. B(C   7,C   2)                  1.4013         0.599490   
      8. B(C   7,C   6)                  1.4046         0.592100   
      9. B(P   8,C   7)                  1.8067         0.454327   
     10. B(O   9,P   8)                  1.5271         1.136831   
     11. B(C  10,P   8)                  1.8115         0.446466   
     12. B(C  11,C  10)                  1.4064         0.588214   
     13. B(C  12,C  11)                  1.3939         0.615967   
     14. B(C  13,C  12)                  1.3911         0.622291   
     15. B(C  14,C  13)                  1.3957         0.611941   
     16. B(C  15,C  14)                  1.3995         0.603405   
     17. B(C  15,C  10)                  1.4018         0.598339   
     18. B(O  16,C  15)                  1.3683         0.606127   
     19. B(C  17,O  16)                  1.4262         0.489964   
     20. B(C  18,P   8)                  1.8095         0.449737   
     21. B(C  19,C  18)                  1.4042         0.593000   
     22. B(C  20,C  19)                  1.3983         0.606048   
     23. B(C  21,C  20)                  1.3919         0.620480   
     24. B(C  22,C  21)                  1.3917         0.620859   
     25. B(C  23,C  22)                  1.3978         0.607119   
     26. B(C  23,C  18)                  1.4030         0.595744   
     27. B(O  24,C  23)                  1.3696         0.603179   
     28. B(C  25,O  24)                  1.4290         0.484824   
     29. B(H  26,C   0)                  1.0949         0.353613   
     30. B(H  27,C   0)                  1.0940         0.354794   
     31. B(H  28,C   0)                  1.0960         0.352250   
     32. B(H  29,C   3)                  1.0861         0.365325   
     33. B(H  30,C   4)                  1.0865         0.364773   
     34. B(H  31,C   5)                  1.0872         0.363863   
     35. B(H  32,C   6)                  1.0866         0.364637   
     36. B(H  33,C  11)                  1.0891         0.361276   
     37. B(H  34,C  12)                  1.0869         0.364170   
     38. B(H  35,C  13)                  1.0869         0.364196   
     39. B(H  36,C  14)                  1.0854         0.366267   
     40. B(H  37,C  17)                  1.0958         0.352525   
     41. B(H  38,C  17)                  1.0942         0.354589   
     42. B(H  39,C  17)                  1.0943         0.354495   
     43. B(H  40,C  19)                  1.0863         0.365038   
     44. B(H  41,C  20)                  1.0874         0.363544   
     45. B(H  42,C  21)                  1.0866         0.364615   
     46. B(H  43,C  22)                  1.0862         0.365222   
     47. B(H  44,C  25)                  1.0949         0.353705   
     48. B(H  45,C  25)                  1.0940         0.354791   
     49. B(H  46,C  25)                  1.0959         0.352325   
     50. A(H  26,C   0,H  27)          108.0627         0.289336   
     51. A(O   1,C   0,H  28)          112.1364         0.335369   
     52. A(O   1,C   0,H  26)          110.4330         0.335584   
     53. A(H  27,C   0,H  28)          108.1072         0.289161   
     54. A(H  26,C   0,H  28)          110.1636         0.289010   
     55. A(O   1,C   0,H  27)          107.7954         0.335770   
     56. A(C   0,O   1,C   2)          110.4690         0.408142   
     57. A(O   1,C   2,C   3)          118.9635         0.427538   
     58. A(O   1,C   2,C   7)          119.5547         0.426581   
     59. A(C   3,C   2,C   7)          121.3506         0.429814   
     60. A(C   2,C   3,C   4)          119.9136         0.432386   
     61. A(C   2,C   3,H  29)          120.1497         0.352507   
     62. A(C   4,C   3,H  29)          119.9340         0.353745   
     63. A(C   3,C   4,H  30)          120.1115         0.353654   
     64. A(C   3,C   4,C   5)          119.7226         0.434056   
     65. A(C   5,C   4,H  30)          120.1646         0.353699   
     66. A(C   6,C   5,H  31)          119.7859         0.352275   
     67. A(C   4,C   5,C   6)          120.1413         0.432452   
     68. A(C   4,C   5,H  31)          120.0717         0.353549   
     69. A(C   7,C   6,H  32)          120.5270         0.350914   
     70. A(C   5,C   6,H  32)          118.4168         0.352402   
     71. A(C   5,C   6,C   7)          121.0539         0.428868   
     72. A(C   6,C   7,P   8)          122.4845         0.434327   
     73. A(C   2,C   7,P   8)          119.7105         0.435298   
     74. A(C   2,C   7,C   6)          117.8002         0.427898   
     75. A(O   9,P   8,C  10)          110.1601         0.518636   
     76. A(C   7,P   8,C  18)          110.6275         0.441056   
     77. A(C   7,P   8,O   9)          111.3944         0.520337   
     78. A(O   9,P   8,C  18)          109.0677         0.519347   
     79. A(C   7,P   8,C  10)          106.7023         0.440475   
     80. A(C  10,P   8,C  18)          108.8406         0.439668   
     81. A(C  11,C  10,C  15)          118.8187         0.427246   
     82. A(P   8,C  10,C  15)          122.6060         0.433782   
     83. A(P   8,C  10,C  11)          118.5611         0.432453   
     84. A(C  12,C  11,H  33)          119.4984         0.352714   
     85. A(C  10,C  11,H  33)          119.5736         0.349976   
     86. A(C  10,C  11,C  12)          120.9252         0.429477   
     87. A(C  11,C  12,H  34)          119.9518         0.353191   
     88. A(C  11,C  12,C  13)          119.7828         0.433844   
     89. A(C  13,C  12,H  34)          120.2654         0.353802   
     90. A(C  14,C  13,H  35)          120.0169         0.352803   
     91. A(C  12,C  13,H  35)          119.9644         0.353806   
     92. A(C  12,C  13,C  14)          120.0179         0.433333   
     93. A(C  15,C  14,H  36)          121.1922         0.352303   
     94. A(C  13,C  14,H  36)          118.4490         0.353142   
     95. A(C  13,C  14,C  15)          120.3476         0.430940   
     96. A(C  14,C  15,O  16)          122.5105         0.427394   
     97. A(C  10,C  15,O  16)          117.2709         0.426749   
     98. A(C  10,C  15,C  14)          120.0919         0.429204   
     99. A(C  15,O  16,C  17)          114.4724         0.409157   
    100. A(O  16,C  17,H  38)          107.7445         0.336293   
    101. A(O  16,C  17,H  37)          111.8185         0.335966   
    102. A(H  38,C  17,H  39)          107.6556         0.289423   
    103. A(H  37,C  17,H  39)          110.9584         0.289159   
    104. A(O  16,C  17,H  39)          110.6378         0.336278   
    105. A(H  37,C  17,H  38)          107.8400         0.289171   
    106. A(P   8,C  18,C  19)          122.5499         0.433653   
    107. A(C  19,C  18,C  23)          117.6429         0.427534   
    108. A(P   8,C  18,C  23)          119.7469         0.434013   
    109. A(C  18,C  19,C  20)          121.0701         0.428851   
    110. A(C  20,C  19,H  40)          118.0886         0.352364   
    111. A(C  18,C  19,H  40)          120.8411         0.351069   
    112. A(C  19,C  20,C  21)          120.2083         0.432353   
    113. A(C  21,C  20,H  41)          119.9951         0.353524   
    114. A(C  19,C  20,H  41)          119.7966         0.352119   
    115. A(C  20,C  21,H  42)          120.1665         0.353701   
    116. A(C  22,C  21,H  42)          120.1321         0.353737   
    117. A(C  20,C  21,C  22)          119.7013         0.434235   
    118. A(C  23,C  22,H  43)          120.2386         0.352499   
    119. A(C  21,C  22,H  43)          119.8937         0.353837   
    120. A(C  21,C  22,C  23)          119.8661         0.432538   
    121. A(C  22,C  23,O  24)          119.0807         0.427490   
    122. A(C  18,C  23,O  24)          119.3401         0.426045   
    123. A(C  18,C  23,C  22)          121.4523         0.429342   
    124. A(C  23,O  24,C  25)          110.6739         0.408042   
    125. A(H  45,C  25,H  46)          108.1046         0.289171   
    126. A(H  44,C  25,H  46)          110.1899         0.289032   
    127. A(O  24,C  25,H  46)          112.1335         0.335346   
    128. A(H  44,C  25,H  45)          108.0606         0.289348   
    129. A(O  24,C  25,H  45)          107.7876         0.335735   
    130. A(O  24,C  25,H  44)          110.4214         0.335564   
    131. D(C   2,O   1,C   0,H  28)    -45.9578         0.018575   
    132. D(C   2,O   1,C   0,H  27)   -164.8367         0.018575   
    133. D(C   2,O   1,C   0,H  26)     77.3182         0.018575   
    134. D(C   7,C   2,O   1,C   0)    106.2979         0.026634   
    135. D(C   3,C   2,O   1,C   0)    -77.8083         0.026634   
    136. D(C   4,C   3,C   2,C   7)     -1.6086         0.025435   
    137. D(H  29,C   3,C   2,O   1)      1.9818         0.025435   
    138. D(H  29,C   3,C   2,C   7)    177.7992         0.025435   
    139. D(C   4,C   3,C   2,O   1)   -177.4259         0.025435   
    140. D(H  30,C   4,C   3,C   2)   -179.5559         0.026575   
    141. D(H  30,C   4,C   3,H  29)      1.0351         0.026575   
    142. D(C   5,C   4,C   3,H  29)   -178.5463         0.026575   
    143. D(C   5,C   4,C   3,C   2)      0.8627         0.026575   
    144. D(C   6,C   5,C   4,C   3)      0.2274         0.026617   
    145. D(H  31,C   5,C   4,H  30)      0.2567         0.026617   
    146. D(C   6,C   5,C   4,H  30)   -179.3537         0.026617   
    147. D(H  31,C   5,C   4,C   3)    179.8379         0.026617   
    148. D(H  32,C   6,C   5,H  31)     -0.7712         0.025442   
    149. D(C   7,C   6,C   5,H  31)    179.7772         0.025442   
    150. D(H  32,C   6,C   5,C   4)    178.8403         0.025442   
    151. D(C   7,C   6,C   5,C   4)     -0.6112         0.025442   
    152. D(C   6,C   7,C   2,O   1)    177.0035         0.024773   
    153. D(P   8,C   7,C   6,H  32)     -0.3380         0.024135   
    154. D(P   8,C   7,C   6,C   5)    179.1020         0.024135   
    155. D(C   2,C   7,C   6,H  32)   -179.5417         0.024135   
    156. D(C   2,C   7,C   6,C   5)     -0.1017         0.024135   
    157. D(P   8,C   7,C   2,C   3)   -178.0162         0.024773   
    158. D(P   8,C   7,C   2,O   1)     -2.2232         0.024773   
    159. D(C   6,C   7,C   2,C   3)      1.2104         0.024773   
    160. D(O   9,P   8,C   7,C   2)    -53.9150         0.004316   
    161. D(O   9,P   8,C   7,C   6)    126.8960         0.004316   
    162. D(C  18,P   8,C   7,C   2)   -175.4065         0.004316   
    163. D(C  10,P   8,C   7,C   6)   -112.8381         0.004316   
    164. D(C  10,P   8,C   7,C   2)     66.3509         0.004316   
    165. D(C  15,C  10,P   8,O   9)    169.5088         0.004217   
    166. D(C  15,C  10,P   8,C   7)     48.4530         0.004217   
    167. D(C  11,C  10,P   8,C  18)    110.4317         0.004217   
    168. D(C  11,C  10,P   8,O   9)     -9.1051         0.004217   
    169. D(C  11,C  10,P   8,C   7)   -130.1609         0.004217   
    170. D(H  33,C  11,C  10,C  15)   -178.7974         0.023803   
    171. D(H  33,C  11,C  10,P   8)     -0.1300         0.023803   
    172. D(C  12,C  11,C  10,C  15)      0.5923         0.023803   
    173. D(C  12,C  11,C  10,P   8)    179.2597         0.023803   
    174. D(H  34,C  12,C  11,H  33)     -0.3795         0.026234   
    175. D(H  34,C  12,C  11,C  10)   -179.7696         0.026234   
    176. D(C  13,C  12,C  11,H  33)    179.6364         0.026234   
    177. D(C  13,C  12,C  11,C  10)      0.2462         0.026234   
    178. D(H  35,C  13,C  12,H  34)     -0.5800         0.026808   
    179. D(H  35,C  13,C  12,C  11)    179.4041         0.026808   
    180. D(C  14,C  13,C  12,H  34)    179.7586         0.026808   
    181. D(C  14,C  13,C  12,C  11)     -0.2573         0.026808   
    182. D(H  36,C  14,C  13,H  35)     -1.4446         0.025872   
    183. D(H  36,C  14,C  13,C  12)    178.2167         0.025872   
    184. D(C  15,C  14,C  13,H  35)    179.7602         0.025872   
    185. D(C  15,C  14,C  13,C  12)     -0.5785         0.025872   
    186. D(O  16,C  15,C  14,C  13)    177.2263         0.025116   
    187. D(C  10,C  15,C  14,H  36)   -177.3319         0.025116   
    188. D(C  10,C  15,C  14,C  13)      1.4298         0.025116   
    189. D(O  16,C  15,C  10,C  11)   -177.4334         0.024673   
    190. D(O  16,C  15,C  10,P   8)      3.9561         0.024673   
    191. D(C  14,C  15,C  10,C  11)     -1.4212         0.024673   
    192. D(O  16,C  15,C  14,H  36)     -1.5354         0.025116   
    193. D(C  14,C  15,C  10,P   8)    179.9683         0.024673   
    194. D(C  17,O  16,C  15,C  14)     42.3826         0.026869   
    195. D(C  17,O  16,C  15,C  10)   -141.7090         0.026869   
    196. D(H  39,C  17,O  16,C  15)    -80.5776         0.018957   
    197. D(H  38,C  17,O  16,C  15)    161.9837         0.018957   
    198. D(H  37,C  17,O  16,C  15)     43.6508         0.018957   
    199. D(C  23,C  18,P   8,O   9)    -56.9716         0.004258   
    200. D(C  23,C  18,P   8,C   7)     65.8831         0.004258   
    201. D(C  19,C  18,P   8,C  10)     -0.0794         0.004258   
    202. D(C  19,C  18,P   8,O   9)    120.1351         0.004258   
    203. D(C  19,C  18,P   8,C   7)   -117.0101         0.004258   
    204. D(H  40,C  19,C  18,C  23)    177.8528         0.024212   
    205. D(H  40,C  19,C  18,P   8)      0.6884         0.024212   
    206. D(C  20,C  19,C  18,C  23)     -1.9802         0.024212   
    207. D(C  20,C  19,C  18,P   8)   -179.1446         0.024212   
    208. D(H  41,C  20,C  19,H  40)      0.5213         0.025348   
    209. D(H  41,C  20,C  19,C  18)   -179.6412         0.025348   
    210. D(C  21,C  20,C  19,H  40)   -179.6034         0.025348   
    211. D(C  21,C  20,C  19,C  18)      0.2341         0.025348   
    212. D(H  42,C  21,C  20,H  41)      0.5068         0.026643   
    213. D(H  42,C  21,C  20,C  19)   -179.3682         0.026643   
    214. D(C  22,C  21,C  20,H  41)   -179.5414         0.026643   
    215. D(C  22,C  21,C  20,C  19)      0.5835         0.026643   
    216. D(H  43,C  22,C  21,H  42)      0.8144         0.026678   
    217. D(H  43,C  22,C  21,C  20)   -179.1374         0.026678   
    218. D(C  23,C  22,C  21,H  42)   -179.6442         0.026678   
    219. D(C  23,C  22,C  21,C  20)      0.4041         0.026678   
    220. D(O  24,C  23,C  22,H  43)      1.4117         0.025443   
    221. D(O  24,C  23,C  22,C  21)   -178.1281         0.025443   
    222. D(C  18,C  23,C  22,H  43)    177.2898         0.025443   
    223. D(C  18,C  23,C  22,C  21)     -2.2500         0.025443   
    224. D(O  24,C  23,C  18,C  19)    178.8602         0.024448   
    225. D(O  24,C  23,C  18,P   8)     -3.8927         0.024448   
    226. D(C  22,C  23,C  18,C  19)      2.9926         0.024448   
    227. D(C  22,C  23,C  18,P   8)   -179.7603         0.024448   
    228. D(C  25,O  24,C  23,C  22)    -75.8154         0.026591   
    229. D(C  25,O  24,C  23,C  18)    108.2181         0.026591   
    230. D(H  46,C  25,O  24,C  23)    -45.2032         0.018551   
    231. D(H  45,C  25,O  24,C  23)   -164.0722         0.018551   
    232. D(H  44,C  25,O  24,C  23)     78.0963         0.018551   
    -----------------------------------------------------------------

Number of atoms                         .... 47
Number of degrees of freedom            .... 232


         *************************************************************
         *                GEOMETRY OPTIMIZATION CYCLE   1            *
         *************************************************************
---------------------------------
CARTESIAN COORDINATES (ANGSTROEM)
---------------------------------
  C     -0.688204    2.811834    2.721060
  O     -1.331042    2.142919    1.634325
  C     -0.663068    2.381186    0.462902
  C     -0.841672    3.609267   -0.180453
  C     -0.214613    3.852105   -1.399506
  C      0.573176    2.861933   -1.979723
  C      0.730189    1.627268   -1.343445
  C      0.112895    1.364400   -0.109412
  P      0.270250   -0.224968    0.735228
  O      0.750568   -0.046189    2.173717
  C     -1.371790   -0.989681    0.715794
  C     -1.895989   -1.487565    1.922175
  C     -3.160792   -2.071672    1.966647
  C     -3.917431   -2.170727    0.803536
  C     -3.412151   -1.681367   -0.401903
  C     -2.149927   -1.078599   -0.446780
  O     -1.588406   -0.633876   -1.612561
  C     -2.490589    0.050738   -2.479359
  C      1.427214   -1.302679   -0.144679
  C      1.035189   -2.521941   -0.720478
  C      1.959288   -3.339421   -1.378499
  C      3.294114   -2.955507   -1.469050
  C      3.708323   -1.759252   -0.890870
  C      2.784684   -0.955637   -0.216352
  O      3.201385    0.236730    0.313161
  C      3.951489    0.022386    1.510477
  H     -0.930409    3.879598    2.709702
  H     -1.075155    2.386108    3.651625
  H      0.398606    2.670808    2.707991
  H     -1.476106    4.370640    0.263812
  H     -0.345406    4.808150   -1.898838
  H      1.063313    3.044528   -2.932804
  H      1.335757    0.867844   -1.830523
  H     -1.310026   -1.407022    2.836684
  H     -3.551983   -2.447912    2.908376
  H     -4.900053   -2.634393    0.832964
  H     -4.011497   -1.798244   -1.299215
  H     -3.128909    0.752465   -1.930837
  H     -1.894460    0.627409   -3.193047
  H     -3.093135   -0.662450   -3.050086
  H      0.003740   -2.858112   -0.664506
  H      1.631919   -4.276729   -1.822054
  H      4.009630   -3.586348   -1.989429
  H      4.746317   -1.449795   -0.971731
  H      4.970095   -0.299613    1.270652
  H      4.013664    0.976990    2.041322
  H      3.471011   -0.705607    2.173994

----------------------------
CARTESIAN COORDINATES (A.U.)
----------------------------
  NO LB      ZA    FRAG     MASS         X           Y           Z
   0 C     6.0000    0    12.011   -1.300517    5.313596    5.142058
   1 O     8.0000    0    15.999   -2.515305    4.049530    3.088427
   2 C     6.0000    0    12.011   -1.253017    4.499789    0.874758
   3 C     6.0000    0    12.011   -1.590530    6.820526   -0.341007
   4 C     6.0000    0    12.011   -0.405560    7.279423   -2.644683
   5 C     6.0000    0    12.011    1.083146    5.408270   -3.741134
   6 C     6.0000    0    12.011    1.379857    3.075091   -2.538743
   7 C     6.0000    0    12.011    0.213341    2.578342   -0.206759
   8 P    15.0000    0    30.974    0.510698   -0.425128    1.389380
   9 O     8.0000    0    15.999    1.418368   -0.087285    4.107730
  10 C     6.0000    0    12.011   -2.592307   -1.870226    1.352655
  11 C     6.0000    0    12.011   -3.582900   -2.811090    3.632384
  12 C     6.0000    0    12.011   -5.973031   -3.914893    3.716424
  13 C     6.0000    0    12.011   -7.402872   -4.102080    1.518463
  14 C     6.0000    0    12.011   -6.448031   -3.177323   -0.759487
  15 C     6.0000    0    12.011   -4.062773   -2.038257   -0.844292
  16 O     8.0000    0    15.999   -3.001652   -1.197852   -3.047299
  17 C     6.0000    0    12.011   -4.706531    0.095881   -4.685309
  18 C     6.0000    0    12.011    2.697044   -2.461707   -0.273404
  19 C     6.0000    0    12.011    1.956224   -4.765778   -1.361506
  20 C     6.0000    0    12.011    3.702518   -6.310591   -2.604986
  21 C     6.0000    0    12.011    6.224973   -5.585099   -2.776102
  22 C     6.0000    0    12.011    7.007715   -3.324504   -1.683500
  23 C     6.0000    0    12.011    5.262290   -1.805892   -0.408846
  24 O     8.0000    0    15.999    6.049741    0.447355    0.591789
  25 C     6.0000    0    12.011    7.467232    0.042303    2.854388
  26 H     1.0000    0     1.008   -1.758218    7.331378    5.120595
  27 H     1.0000    0     1.008   -2.031749    4.509091    6.900571
  28 H     1.0000    0     1.008    0.753256    5.047096    5.117361
  29 H     1.0000    0     1.008   -2.789436    8.259313    0.498532
  30 H     1.0000    0     1.008   -0.652723    9.086087   -3.588284
  31 H     1.0000    0     1.008    2.009370    5.753324   -5.542196
  32 H     1.0000    0     1.008    2.524215    1.639987   -3.459187
  33 H     1.0000    0     1.008   -2.475590   -2.658886    5.360556
  34 H     1.0000    0     1.008   -6.712275   -4.625883    5.496034
  35 H     1.0000    0     1.008   -9.259758   -4.978281    1.574074
  36 H     1.0000    0     1.008   -7.580631   -3.398189   -2.455161
  37 H     1.0000    0     1.008   -5.912781    1.421953   -3.648753
  38 H     1.0000    0     1.008   -3.580011    1.185631   -6.033984
  39 H     1.0000    0     1.008   -5.845178   -1.251849   -5.763827
  40 H     1.0000    0     1.008    0.007068   -5.401049   -1.255734
  41 H     1.0000    0     1.008    3.083880   -8.081847   -3.443183
  42 H     1.0000    0     1.008    7.577103   -6.777216   -3.759476
  43 H     1.0000    0     1.008    8.969239   -2.739716   -1.836305
  44 H     1.0000    0     1.008    9.392118   -0.566187    2.401184
  45 H     1.0000    0     1.008    7.584726    1.846244    3.857540
  46 H     1.0000    0     1.008    6.559260   -1.333404    4.108253

--------------------------------
INTERNAL COORDINATES (ANGSTROEM)
--------------------------------
 C      0   0   0     0.000000000000     0.00000000     0.00000000
 O      1   0   0     1.428874008335     0.00000000     0.00000000
 C      2   1   0     1.369376600097   110.46898602     0.00000000
 C      3   2   1     1.397851203599   118.96352528   282.19171785
 C      4   3   2     1.392215321182   119.91363394   182.57410100
 C      5   4   3     1.392014319321   119.72257731     0.86274130
 C      6   5   4     1.397819887424   120.14127000     0.22742119
 C      3   2   1     1.401255030949   119.55468120   106.29785754
 P      8   3   2     1.806728525554   119.71050053   357.77683842
 O      9   8   3     1.527061856994   111.39442720   306.08503957
 C      9   8   3     1.811479785790   106.70226499    66.35092528
 C     11   9   8     1.406423899903   118.56112394   229.83906789
 C     12  11   9     1.393874232147   120.92524908   179.25967621
 C     13  12  11     1.391093694784   119.78279900     0.24621700
 C     14  13  12     1.395659081123   120.01789108   359.74268123
 C     15  14  13     1.399482987795   120.34756524   359.42146345
 O     16  15  14     1.368257914332   122.51052694   177.22625565
 C     17  16  15     1.426172944383   114.47240097    42.38259718
 C      9   8   3     1.809492477317   110.62745716   184.59349351
 C     19   9   8     1.404217901065   122.54991936   242.98989824
 C     20  19   9     1.398293298504   121.07010597   180.85543033
 C     21  20  19     1.391887169735   120.20827543     0.23407013
 C     22  21  20     1.391720960935   119.70132904     0.58352294
 C     23  22  21     1.397812792498   119.86606211     0.40406874
 O     24  23  22     1.369584901807   119.08071720   181.87185871
 C     25  24  23     1.429043374082   110.67393786   284.18456155
 H      1   2   3     1.094948503759   110.43303987    77.31821452
 H      1   2   3     1.094040640334   107.79535017   195.16327641
 H      1   2   3     1.095999592854   112.13639515   314.04219084
 H      4   3   2     1.086078604757   120.14966984     1.98181720
 H      5   4   3     1.086490357572   120.11146528   180.44411252
 H      6   5   4     1.087169998370   120.07171213   179.83787299
 H      7   6   5     1.086592100323   118.41684005   178.84033597
 H     12  11   9     1.089112722953   119.57361013   359.86997643
 H     13  12  11     1.086940865697   119.95176338   180.23038665
 H     14  13  12     1.086921414650   119.96437892   179.40408989
 H     15  14  13     1.085377669841   118.44897246   178.21666558
 H     18  17  16     1.095787200789   111.81851319    43.65079757
 H     18  17  16     1.094198239912   107.74449991   161.98367761
 H     18  17  16     1.094270585362   110.63775493   279.42244428
 H     20  19   9     1.086292246877   120.84111882     0.68843339
 H     21  20  19     1.087408748838   119.79655401   180.35876451
 H     22  21  20     1.086608401025   120.16651280   180.63176510
 H     23  22  21     1.086155458581   119.89374949   180.86261257
 H     26  25  24     1.094877878972   110.42137662    78.09628409
 H     26  25  24     1.094043391034   107.78762243   195.92782072
 H     26  25  24     1.095941479196   112.13353216   314.79684186

---------------------------
INTERNAL COORDINATES (A.U.)
---------------------------
 C      0   0   0     0.000000000000     0.00000000     0.00000000
 O      1   0   0     2.700180555631     0.00000000     0.00000000
 C      2   1   0     2.587746748384   110.46898602     0.00000000
 C      3   2   1     2.641555950774   118.96352528   282.19171785
 C      4   3   2     2.630905676483   119.91363394   182.57410100
 C      5   4   3     2.630525838013   119.72257731     0.86274130
 C      6   5   4     2.641496771780   120.14127000     0.22742119
 C      3   2   1     2.647988252274   119.55468120   106.29785754
 P      8   3   2     3.414222111640   119.71050053   357.77683842
 O      9   8   3     2.885728699276   111.39442720   306.08503957
 C      9   8   3     3.423200692277   106.70226499    66.35092528
 C     11   9   8     2.657755999018   118.56112394   229.83906789
 C     12  11   9     2.634040563887   120.92524908   179.25967621
 C     13  12  11     2.628786109766   119.78279900     0.24621700
 C     14  13  12     2.637413439643   120.01789108   359.74268123
 C     15  14  13     2.644639576015   120.34756524   359.42146345
 O     16  15  14     2.585632738657   122.51052694   177.22625565
 C     17  16  15     2.695076284491   114.47240097    42.38259718
 C      9   8   3     3.419445223519   110.62745716   184.59349351
 C     19   9   8     2.653587265362   122.54991936   242.98989824
 C     20  19   9     2.642391389071   121.07010597   180.85543033
 C     21  20  19     2.630285560118   120.20827543     0.23407013
 C     22  21  20     2.629971471005   119.70132904     0.58352294
 C     23  22  21     2.641483364312   119.86606211     0.40406874
 O     24  23  22     2.588140381570   119.08071720   181.87185871
 C     25  24  23     2.700500610510   110.67393786   284.18456155
 H      1   2   3     2.069152802852   110.43303987    77.31821452
 H      1   2   3     2.067437189611   107.79535017   195.16327641
 H      1   2   3     2.071139073384   112.13639515   314.04219084
 H      4   3   2     2.052391122901   120.14966984     1.98181720
 H      5   4   3     2.053169222958   120.11146528   180.44411252
 H      6   5   4     2.054453557934   120.07171213   179.83787299
 H      7   6   5     2.053361488892   118.41684005   178.84033597
 H     12  11   9     2.058124775351   119.57361013   359.86997643
 H     13  12  11     2.054020559934   119.95176338   180.23038665
 H     14  13  12     2.053983802782   119.96437892   179.40408989
 H     15  14  13     2.051066547873   118.44897246   178.21666558
 H     18  17  16     2.070737710547   111.81851319    43.65079757
 H     18  17  16     2.067735009652   107.74449991   161.98367761
 H     18  17  16     2.067871722740   110.63775493   279.42244428
 H     20  19   9     2.052794848000   120.84111882     0.68843339
 H     21  20  19     2.054904730934   119.79655401   180.35876451
 H     22  21  20     2.053392292755   120.16651280   180.63176510
 H     23  22  21     2.052536355582   119.89374949   180.86261257
 H     26  25  24     2.069019341345   110.42137662    78.09628409
 H     26  25  24     2.067442387681   107.78762243   195.92782072
 H     26  25  24     2.071029254485   112.13353216   314.79684186

---------------------
BASIS SET INFORMATION
---------------------
There are 4 groups of distinct atoms

 Group   1 Type C   : 7s4p1d contracted to 3s2p1d pattern {511/31/1}
 Group   2 Type O   : 7s4p1d contracted to 3s2p1d pattern {511/31/1}
 Group   3 Type P   : 10s7p1d contracted to 4s3p1d pattern {5311/511/1}
 Group   4 Type H   : 4s1p contracted to 2s1p pattern {31/1}

Atom   0C    basis set group =>   1
Atom   1O    basis set group =>   2
Atom   2C    basis set group =>   1
Atom   3C    basis set group =>   1
Atom   4C    basis set group =>   1
Atom   5C    basis set group =>   1
Atom   6C    basis set group =>   1
Atom   7C    basis set group =>   1
Atom   8P    basis set group =>   3
Atom   9O    basis set group =>   2
Atom  10C    basis set group =>   1
Atom  11C    basis set group =>   1
Atom  12C    basis set group =>   1
Atom  13C    basis set group =>   1
Atom  14C    basis set group =>   1
Atom  15C    basis set group =>   1
Atom  16O    basis set group =>   2
Atom  17C    basis set group =>   1
Atom  18C    basis set group =>   1
Atom  19C    basis set group =>   1
Atom  20C    basis set group =>   1
Atom  21C    basis set group =>   1
Atom  22C    basis set group =>   1
Atom  23C    basis set group =>   1
Atom  24O    basis set group =>   2
Atom  25C    basis set group =>   1
Atom  26H    basis set group =>   4
Atom  27H    basis set group =>   4
Atom  28H    basis set group =>   4
Atom  29H    basis set group =>   4
Atom  30H    basis set group =>   4
Atom  31H    basis set group =>   4
Atom  32H    basis set group =>   4
Atom  33H    basis set group =>   4
Atom  34H    basis set group =>   4
Atom  35H    basis set group =>   4
Atom  36H    basis set group =>   4
Atom  37H    basis set group =>   4
Atom  38H    basis set group =>   4
Atom  39H    basis set group =>   4
Atom  40H    basis set group =>   4
Atom  41H    basis set group =>   4
Atom  42H    basis set group =>   4
Atom  43H    basis set group =>   4
Atom  44H    basis set group =>   4
Atom  45H    basis set group =>   4
Atom  46H    basis set group =>   4
---------------------------------
AUXILIARY/J BASIS SET INFORMATION
---------------------------------
There are 4 groups of distinct atoms

 Group   1 Type C   : 12s5p4d2f1g contracted to 6s4p3d1f1g pattern {711111/2111/211/2/1}
 Group   2 Type O   : 12s5p4d2f1g contracted to 6s4p3d1f1g pattern {711111/2111/211/2/1}
 Group   3 Type P   : 14s5p5d2f1g contracted to 8s4p3d1f1g pattern {71111111/2111/311/2/1}
 Group   4 Type H   : 5s2p1d contracted to 3s1p1d pattern {311/2/1}

Atom   0C    basis set group =>   1
Atom   1O    basis set group =>   2
Atom   2C    basis set group =>   1
Atom   3C    basis set group =>   1
Atom   4C    basis set group =>   1
Atom   5C    basis set group =>   1
Atom   6C    basis set group =>   1
Atom   7C    basis set group =>   1
Atom   8P    basis set group =>   3
Atom   9O    basis set group =>   2
Atom  10C    basis set group =>   1
Atom  11C    basis set group =>   1
Atom  12C    basis set group =>   1
Atom  13C    basis set group =>   1
Atom  14C    basis set group =>   1
Atom  15C    basis set group =>   1
Atom  16O    basis set group =>   2
Atom  17C    basis set group =>   1
Atom  18C    basis set group =>   1
Atom  19C    basis set group =>   1
Atom  20C    basis set group =>   1
Atom  21C    basis set group =>   1
Atom  22C    basis set group =>   1
Atom  23C    basis set group =>   1
Atom  24O    basis set group =>   2
Atom  25C    basis set group =>   1
Atom  26H    basis set group =>   4
Atom  27H    basis set group =>   4
Atom  28H    basis set group =>   4
Atom  29H    basis set group =>   4
Atom  30H    basis set group =>   4
Atom  31H    basis set group =>   4
Atom  32H    basis set group =>   4
Atom  33H    basis set group =>   4
Atom  34H    basis set group =>   4
Atom  35H    basis set group =>   4
Atom  36H    basis set group =>   4
Atom  37H    basis set group =>   4
Atom  38H    basis set group =>   4
Atom  39H    basis set group =>   4
Atom  40H    basis set group =>   4
Atom  41H    basis set group =>   4
Atom  42H    basis set group =>   4
Atom  43H    basis set group =>   4
Atom  44H    basis set group =>   4
Atom  45H    basis set group =>   4
Atom  46H    basis set group =>   4


           ************************************************************
           *        Program running with 6 parallel MPI-processes     *
           *              working on a common directory               *
           ************************************************************
------------------------------------------------------------------------------
                             ORCA STARTUP CALCULATIONS
                           -- RI-GTO INTEGRALS CHOSEN --
------------------------------------------------------------------------------
------------------------------------------------------------------------------
                   ___                                                        
                  /   \      - P O W E R E D   B Y -                         
                 /     \                                                     
                 |  |  |   _    _      __       _____    __    __             
                 |  |  |  | |  | |    /  \     |  _  \  |  |  /  |          
                  \  \/   | |  | |   /    \    | | | |  |  | /  /          
                 / \  \   | |__| |  /  /\  \   | |_| |  |  |/  /          
                |  |  |   |  __  | /  /__\  \  |    /   |      \           
                |  |  |   | |  | | |   __   |  |    \   |  |\   \          
                \     /   | |  | | |  |  |  |  | |\  \  |  | \   \       
                 \___/    |_|  |_| |__|  |__|  |_| \__\ |__|  \__/        
                                                                              
                      - O R C A' S   B I G   F R I E N D -                    
                                      &                                       
                       - I N T E G R A L  F E E D E R -                       
                                                                              
 v1 FN, 2020, v2 2021, v3 2022-2024                                           
------------------------------------------------------------------------------


----------------------
SHARK INTEGRAL PACKAGE
----------------------

Number of atoms                             ...     47
Number of basis functions                   ...    473
Number of shells                            ...    221
Maximum angular momentum                    ...      2
Integral batch strategy                     ... SHARK/LIBINT Hybrid
RI-J (if used) integral strategy            ... SPLIT-RIJ (Revised 2003 algorithm where possible)
Printlevel                                  ...      1
Contraction scheme used                     ... SEGMENTED contraction
Prescreening option                         ... SCHWARTZ
   Thresh                                   ... 2.500e-11
   Tcut                                     ... 2.500e-12
   Tpresel                                  ... 2.500e-12 
Coulomb Range Separation                    ... NOT USED
Exchange Range Separation                   ... NOT USED
Multipole approximations                    ... NOT USED
Finite Nucleus Model                        ... NOT USED
CABS basis                                  ... NOT available
Auxiliary Coulomb fitting basis             ... AVAILABLE
   # of basis functions in Aux-J            ...   1507
   # of shells in Aux-J                     ...    497
   Maximum angular momentum in Aux-J        ...      4
Auxiliary J/K fitting basis                 ... NOT available
Auxiliary Correlation fitting basis         ... NOT available
Auxiliary 'external' fitting basis          ... NOT available

Checking pre-screening integrals            ... done (  0.0 sec) Dimension = 221
Check shell pair data                       ... done (  0.0 sec)
Shell pair information
Shell pair cut-off parameter TPreSel        ...   2.5e-12
Total number of shell pairs                 ...     24531
Shell pairs after pre-screening             ...     18287
Total number of primitive shell pairs       ...     90087
Primitive shell pairs kept                  ...     41573
          la=0 lb=0:   5661 shell pairs
          la=1 lb=0:   6830 shell pairs
          la=1 lb=1:   2108 shell pairs
          la=2 lb=0:   2179 shell pairs
          la=2 lb=1:   1308 shell pairs
          la=2 lb=2:    201 shell pairs

Calculating one electron integrals          ... done (  0.0 sec)
Calculating RI/J V-Matrix + Cholesky decomp.... done (  0.1 sec)
Calculating Nuclear repulsion               ... done (  0.0 sec) ENN=   2629.871585338266 Eh

Diagonalization of the overlap matrix:
Smallest eigenvalue                        ... 2.296e-04
Time for diagonalization                   ...    0.032 sec
Threshold for overlap eigenvalues          ... 1.000e-07
Number of eigenvalues below threshold      ... 0
Time for construction of square roots      ...    0.017 sec
Total time needed                          ...    0.052 sec

-------------------
DFT GRID GENERATION
-------------------

General Integration Accuracy     IntAcc      ... 4.388
Radial Grid Type                 RadialGrid  ... OptM3 with GC (2021)
Angular Grid (max. ang.)         AngularGrid ... 4 (Lebedev-302)
Angular grid pruning method      GridPruning ... 4 (adaptive)
Weight generation scheme         WeightScheme... mBecke (2022)
Basis function cutoff            BFCut       ... 1.0000e-11
Integration weight cutoff        WCut        ... 1.0000e-14
Partially contracted basis set               ... off
Rotationally invariant grid construction     ... off
Angular grids for H and He will be reduced by one unit

Total number of grid points                  ...   223092
Total number of batches                      ...     3510
Average number of points per batch           ...       63
Average number of grid points per atom       ...     4747
Initializing property integral containers    ... done (  0.0 sec)

SHARK setup successfully completed in   1.8 seconds

Maximum memory used throughout the entire STARTUP-calculation: 64.2 MB


           ************************************************************
           *        Program running with 6 parallel MPI-processes     *
           *              working on a common directory               *
           ************************************************************
-------------------------------------------------------------------------------
                                 ORCA GUESS
                   Start orbitals & Density for SCF / CASSCF
-------------------------------------------------------------------------------

------------
SCF SETTINGS
------------
Hamiltonian:
 Density Functional     Method          .... DFT(GTOs)
 Exchange Functional    Exchange        .... B88
   X-Alpha parameter    XAlpha          ....  0.666667
   Becke's b parameter  XBeta           ....  0.004200
 Correlation Functional Correlation     .... P86
 LDA part of GGA corr.  LDAOpt          .... PW91-LDA
 Gradients option       PostSCFGGA      .... off
   NL short-range parameter             ....  4.400000
 RI-approximation to the Coulomb term is turned on
   Number of AuxJ basis functions       .... 1507


General Settings:
 Integral files         IntName         .... data/geom_opt_PO_BP86/78464/78464
 Hartree-Fock type      HFTyp           .... RHF
 Total Charge           Charge          ....    0
 Multiplicity           Mult            ....    1
 Number of Electrons    NEL             ....  194
 Basis Dimension        Dim             ....  473
 Nuclear Repulsion      ENuc            ....   2629.8715853383 Eh

Convergence Acceleration:
 AO-DIIS                CNVDIIS         .... on
   Start iteration      DIISMaxIt       ....    12
   Startup error        DIISStart       ....  0.200000
   # of expansion vecs  DIISMaxEq       ....     5
   Bias factor          DIISBfac        ....   1.050
   Max. coefficient     DIISMaxC        ....  10.000
 MO-DIIS                CNVKDIIS        .... off
 Trust-Rad. Augm. Hess. CNVTRAH         .... auto
   Auto Start mean grad. ratio tolernc. ....  1.125000
   Auto Start start iteration           ....    50
   Auto Start num. interpolation iter.  ....    10
   Max. Number of Micro iterations      ....    24
   Max. Number of Macro iterations      .... Maxiter - #DIIS iter
   Number of Davidson start vectors     ....     2
   Converg. threshold    (grad. norm)   ....   1.000e-05
   Grad. Scal. Fac. for Micro threshold ....   0.100
   Minimum threshold for Micro iter.    ....   1.000e-02
   NR start threshold (gradient norm)   ....   1.000e-04
   Initial trust radius                 ....   0.400
   Minimum AH scaling param. (alpha)    ....   1.000
   Maximum AH scaling param. (alpha)    .... 1000.000
   Quad. conv. algorithm                .... NR
   White noise on init. David. guess    .... on
   Maximum white noise                  ....   0.010
   Pseudo random numbers                .... off
   Inactive MOs                         .... canonical
   Orbital update algorithm             .... Taylor
   Preconditioner                       .... Diag
   Full preconditioner red. dimension   ....   250
 SOSCF                  CNVSOSCF        .... on
   Start iteration      SOSCFMaxIt      ....   150
   Startup grad/error   SOSCFStart      ....  0.003300
   Hessian update       SOSCFHessUp     .... L-BFGS
 Level Shifting         CNVShift        .... on
   Level shift para.    LevelShift      ....    0.2500
   Turn off err/grad.   ShiftErr        ....    0.0010
 Zerner damping         CNVZerner       .... off
 Static damping         CNVDamp         .... on
   Fraction old density DampFac         ....    0.7000
   Max. Damping (<1)    DampMax         ....    0.9800
   Min. Damping (>=0)   DampMin         ....    0.0000
   Turn off err/grad.   DampErr         ....    0.1000

SCF Procedure:
 Maximum # iterations   MaxIter         ....   125
 SCF integral mode      SCFMode         .... Direct
   Integral package                     .... SHARK and LIBINT hybrid scheme
 Reset frequency        DirectResetFreq ....    20
 Integral Threshold     Thresh          ....  2.500e-11 Eh
 Primitive CutOff       TCut            ....  2.500e-12 Eh

Convergence Tolerance:
 Convergence Check Mode ConvCheckMode   .... Total+1el-Energy
 Convergence forced     ConvForced      .... 0
 Energy Change          TolE            ....  1.000e-08 Eh
 1-El. energy change                    ....  1.000e-05 Eh
 Orbital Gradient       TolG            ....  1.000e-05
 Orbital Rotation angle TolX            ....  1.000e-05
 DIIS Error             TolErr          ....  5.000e-07

------------------------------
INITIAL GUESS: MODEL POTENTIAL
------------------------------
Loading Hartree-Fock densities                     ... done
Calculating cut-offs                               ... done
Initializing the effective Hamiltonian             ... done
Setting up the integral package (SHARK)            ... done
Starting the Coulomb interaction                   ... done (   0.3 sec)
Making the grid                                    ... done (   0.4 sec)
Mapping shells                                     ... done
Starting the XC term evaluation                    ... done (   0.3 sec)
  promolecular density results
     # of electrons  =    193.992451786
     EX              =   -169.696050807
     EC              =     -7.226301321
     EX+EC           =   -176.922352129
Transforming the Hamiltonian                       ... done (   0.0 sec)
Diagonalizing the Hamiltonian                      ... done (   0.0 sec)
Back transforming the eigenvectors                 ... done (   0.0 sec)
Now organizing SCF variables                       ... done
                      ------------------
                      INITIAL GUESS DONE (   1.0 sec)
                      ------------------
             **** ENERGY FILE WAS UPDATED (data/geom_opt_PO_BP86/78464/78464.en.tmp) ****
Finished Guess after   1.2 sec
Maximum memory used throughout the entire GUESS-calculation: 37.3 MB


           ************************************************************
           *        Program running with 6 parallel MPI-processes     *
           *              working on a common directory               *
           ************************************************************

-------------------------------------------------------------------------------------------
                                      ORCA LEAN-SCF
                              memory conserving SCF solver
-------------------------------------------------------------------------------------------

----------------------------------------D-I-I-S--------------------------------------------
Iteration    Energy (Eh)           Delta-E    RMSDP     MaxDP     DIISErr   Damp  Time(sec)
-------------------------------------------------------------------------------------------
               ***  Starting incremental Fock matrix formation  ***
    1    -1453.6986579000113124     0.00e+00  2.77e-03  1.60e-01  3.34e-01  0.700   1.7
    2    -1453.9560667888385979    -2.57e-01  1.62e-03  6.57e-02  7.54e-02  0.700   1.7
                               ***Turning on AO-DIIS***
    3    -1454.0390876218671110    -8.30e-02  6.09e-04  1.61e-02  3.04e-02  0.700   1.5
    4    -1454.0960319280438853    -5.69e-02  1.02e-03  4.11e-02  1.52e-02  0.000   1.5
    5    -1454.2214098140179885    -1.25e-01  2.43e-04  8.91e-03  7.08e-03  0.000   1.5
    6    -1454.2226229469279133    -1.21e-03  9.73e-05  4.03e-03  4.07e-03  0.000   1.4
                              *** Initializing SOSCF ***
---------------------------------------S-O-S-C-F--------------------------------------
Iteration    Energy (Eh)           Delta-E    RMSDP     MaxDP     MaxGrad    Time(sec)
--------------------------------------------------------------------------------------
    7    -1454.2227060731574966    -8.31e-05  3.59e-05  1.74e-03  2.21e-03     1.6
               *** Restarting incremental Fock matrix formation ***
    8    -1454.2227252806701472    -1.92e-05  2.83e-05  1.29e-03  1.25e-04     2.0
    9    -1454.2227214541462672     3.83e-06  1.51e-05  5.32e-04  3.81e-04     1.3
   10    -1454.2227274168312761    -5.96e-06  1.03e-05  5.47e-04  5.70e-05     1.3
   11    -1454.2227268228825778     5.94e-07  5.89e-06  2.12e-04  9.92e-05     1.4
   12    -1454.2227276636845090    -8.41e-07  5.15e-06  5.54e-04  2.34e-05     1.2
   13    -1454.2227275472137080     1.16e-07  2.93e-06  3.43e-04  2.25e-05     1.3
   14    -1454.2227277173574294    -1.70e-07  1.67e-06  7.71e-05  7.12e-06     1.2
   15    -1454.2227277146912456     2.67e-09  1.12e-06  6.08e-05  1.62e-05     1.2
                 **** Energy Check signals convergence ****

               *****************************************************
               *                     SUCCESS                       *
               *           SCF CONVERGED AFTER  15 CYCLES          *
               *****************************************************

             **** ENERGY FILE WAS UPDATED (data/geom_opt_PO_BP86/78464/78464.en.tmp) ****

----------------
TOTAL SCF ENERGY
----------------

Total Energy       :      -1454.22272771469125 Eh          -39571.41219 eV

Components:
Nuclear Repulsion  :       2629.87158533826596 Eh           71562.44400 eV
Electronic Energy  :      -4084.09431305295720 Eh         -111133.85619 eV
One Electron Energy:      -7218.02662895755202 Eh         -196412.48999 eV
Two Electron Energy:       3133.93231590459482 Eh           85278.63380 eV

Virial components:
Potential Energy   :      -2895.72143528806464 Eh          -78796.58620 eV
Kinetic Energy     :       1441.49870757337317 Eh           39225.17400 eV
Virial Ratio       :          2.00882693829309

DFT components:
N(Alpha)           :       96.999889722080 electrons
N(Beta)            :       96.999889722080 electrons
N(Total)           :      193.999779444160 electrons
E(X)               :     -172.159789402848 Eh       
E(C)               :       -7.224498833937 Eh       
E(XC)              :     -179.384288236785 Eh       

---------------
SCF CONVERGENCE
---------------

  Last Energy change         ...   -2.6662e-09  Tolerance :   1.0000e-08
  Last MAX-Density change    ...    6.0766e-05  Tolerance :   1.0000e-07
  Last RMS-Density change    ...    1.1188e-06  Tolerance :   5.0000e-09
  Last DIIS Error            ...    2.2149e-03  Tolerance :   5.0000e-07
  Last Orbital Gradient      ...    1.6181e-05  Tolerance :   1.0000e-05
  Last Orbital Rotation      ...    2.6052e-05  Tolerance :   1.0000e-05


----------------
ORBITAL ENERGIES
----------------

  NO   OCC          E(Eh)            E(eV) 
   0   2.0000     -76.410464     -2079.2344 
   1   2.0000     -18.813087      -511.9301 
   2   2.0000     -18.791471      -511.3419 
   3   2.0000     -18.787607      -511.2368 
   4   2.0000     -18.697278      -508.7788 
   5   2.0000      -9.976909      -271.4855 
   6   2.0000      -9.972111      -271.3549 
   7   2.0000      -9.968133      -271.2467 
   8   2.0000      -9.967290      -271.2238 
   9   2.0000      -9.948617      -270.7156 
  10   2.0000      -9.946050      -270.6458 
  11   2.0000      -9.923868      -270.0422 
  12   2.0000      -9.922626      -270.0084 
  13   2.0000      -9.922456      -270.0038 
  14   2.0000      -9.920036      -269.9379 
  15   2.0000      -9.919685      -269.9283 
  16   2.0000      -9.919637      -269.9270 
  17   2.0000      -9.918785      -269.9039 
  18   2.0000      -9.918726      -269.9023 
  19   2.0000      -9.917610      -269.8719 
  20   2.0000      -9.916654      -269.8459 
  21   2.0000      -9.915422      -269.8124 
  22   2.0000      -9.915038      -269.8019 
  23   2.0000      -9.914490      -269.7870 
  24   2.0000      -9.913934      -269.7719 
  25   2.0000      -9.912333      -269.7283 
  26   2.0000      -6.367592      -173.2710 
  27   2.0000      -4.589027      -124.8738 
  28   2.0000      -4.588796      -124.8675 
  29   2.0000      -4.588521      -124.8600 
  30   2.0000      -0.974200       -26.5093 
  31   2.0000      -0.958332       -26.0775 
  32   2.0000      -0.954909       -25.9844 
  33   2.0000      -0.833382       -22.6775 
  34   2.0000      -0.776429       -21.1277 
  35   2.0000      -0.774733       -21.0816 
  36   2.0000      -0.772647       -21.0248 
  37   2.0000      -0.697629       -18.9835 
  38   2.0000      -0.682694       -18.5770 
  39   2.0000      -0.677172       -18.4268 
  40   2.0000      -0.674878       -18.3644 
  41   2.0000      -0.672977       -18.3126 
  42   2.0000      -0.670813       -18.2537 
  43   2.0000      -0.628498       -17.1023 
  44   2.0000      -0.614716       -16.7273 
  45   2.0000      -0.611341       -16.6354 
  46   2.0000      -0.583585       -15.8801 
  47   2.0000      -0.556400       -15.1404 
  48   2.0000      -0.549571       -14.9546 
  49   2.0000      -0.536788       -14.6067 
  50   2.0000      -0.531980       -14.4759 
  51   2.0000      -0.528675       -14.3860 
  52   2.0000      -0.503031       -13.6882 
  53   2.0000      -0.483472       -13.1560 
  54   2.0000      -0.475663       -12.9435 
  55   2.0000      -0.461497       -12.5580 
  56   2.0000      -0.440572       -11.9886 
  57   2.0000      -0.435403       -11.8479 
  58   2.0000      -0.433567       -11.7979 
  59   2.0000      -0.428419       -11.6579 
  60   2.0000      -0.426626       -11.6091 
  61   2.0000      -0.425852       -11.5880 
  62   2.0000      -0.417384       -11.3576 
  63   2.0000      -0.411058       -11.1855 
  64   2.0000      -0.406271       -11.0552 
  65   2.0000      -0.393788       -10.7155 
  66   2.0000      -0.392101       -10.6696 
  67   2.0000      -0.390786       -10.6338 
  68   2.0000      -0.382757       -10.4154 
  69   2.0000      -0.381003       -10.3676 
  70   2.0000      -0.375331       -10.2133 
  71   2.0000      -0.373040       -10.1509 
  72   2.0000      -0.368907       -10.0385 
  73   2.0000      -0.341663        -9.2971 
  74   2.0000      -0.340794        -9.2735 
  75   2.0000      -0.333935        -9.0868 
  76   2.0000      -0.331893        -9.0313 
  77   2.0000      -0.326576        -8.8866 
  78   2.0000      -0.323214        -8.7951 
  79   2.0000      -0.320535        -8.7222 
  80   2.0000      -0.312991        -8.5169 
  81   2.0000      -0.311311        -8.4712 
  82   2.0000      -0.302486        -8.2311 
  83   2.0000      -0.297251        -8.0886 
  84   2.0000      -0.292780        -7.9670 
  85   2.0000      -0.290226        -7.8975 
  86   2.0000      -0.270437        -7.3590 
  87   2.0000      -0.243867        -6.6360 
  88   2.0000      -0.240934        -6.5561 
  89   2.0000      -0.235185        -6.3997 
  90   2.0000      -0.231521        -6.3000 
  91   2.0000      -0.229335        -6.2405 
  92   2.0000      -0.214669        -5.8414 
  93   2.0000      -0.212085        -5.7711 
  94   2.0000      -0.208325        -5.6688 
  95   2.0000      -0.199700        -5.4341 
  96   2.0000      -0.193693        -5.2707 
  97   0.0000      -0.061398        -1.6707 
  98   0.0000      -0.057490        -1.5644 
  99   0.0000      -0.046437        -1.2636 
 100   0.0000      -0.043234        -1.1765 
 101   0.0000      -0.035896        -0.9768 
 102   0.0000      -0.034476        -0.9381 
 103   0.0000       0.038172         1.0387 
 104   0.0000       0.041782         1.1370 
 105   0.0000       0.045978         1.2511 
 106   0.0000       0.051118         1.3910 
 107   0.0000       0.054939         1.4950 
*Only the first 10 virtual orbitals were printed.

                    ********************************
                    * MULLIKEN POPULATION ANALYSIS *
                    ********************************

-----------------------
MULLIKEN ATOMIC CHARGES
-----------------------
   0 C :    0.153848
   1 O :   -0.297720
   2 C :    0.081437
   3 C :   -0.005862
   4 C :    0.003212
   5 C :    0.016550
   6 C :   -0.025950
   7 C :   -0.064153
   8 P :    0.676293
   9 O :   -0.474022
  10 C :   -0.136158
  11 C :   -0.017018
  12 C :    0.018058
  13 C :    0.012515
  14 C :   -0.051280
  15 C :    0.161363
  16 O :   -0.288979
  17 C :    0.124780
  18 C :   -0.095013
  19 C :   -0.025865
  20 C :    0.024194
  21 C :    0.007491
  22 C :   -0.003819
  23 C :    0.087958
  24 O :   -0.301621
  25 C :    0.149297
  26 H :    0.012491
  27 H :    0.043196
  28 H :    0.041071
  29 H :   -0.015984
  30 H :   -0.005735
  31 H :   -0.009627
  32 H :    0.006085
  33 H :    0.010542
  34 H :   -0.005134
  35 H :   -0.003065
  36 H :   -0.023209
  37 H :    0.046330
  38 H :    0.048986
  39 H :    0.036227
  40 H :    0.008442
  41 H :   -0.007282
  42 H :   -0.003316
  43 H :   -0.013425
  44 H :    0.015321
  45 H :    0.044277
  46 H :    0.044273
Sum of atomic charges:   -0.0000000

--------------------------------
MULLIKEN REDUCED ORBITAL CHARGES
--------------------------------
  0 C s       :     3.001098  s :     3.001098
      pz      :     0.848434  p :     2.794827
      px      :     0.993223
      py      :     0.953169
      dz2     :     0.012698  d :     0.050227
      dxz     :     0.010051
      dyz     :     0.010386
      dx2y2   :     0.012566
      dxy     :     0.004526

  1 O s       :     3.752783  s :     3.752783
      pz      :     1.192691  p :     4.528203
      px      :     1.616707
      py      :     1.718805
      dz2     :     0.003056  d :     0.016734
      dxz     :     0.005380
      dyz     :     0.003410
      dx2y2   :     0.002232
      dxy     :     0.002656

  2 C s       :     3.048913  s :     3.048913
      pz      :     0.884793  p :     2.796086
      px      :     0.947459
      py      :     0.963834
      dz2     :     0.017558  d :     0.073564
      dxz     :     0.015437
      dyz     :     0.019287
      dx2y2   :     0.011226
      dxy     :     0.010056

  3 C s       :     3.253292  s :     3.253292
      pz      :     0.882748  p :     2.721682
      px      :     0.925698
      py      :     0.913237
      dz2     :     0.006763  d :     0.030888
      dxz     :     0.005394
      dyz     :     0.008729
      dx2y2   :     0.004543
      dxy     :     0.005459

  4 C s       :     3.175920  s :     3.175920
      pz      :     0.942020  p :     2.787199
      px      :     0.972682
      py      :     0.872497
      dz2     :     0.007657  d :     0.033669
      dxz     :     0.005846
      dyz     :     0.009072
      dx2y2   :     0.006489
      dxy     :     0.004605

  5 C s       :     3.163887  s :     3.163887
      pz      :     0.861045  p :     2.786870
      px      :     0.961003
      py      :     0.964822
      dz2     :     0.006678  d :     0.032692
      dxz     :     0.004552
      dyz     :     0.007948
      dx2y2   :     0.006747
      dxy     :     0.006768

  6 C s       :     3.247768  s :     3.247768
      pz      :     0.951844  p :     2.745089
      px      :     0.934073
      py      :     0.859172
      dz2     :     0.007686  d :     0.033094
      dxz     :     0.005523
      dyz     :     0.009189
      dx2y2   :     0.004420
      dxy     :     0.006275

  7 C s       :     3.062105  s :     3.062105
      pz      :     0.931219  p :     2.970600
      px      :     1.041877
      py      :     0.997504
      dz2     :     0.006900  d :     0.031448
      dxz     :     0.005179
      dyz     :     0.008848
      dx2y2   :     0.005518
      dxy     :     0.005003

  8 P s       :     5.206304  s :     5.206304
      pz      :     2.811517  p :     8.640554
      px      :     2.913401
      py      :     2.915636
      dz2     :     0.102676  d :     0.476848
      dxz     :     0.102606
      dyz     :     0.134259
      dx2y2   :     0.064071
      dxy     :     0.073235

  9 O s       :     3.832783  s :     3.832783
      pz      :     1.359271  p :     4.630080
      px      :     1.625434
      py      :     1.645375
      dz2     :     0.004278  d :     0.011158
      dxz     :     0.003292
      dyz     :     0.002791
      dx2y2   :     0.000393
      dxy     :     0.000404

 10 C s       :     3.093373  s :     3.093373
      pz      :     0.968293  p :     3.011687
      px      :     1.009504
      py      :     1.033890
      dz2     :     0.008399  d :     0.031099
      dxz     :     0.008692
      dyz     :     0.006448
      dx2y2   :     0.003619
      dxy     :     0.003941

 11 C s       :     3.263714  s :     3.263714
      pz      :     0.919054  p :     2.720307
      px      :     0.875420
      py      :     0.925833
      dz2     :     0.007538  d :     0.032997
      dxz     :     0.010393
      dyz     :     0.004681
      dx2y2   :     0.005504
      dxy     :     0.004880

 12 C s       :     3.164740  s :     3.164740
      pz      :     0.852863  p :     2.784507
      px      :     0.947415
      py      :     0.984229
      dz2     :     0.007915  d :     0.032695
      dxz     :     0.009974
      dyz     :     0.004925
      dx2y2   :     0.004872
      dxy     :     0.005010

 13 C s       :     3.170090  s :     3.170090
      pz      :     0.966693  p :     2.783630
      px      :     0.867964
      py      :     0.948972
      dz2     :     0.010367  d :     0.033765
      dxz     :     0.009004
      dyz     :     0.007192
      dx2y2   :     0.003375
      dxy     :     0.003827

 14 C s       :     3.251448  s :     3.251448
      pz      :     0.812576  p :     2.769278
      px      :     0.946249
      py      :     1.010454
      dz2     :     0.007774  d :     0.030554
      dxz     :     0.008743
      dyz     :     0.004118
      dx2y2   :     0.005029
      dxy     :     0.004891

 15 C s       :     3.013051  s :     3.013051
      pz      :     0.883244  p :     2.753644
      px      :     0.918375
      py      :     0.952024
      dz2     :     0.019967  d :     0.071942
      dxz     :     0.019866
      dyz     :     0.014794
      dx2y2   :     0.008132
      dxy     :     0.009183

 16 O s       :     3.752857  s :     3.752857
      pz      :     1.316627  p :     4.519733
      px      :     1.559743
      py      :     1.643363
      dz2     :     0.003039  d :     0.016389
      dxz     :     0.005387
      dyz     :     0.002623
      dx2y2   :     0.002338
      dxy     :     0.003002

 17 C s       :     3.024033  s :     3.024033
      pz      :     0.921847  p :     2.801741
      px      :     0.920568
      py      :     0.959325
      dz2     :     0.005612  d :     0.049446
      dxz     :     0.014159
      dyz     :     0.011982
      dx2y2   :     0.004718
      dxy     :     0.012975

 18 C s       :     3.064612  s :     3.064612
      pz      :     1.001561  p :     2.999112
      px      :     1.024271
      py      :     0.973280
      dz2     :     0.003654  d :     0.031289
      dxz     :     0.005849
      dyz     :     0.005075
      dx2y2   :     0.008180
      dxy     :     0.008531

 19 C s       :     3.246472  s :     3.246472
      pz      :     0.946096  p :     2.746331
      px      :     0.849960
      py      :     0.950275
      dz2     :     0.005145  d :     0.033063
      dxz     :     0.003970
      dyz     :     0.005750
      dx2y2   :     0.009604
      dxy     :     0.008595

 20 C s       :     3.160833  s :     3.160833
      pz      :     0.967374  p :     2.782379
      px      :     0.944107
      py      :     0.870898
      dz2     :     0.003396  d :     0.032594
      dxz     :     0.006776
      dyz     :     0.003749
      dx2y2   :     0.009629
      dxy     :     0.009045

 21 C s       :     3.174997  s :     3.174997
      pz      :     0.945182  p :     2.783828
      px      :     0.911759
      py      :     0.926887
      dz2     :     0.003226  d :     0.033685
      dxz     :     0.006676
      dyz     :     0.004717
      dx2y2   :     0.008759
      dxy     :     0.010306

 22 C s       :     3.249663  s :     3.249663
      pz      :     0.984673  p :     2.723299
      px      :     0.808839
      py      :     0.929788
      dz2     :     0.004846  d :     0.030857
      dxz     :     0.004147
      dyz     :     0.005240
      dx2y2   :     0.007976
      dxy     :     0.008648

 23 C s       :     3.050542  s :     3.050542
      pz      :     0.960339  p :     2.788091
      px      :     1.005446
      py      :     0.822305
      dz2     :     0.009442  d :     0.073409
      dxz     :     0.010718
      dyz     :     0.013037
      dx2y2   :     0.019246
      dxy     :     0.020966

 24 O s       :     3.755422  s :     3.755422
      pz      :     1.419960  p :     4.529533
      px      :     1.662300
      py      :     1.447273
      dz2     :     0.003287  d :     0.016666
      dxz     :     0.002409
      dyz     :     0.004147
      dx2y2   :     0.003967
      dxy     :     0.002856

 25 C s       :     3.003988  s :     3.003988
      pz      :     0.810614  p :     2.796658
[...]
      dyz     :     0.006630
      dx2y2   :     0.006107
      dxy     :     0.004907

 25 C s       :     2.870558  s :     2.870558
      pz      :     0.845621  p :     2.955858
      px      :     1.024824
      py      :     1.085413
      dz2     :     0.034971  d :     0.110881
      dxz     :     0.033000
      dyz     :     0.012808
      dx2y2   :     0.009599
      dxy     :     0.020504

 26 H s       :     0.928152  s :     0.928152
      pz      :     0.008683  p :     0.063448
      px      :     0.013353
      py      :     0.041411

 27 H s       :     0.911482  s :     0.911482
      pz      :     0.024195  p :     0.062068
      px      :     0.024677
      py      :     0.013197

 28 H s       :     0.912232  s :     0.912232
      pz      :     0.010013  p :     0.072381
      px      :     0.037562
      py      :     0.024806

 29 H s       :     0.896617  s :     0.896617
      pz      :     0.017063  p :     0.067250
      px      :     0.025119
      py      :     0.025068

 30 H s       :     0.901115  s :     0.901115
      pz      :     0.017848  p :     0.065761
      px      :     0.013077
      py      :     0.034836

 31 H s       :     0.901610  s :     0.901610
      pz      :     0.033860  p :     0.066187
      px      :     0.019928
      py      :     0.012398

 32 H s       :     0.895402  s :     0.895402
      pz      :     0.016625  p :     0.068715
      px      :     0.024129
      py      :     0.027961

 33 H s       :     0.892279  s :     0.892279
      pz      :     0.032035  p :     0.070229
      px      :     0.025270
      py      :     0.012924

 34 H s       :     0.900540  s :     0.900540
      pz      :     0.033797  p :     0.066436
      px      :     0.015238
      py      :     0.017401

 35 H s       :     0.900538  s :     0.900538
      pz      :     0.010929  p :     0.065498
      px      :     0.037356
      py      :     0.017213

 36 H s       :     0.898431  s :     0.898431
      pz      :     0.031701  p :     0.069661
      px      :     0.022171
      py      :     0.015789

 37 H s       :     0.912628  s :     0.912628
      pz      :     0.009337  p :     0.064226
      px      :     0.032019
      py      :     0.022870

 38 H s       :     0.902114  s :     0.902114
      pz      :     0.022853  p :     0.062367
      px      :     0.021748
      py      :     0.017766

 39 H s       :     0.917174  s :     0.917174
      pz      :     0.013663  p :     0.063954
      px      :     0.014088
      py      :     0.036203

 40 H s       :     0.894705  s :     0.894705
      pz      :     0.013497  p :     0.069245
      px      :     0.042437
      py      :     0.013310

 41 H s       :     0.900393  s :     0.900393
      pz      :     0.018452  p :     0.066242
      px      :     0.014573
      py      :     0.033217

 42 H s       :     0.899683  s :     0.899683
      pz      :     0.020496  p :     0.065777
      px      :     0.022879
      py      :     0.022401

 43 H s       :     0.895564  s :     0.895564
      pz      :     0.013735  p :     0.067290
      px      :     0.039933
      py      :     0.013623

 44 H s       :     0.927656  s :     0.927656
      pz      :     0.008883  p :     0.063513
      px      :     0.030428
      py      :     0.024201

 45 H s       :     0.910252  s :     0.910252
      pz      :     0.010071  p :     0.062175
      px      :     0.014757
      py      :     0.037347

 46 H s       :     0.909901  s :     0.909901
      pz      :     0.026929  p :     0.071961
      px      :     0.031038
      py      :     0.013994



                      *****************************
                      * MAYER POPULATION ANALYSIS *
                      *****************************

  NA   - Mulliken gross atomic population
  ZA   - Total nuclear charge
  QA   - Mulliken gross atomic charge
  VA   - Mayer's total valence
  BVA  - Mayer's bonded valence
  FA   - Mayer's free valence

  ATOM       NA         ZA         QA         VA         BVA        FA
  0 C      5.8684     6.0000     0.1316     3.8506     3.8506    -0.0000
  1 O      8.3087     8.0000    -0.3087     2.1905     2.1905    -0.0000
  2 C      5.8970     6.0000     0.1030     4.1131     4.1131    -0.0000
  3 C      6.0127     6.0000    -0.0127     3.8236     3.8236    -0.0000
  4 C      5.9994     6.0000     0.0006     3.7823     3.7823    -0.0000
  5 C      5.9943     6.0000     0.0057     3.8060     3.8060    -0.0000
  6 C      6.0143     6.0000    -0.0143     3.9408     3.9408    -0.0000
  7 C      6.0889     6.0000    -0.0889     3.7700     3.7700    -0.0000
  8 P     14.3095    15.0000     0.6905     4.6534     4.6534    -0.0000
  9 O      8.4549     8.0000    -0.4549     2.1527     2.1527    -0.0000
 10 C      6.1430     6.0000    -0.1430     3.7632     3.7632    -0.0000
 11 C      6.0263     6.0000    -0.0263     3.9316     3.9316    -0.0000
 12 C      5.9880     6.0000     0.0120     3.7841     3.7841    -0.0000
 13 C      5.9981     6.0000     0.0019     3.8304     3.8304    -0.0000
 14 C      6.0814     6.0000    -0.0814     3.8101     3.8101    -0.0000
 15 C      5.8278     6.0000     0.1722     3.9794     3.9794    -0.0000
 16 O      8.2675     8.0000    -0.2675     2.2903     2.2903    -0.0000
 17 C      5.8917     6.0000     0.1083     3.9254     3.9254    -0.0000
 18 C      6.1319     6.0000    -0.1319     3.7673     3.7673    -0.0000
 19 C      6.0191     6.0000    -0.0191     3.9173     3.9173    -0.0000
 20 C      5.9863     6.0000     0.0137     3.8004     3.8004    -0.0000
 21 C      5.9968     6.0000     0.0032     3.7888     3.7888    -0.0000
 22 C      6.0113     6.0000    -0.0113     3.8237     3.8237    -0.0000
 23 C      5.8983     6.0000     0.1017     4.1090     4.1090    -0.0000
 24 O      8.3137     8.0000    -0.3137     2.1810     2.1810    -0.0000
 25 C      5.8709     6.0000     0.1291     3.8520     3.8520    -0.0000
 26 H      0.9870     1.0000     0.0130     0.9876     0.9876    -0.0000
 27 H      0.9577     1.0000     0.0423     0.9875     0.9875     0.0000
 28 H      0.9473     1.0000     0.0527     1.0460     1.0460    -0.0000
 29 H      1.0088     1.0000    -0.0088     0.9945     0.9945    -0.0000
 30 H      0.9965     1.0000     0.0035     0.9788     0.9788    -0.0000
 31 H      1.0017     1.0000    -0.0017     0.9794     0.9794    -0.0000
 32 H      0.9871     1.0000     0.0129     0.9930     0.9930     0.0000
 33 H      0.9837     1.0000     0.0163     1.0206     1.0206     0.0000
 34 H      0.9985     1.0000     0.0015     0.9806     0.9806    -0.0000
 35 H      0.9950     1.0000     0.0050     0.9788     0.9788    -0.0000
 36 H      1.0158     1.0000    -0.0158     0.9969     0.9969     0.0000
 37 H      0.9535     1.0000     0.0465     0.9868     0.9868    -0.0000
 38 H      0.9404     1.0000     0.0596     0.9889     0.9889    -0.0000
 39 H      0.9599     1.0000     0.0401     0.9822     0.9822    -0.0000
 40 H      0.9849     1.0000     0.0151     0.9920     0.9920    -0.0000
 41 H      0.9993     1.0000     0.0007     0.9796     0.9796    -0.0000
 42 H      0.9937     1.0000     0.0063     0.9791     0.9791     0.0000
 43 H      1.0058     1.0000    -0.0058     0.9935     0.9935    -0.0000
 44 H      0.9847     1.0000     0.0153     0.9881     0.9881    -0.0000
 45 H      0.9557     1.0000     0.0443     0.9877     0.9877    -0.0000
 46 H      0.9429     1.0000     0.0571     1.0435     1.0435    -0.0000

  Mayer bond orders larger than 0.100000
B(  0-C ,  1-O ) :   0.9320 B(  0-C , 26-H ) :   0.9557 B(  0-C , 27-H ) :   0.9758 
B(  0-C , 28-H ) :   0.9386 B(  1-O ,  2-C ) :   1.1246 B(  2-C ,  3-C ) :   1.3912 
B(  2-C ,  7-C ) :   1.3600 B(  3-C ,  4-C ) :   1.3474 B(  3-C , 29-H ) :   0.9747 
B(  4-C ,  5-C ) :   1.3580 B(  4-C , 30-H ) :   0.9719 B(  5-C ,  6-C ) :   1.3881 
B(  5-C , 31-H ) :   0.9762 B(  6-C ,  7-C ) :   1.3824 B(  6-C , 32-H ) :   0.9574 
B(  7-C ,  8-P ) :   0.8723 B(  8-P ,  9-O ) :   1.7778 B(  8-P , 10-C ) :   0.8784 
B(  8-P , 18-C ) :   0.8510 B( 10-C , 11-C ) :   1.4146 B( 10-C , 15-C ) :   1.3157 
B( 11-C , 12-C ) :   1.3447 B( 11-C , 33-H ) :   0.9659 B( 12-C , 13-C ) :   1.3774 
B( 12-C , 34-H ) :   0.9821 B( 13-C , 14-C ) :   1.3511 B( 13-C , 35-H ) :   0.9715 
B( 14-C , 15-C ) :   1.3200 B( 14-C , 36-H ) :   0.9779 B( 15-C , 16-O ) :   1.1679 
B( 16-O , 17-C ) :   0.9685 B( 17-C , 37-H ) :   0.9594 B( 17-C , 38-H ) :   0.9701 
B( 17-C , 39-H ) :   0.9586 B( 18-C , 19-C ) :   1.3849 B( 18-C , 23-C ) :   1.3560 
B( 19-C , 20-C ) :   1.3798 B( 19-C , 40-H ) :   0.9591 B( 20-C , 21-C ) :   1.3642 
B( 20-C , 41-H ) :   0.9760 B( 21-C , 22-C ) :   1.3454 B( 21-C , 42-H ) :   0.9711 
B( 22-C , 23-C ) :   1.3897 B( 22-C , 43-H ) :   0.9745 B( 23-C , 24-O ) :   1.1119 
B( 24-O , 25-C ) :   0.9289 B( 25-C , 44-H ) :   0.9578 B( 25-C , 45-H ) :   0.9760 
B( 25-C , 46-H ) :   0.9400 

-------
TIMINGS
-------

Total SCF time: 0 days 0 hours 0 min 9 sec 

Total time                  ....       9.118 sec
Sum of individual times     ....       8.991 sec  ( 98.6%)

SCF preparation             ....       0.175 sec  (  1.9%)
Fock matrix formation       ....       8.024 sec  ( 88.0%)
  Startup                   ....       0.036 sec  (  0.4% of F)
  Split-RI-J                ....       3.273 sec  ( 40.8% of F)
  XC integration            ....       4.603 sec  ( 57.4% of F)
    Basis function eval.    ....       1.336 sec  ( 29.0% of XC)
    Density eval.           ....       1.564 sec  ( 34.0% of XC)
    XC-Functional eval.     ....       0.105 sec  (  2.3% of XC)
    XC-Potential eval.      ....       0.997 sec  ( 21.7% of XC)
Diagonalization             ....       0.000 sec  (  0.0%)
Density matrix formation    ....       0.087 sec  (  1.0%)
Total Energy calculation    ....       0.029 sec  (  0.3%)
Population analysis         ....       0.146 sec  (  1.6%)
Orbital Transformation      ....       0.075 sec  (  0.8%)
Orbital Orthonormalization  ....       0.000 sec  (  0.0%)
DIIS solution               ....       0.088 sec  (  1.0%)
SOSCF solution              ....       0.367 sec  (  4.0%)
Finished LeanSCF after   9.2 sec

Maximum memory used throughout the entire LEANSCF-calculation: 55.4 MB


-------------------------------------------------------------------------------
                          DFT DISPERSION CORRECTION                            
                                                                               
                              DFTD3 V3.1  Rev 1                                
                          USING Becke-Johnson damping                          
-------------------------------------------------------------------------------
The BP86 functional is recognized
Active option DFTDOPT                   ...         4   

molecular C6(AA) [au] = 27146.077487 


            DFT-D V3
 parameters
 s6 scaling factor         :     1.0000 
 a1 scaling factor         :     0.3946 
 s8 scaling factor         :     3.2822 
 a2 scaling factor         :     4.8516 
 ad hoc parameters k1-k3   :    16.0000     1.3333    -4.0000 

 Edisp/kcal,au: -72.369594757442  -0.115328277945 
 E6   /kcal   : -26.782904841 
 E8   /kcal   : -45.586689916 
 % E8         :  62.991495350 

-------------------------   ----------------
Dispersion correction           -0.115328278
-------------------------   ----------------


-------------------------   --------------------
FINAL SINGLE POINT ENERGY     -1454.355073562127
-------------------------   --------------------

                                *** OPTIMIZATION RUN DONE ***



           ************************************************************
           *        Program running with 6 parallel MPI-processes     *
           *              working on a common directory               *
           ************************************************************

------------------------------------------------------------------------------
                              ORCA PROPERTY CALCULATIONS
------------------------------------------------------------------------------

GBWName                                 ... data/geom_opt_PO_BP86/78464/78464.gbw
Number of atoms                         ...     47
Number of basis functions               ...    473
Max core memory                         ...   1024 MB

Electric properties:
Dipole moment                           ... YES
Quadrupole moment                       ...  NO
Static polarizability (Dipole/Dipole)   ...  NO
Static polarizability (Dipole/Quad.)    ...  NO
Static polarizability (Quad./Quad.)     ...  NO
Static polarizability (Velocity)        ...  NO

Atomic electric properties:
Dipole moment                           ...  NO
Quadrupole moment                       ...  NO
Static polarizability                   ...  NO

Choice of electric origin               ... Center of mass
Position of electric origin             ...     0.076279    -0.046445     0.159657

General magnetic properties:
Magnetizability                         ...  NO

EPR properties:
g-Tensor (aka g-matrix)                 ...  NO
Zero-Field splitting spin-orbit         ...  NO
Zero-field splitting spin-spin          ...  NO
Hyperfine couplings                     ...  NO (   0 nuclei)
Quadrupole couplings                    ...  NO (   0 nuclei)
Contact density                         ...  NO (   0 nuclei)

NMR properties:
Chemical shifts                         ...  NO (   0 nuclei)
Spin-rotation constants                 ...  NO (   0 nuclei)
Spin-spin couplings                     ...  NO (   0 nuclei,    0 pairs)

Choice of magnetic origin               ... GIAO
Position of magnetic origin             ...     0.000000     0.000000     0.000000

Properties with geometric perturbations:
SCF Hessian                             ...  NO
IR spectrum                             ...  NO
VCD spectrum                            ...  NO
X-ray spectroscopy properties:
SCF XES/XAS/RIXS spectra                ...  NO


-------------
DIPOLE MOMENT
-------------

Method             : SCF
Type of density    : Electron Density
Multiplicity       :   1
Irrep              :   0
Energy             : -1454.2397452841819359 Eh
Relativity type    : 
Basis              : AO
                                X                 Y                 Z
Electronic contribution:      0.898136375      -1.930436539       1.489076452
Nuclear contribution   :     -1.353519031       1.760302518      -2.731873575
                        -----------------------------------------
Total Dipole Moment    :     -0.455382655      -0.170134021      -1.242797123
                        -----------------------------------------
Magnitude (a.u.)       :      1.334490029
Magnitude (Debye)      :      3.392004086



--------------------
Rotational spectrum 
--------------------
 
Rotational constants in cm-1:             0.007935             0.006659             0.005346 
Rotational constants in MHz :           237.878366           199.639779           160.270999 

Dipole components along the rotational axes: 
x,y,z [a.u.] :     0.120308    -0.391186    -1.270182 
x,y,z [Debye]:     0.305798    -0.994316    -3.228547 

 

Dipole moment calculation done in   0.0 sec 

Maximum memory used throughout the entire PROP-calculation: 29.4 MB

--------------------------------
SUGGESTED CITATIONS FOR THIS RUN
--------------------------------

Below you find a list of papers that are relevant to this ORCA run
We neither can nor want to force you to cite these papers, but we appreciate if you do
You receive ORCA, which is the product of decades of hard work by many enthusiastic individuals, for free
The only thing we kindly ask in return is that you cite our papers,
We deeply appreciate it, if you show your appreciation for ORCA by not just citing the generic ORCA reference.

Please note that relegating all ORCA citations to the supporting information does *not* help us.
SI sections are not indexed - citations you put there will not count into any citation statistics
But we need these citations in order to attract the funding resources that allow us to do what we are doing

Therefore, if you are a happy ORCA user, please consider citing a few of the papers listed below in the main body of your paper

In addition to the list printed below, the program has created the file data/geom_opt_PO_BP86/78464/78464.bibtex that contains the list in bibtex format
You can import this file easily into all common literature databanks and citation aid programs


List of essential papers. We consider these as the minimum necessary citations

  1. Neese,F.
     Software update: the ORCA program system, version 5.0
     WIRES Comput. Molec. Sci., 2022 12(1)e1606
     doi.org/10.1002/wcms.1606

List of papers to cite with high priority. The work reported in these papers was absolutely
necessary for this run to complete.
Our perspective: the developers of density functionals and basis sets usually get cited in chemistry papers
Good! But without the algorithms to do something with them, the functionals or basis sets would not do anything.
Hence, in our opinion, the algorithm design and method developments papers are equally worthy of getting cited

  1. Neese,F.
     An improvement of the resolution of the identity approximation for the formation of the Coulomb matrix
     J. Comp. Chem., 2003 24(14)1740-1747
     doi.org/10.1002/jcc.10318
  2. Neese,F.
     The SHARK Integral Generation and Digestion System
     J. Comp. Chem., 2022  1-16
     doi.org/10.1002/jcc.26942
  3. Grimme,S.; Antony,J.; Ehrlich,S.; Krieg,H.
     A consistent and accurate ab initio parametrization of density functional dispersion correction (DFT-D) for the 94 elements H-Pu
     J. Chem. Phys., 2010 132 154104-XXXX
     doi.org/10.1063/1.3382344
  4. Grimme,S.; Ehrlich,S.; Goerigk,L.
     Effect of the damping function in dispersion corrected density functional theory
     J. Comput. Chem., 2011 32(7)1456-1465
     doi.org/10.1002/jcc.21759

List of suggested additional citations. These are papers that are important in the 'surrounding' of 
of this run, or papers that preceded the highly important papers. If you like your results we are grateful for a citation.

  1. Neese,F.
     The ORCA program system
     WIRES Comput. Molec. Sci., 2012 2(1)73-78
     doi.org/10.1002/wcms.81
  2. Neese,F.
     Software update: the ORCA program system, version 4.0
     WIRES Comput. Molec. Sci., 2018 8(1)1-6
     doi.org/10.1002/wcms.1327
  3. Neese,F.; Wennmohs,F.; Becker,U.; Riplinger,C.
     The ORCA quantum chemistry program package
     J. Chem. Phys., 2020 152 Art. No. L224108
     doi.org/10.1063/5.0004608

List of optional additional citations

  1. Neese,F.
     Approximate second-order SCF convergence for spin unrestricted wavefunctions
     Chem. Phys. Lett., 2000 325(1-3)93-98
     doi.org/10.1016/s0009-2614(00)00662-x

Timings for individual modules:

Sum of individual times          ...      467.116 sec (=   7.785 min)
Startup calculation              ...       31.284 sec (=   0.521 min)   6.7 %
SCF iterations                   ...      291.997 sec (=   4.867 min)  62.5 %
Property calculations            ...        0.239 sec (=   0.004 min)   0.1 %
SCF Gradient evaluation          ...      143.164 sec (=   2.386 min)  30.6 %
Geometry relaxation              ...        0.432 sec (=   0.007 min)   0.1 %
                             ****ORCA TERMINATED NORMALLY****
TOTAL RUN TIME: 0 days 0 hours 7 minutes 50 seconds 525 msec
