
                                 *****************
                                 * O   R   C   A *
                                 *****************

                                            #,                                       
                                            ###                                      
                                            ####                                     
                                            #####                                    
                                            ######                                   
                                           ########,                                 
                                     ,,################,,,,,                         
                               ,,#################################,,                 
                          ,,##########################################,,             
                       ,#########################################, ''#####,          
                    ,#############################################,,   '####,        
                  ,##################################################,,,,####,       
                ,###########''''           ''''###############################       
              ,#####''   ,,,,##########,,,,          '''####'''          '####       
            ,##' ,,,,###########################,,,                        '##       
           ' ,,###''''                  '''############,,,                           
         ,,##''                                '''############,,,,        ,,,,,,###''
      ,#''                                            '''#######################'''  
     '                                                          ''''####''''         
             ,#######,   #######,   ,#######,      ##                                
            ,#'     '#,  ##    ##  ,#'     '#,    #''#        ,####,   ,####,        
            ##       ##  ##   ,#'  ##            #'  '#       #'       #'  '#        
            ##       ##  #######   ##           ,######,      #####,   #    #        
            '#,     ,#'  ##    ##  '#,     ,#' ,#      #,     #,   #   #,  ,#        
             '#######'   ##     ##  '#######'  #'      '#     '####' # '####'        



                #########################################################
                #                        -***-                          #
                #          Department of theory and spectroscopy        #
                #                                                       #
                #                      Frank Neese                      #
                #                                                       #
                #     Directorship, Architecture, Infrastructure        #
                #                    SHARK, DRIVERS                     #
                #        Core code/Algorithms in most modules           #
                #                                                       #
                #        Max Planck Institute fuer Kohlenforschung      #
                #                Kaiser Wilhelm Platz 1                 #
                #                 D-45470 Muelheim/Ruhr                 #
                #                      Germany                          #
                #                                                       #
                #                  All rights reserved                  #
                #                        -***-                          #
                #########################################################


                         Program Version 6.0.0  -   RELEASE   -


 With contributions from (in alphabetic order):
   Daniel Aravena         : Magnetic Suceptibility
   Michael Atanasov       : Ab Initio Ligand Field Theory (pilot matlab implementation)
   Alexander A. Auer      : GIAO ZORA, VPT2 properties, NMR spectrum
   Ute Becker             : All parallelization in ORCA, NUMFREQ, NUMCALC
   Giovanni Bistoni       : ED, misc. LED, open-shell LED, HFLD
   Martin Brehm           : Molecular dynamics
   Dmytro Bykov           : pre 5.0 version of the SCF Hessian
   Marcos Casanova-Páez   : Triplet and SCS-CIS(D). UHF-(DLPNO)-IP/EA/STEOM-CCSD. UHF-CVS-IP/STEOM-CCSD
   Vijay G. Chilkuri      : MRCI spin determinant printing, contributions to CSF-ICE
   Pauline Colinet        : FMM embedding
   Dipayan Datta          : RHF DLPNO-CCSD density
   Achintya Kumar Dutta   : EOM-CC, STEOM-CC
   Nicolas Foglia         : Exact transition moments, OPA infrastructure, MCD improvements
   Dmitry Ganyushin       : Spin-Orbit,Spin-Spin,Magnetic field MRCI
   Miquel Garcia          : C-PCM and meta-GGA Hessian, CCSD/C-PCM, Gaussian charge scheme
   Tiago L. C. Gouveia    : GS-ROHF, GS-ROCIS
   Yang Guo               : DLPNO-NEVPT2, F12-NEVPT2, CIM, IAO-localization
   Andreas Hansen         : Spin unrestricted coupled pair/coupled cluster methods
   Ingolf Harden          : AUTO-CI MPn and infrastructure 
   Benjamin Helmich-Paris : MC-RPA, TRAH-(SCF,CASSCF), AVAS, COSX integrals, SCF dyn. polar.
   Lee Huntington         : MR-EOM, pCC
   Robert Izsak           : Overlap fitted RIJCOSX, COSX-SCS-MP3, EOM
   Riya Kayal             : Wick's Theorem for AUTO-CI, AUTO-CI UHF-CCSDT
   Emily Kempfer          : AUTO-CI, RHF CISDT and CCSDT
   Christian Kollmar      : KDIIS, OOCD, Brueckner-CCSD(T), CCSD density, CASPT2, CASPT2-K, improved NEVPT2
   Axel Koslowski         : Symmetry handling
   Simone Kossmann        : Meta GGA functionals, TD-DFT gradient, OOMP2, (MP2 Hessian; deprecated post 5.0)
   Lucas Lang             : DCDCAS
   Marvin Lechner         : AUTO-CI (C++ implementation), FIC-MRCC
   Spencer Leger          : CASSCF response
   Dagmar Lenk            : GEPOL surface, SMD, ORCA-2-JSON
   Dimitrios Liakos       : Extrapolation schemes; Compound Job, initial MDCI parallelization
   Dimitrios Manganas     : Further ROCIS development; embedding schemes. LFT, Crystal Embedding
   Dimitrios Pantazis     : SARC Basis sets
   Anastasios Papadopoulos: AUTO-CI, single reference methods and gradients
   Taras Petrenko         : pre 6.0 DFT Hessian and TD-DFT gradient, (ASA, deprecated), ECA, 1-Electron XAS/XES, NRVS
   Peter Pinski           : DLPNO-MP2, DLPNO-MP2 Gradient
   Christoph Reimann      : Effective Core Potentials
   Marius Retegan         : Local ZFS, SOC
   Christoph Riplinger    : Optimizer, TS searches, QM/MM, DLPNO-CCSD(T), (RO)-DLPNO pert. Triples
   Michael Roemelt        : Original ROCIS implementation
   Masaaki Saitow         : Open-shell DLPNO-CCSD energy and density
   Barbara Sandhoefer     : DKH picture change effects
   Kantharuban Sivalingam : CASSCF convergence/infrastructure, NEVPT2 and variants, FIC-MRCI
   Bernardo de Souza      : ESD, SOC TD-DFT
   Georgi Stoychev        : AutoAux, RI-MP2 NMR, DLPNO-MP2 response, X2C
   Van Anh Tran           : RI-MP2 g-tensors
   Willem Van den Heuvel  : Paramagnetic NMR
   Zikuan Wang            : NOTCH, Electric field optimization 
   Frank Wennmohs         : Technical directorship and infrastructure
   Hang Xu                : AUTO-CI-Response properties 


 We gratefully acknowledge several colleagues who have allowed us to
 interface, adapt or use parts of their codes:
   Stefan Grimme, W. Hujo, H. Kruse, P. Pracht,  : VdW corrections, initial TS optimization,
                  C. Bannwarth, S. Ehlert,         DFT functionals, gCP, sTDA/sTD-DF
                  L. Wittmann, M. Mueller
   Ed Valeev, F. Pavosevic, A. Kumar             : LibInt (2-el integral package), F12 methods
   Garnet Chan, S. Sharma, J. Yang, R. Olivares  : DMRG
   Ulf Ekstrom                                   : XCFun DFT Library
   Mihaly Kallay                                 : mrcc  (arbitrary order and MRCC methods)
   Frank Weinhold                                : gennbo (NPA and NBO analysis)
   Simon Mueller                                 : openCOSMO-RS
   Christopher J. Cramer and Donald G. Truhlar   : smd solvation model
   Lars Goerigk                                  : TD-DFT with DH, B97 family of functionals
   V. Asgeirsson, H. Jonsson                     : NEB implementation
   FAccTs GmbH                                   : IRC, NEB, NEB-TS, DLPNO-Multilevel, CI-OPT
                                                   MM, QMMM, 2- and 3-layer-ONIOM, Crystal-QMMM,
                                                   LR-CPCM, SF, NACMEs, symmetry and pop. for TD-DFT,
                                                   nearIR, NL-DFT gradient (VV10), updates on ESD,
                                                   ML-optimized integration grids, MBIS, APM,
                                                   GOAT, DOCKER, SOLVATOR, interface openCOSMO-RS
   S Lehtola, MJT Oliveira, MAL Marques          : LibXC Library
   Liviu Ungur et al                             : ANISO software


 Your calculation uses the libint2 library for the computation of 2-el integrals
 For citations please refer to: http://libint.valeyev.net

 Your ORCA version has been built with support for libXC version: 6.2.2
 For citations please refer to: https://libxc.gitlab.io

 This ORCA versions uses:
   CBLAS   interface :  Fast vector & matrix operations
   LAPACKE interface :  Fast linear algebra routines
   Shared memory     :  Shared parallel matrices


Your calculation utilizes the atom-pairwise dispersion correction
with the Becke-Johnson damping scheme (D3BJ)


Warning: RI is on but no J-basis has been assigned. Assigning Def2/J (nothing to worry about!)
================================================================================

----- Orbital basis set information -----
Your calculation utilizes the basis: def2-SVP
   F. Weigend and R. Ahlrichs, Phys. Chem. Chem. Phys. 7, 3297 (2005).

----- AuxJ basis set information -----
Your calculation utilizes the auxiliary basis: def2/J
   F. Weigend, Phys. Chem. Chem. Phys. 8, 1057 (2006).

================================================================================
                                        WARNINGS
                       Please study these warnings very carefully!
================================================================================


WARNING: Geometry Optimization
  ===> : Switching off AutoStart
         For restart on a previous wavefunction, please use MOREAD

================================================================================
                                       INPUT FILE
================================================================================
NAME = data/geom_opt/195868/195868.inp
|  1> ! RIJONX B3LYP def2-SVP D3BJ TIGHTSCF Opt
|  2> %pal
|  3> nprocs 6
|  4> end
|  5> 
|  6> * xyz 0 1
|  7> C     -2.984481   -2.565342    2.341324
|  8> C     -3.582369   -1.376507    1.936627
|  9> C     -3.054390   -0.659794    0.858701
| 10> C     -1.906826   -1.104362    0.176727
| 11> C     -1.343104   -2.324505    0.580796
| 12> C     -1.868955   -3.042494    1.660095
| 13> P     -1.280218   -0.151172   -1.246387
| 14> C     -1.086634    1.554312   -0.613191
| 15> C     -0.883669    1.880072    0.736494
| 16> C     -0.737050    3.209933    1.142857
| 17> C     -0.789658    4.237448    0.205498
| 18> C     -0.987305    3.936425   -1.138707
| 19> C     -1.133559    2.606629   -1.543983
| 20> C      0.466984   -0.646533   -1.413530
| 21> C      1.404680   -0.542845   -0.377422
| 22> C      2.731022   -0.935995   -0.586628
| 23> C      3.152012   -1.427583   -1.822409
| 24> C      2.228139   -1.537513   -2.857266
| 25> C      0.899221   -1.150152   -2.653621
| 26> S      3.901406   -0.761709    0.728688
| 27> O      5.187603   -0.447480    0.143713
| 28> O      3.714731   -1.875896    1.628993
| 29> O      3.459333    0.587065    1.496647
| 30> H     -3.393329   -3.125406    3.178038
| 31> H     -4.463515   -1.006042    2.453939
| 32> H     -3.554063    0.259581    0.557010
| 33> H     -0.487529   -2.748297    0.060375
| 34> H     -1.407409   -3.979667    1.961425
| 35> H     -0.830714    1.105202    1.497910
| 36> H     -0.581663    3.439539    2.194018
| 37> H     -0.676860    5.270871    0.522265
| 38> H     -1.028560    4.734839   -1.875053
| 39> H     -1.285533    2.401020   -2.602101
| 40> H      1.109657   -0.170828    0.600766
| 41> H      4.186103   -1.724351   -1.983154
| 42> H      2.537687   -1.921836   -3.826451
| 43> H      0.198812   -1.245294   -3.482540
| 44> H      4.170004    1.248670    1.359537
| 45> **                         ****END OF INPUT****
================================================================================

                       *****************************
                       * Geometry Optimization Run *
                       *****************************

Geometry optimization settings:
Update method            Update   .... BFGS
Choice of coordinates    CoordSys .... (2022) Redundant Internals
Initial Hessian          InHess   .... Almloef's Model
Max. no of cycles        MaxIter  .... 114

Convergence Tolerances:
Energy Change            TolE     ....  5.0000e-06 Eh
Max. Gradient            TolMAXG  ....  3.0000e-04 Eh/bohr
RMS Gradient             TolRMSG  ....  1.0000e-04 Eh/bohr
Max. Displacement        TolMAXD  ....  4.0000e-03 bohr
RMS Displacement         TolRMSD  ....  2.0000e-03 bohr
Strict Convergence                .... False

------------------------------------------------------------------------------
                        ORCA OPTIMIZATION COORDINATE SETUP
------------------------------------------------------------------------------

The optimization will be done in redundant internal coordinates (2022)
Making redundant internal coordinates   ...  (2022 redundants) done
Evaluating the initial hessian          ...  (Almloef) done
Evaluating the coordinates              ...  done
Calculating the B-matrix                .... done
Calculating the G-matrix                .... done
Diagonalizing the G-matrix              .... done
Small eigenvalue found = 3.736e-03
Small eigenvalue found = 4.433e-03
Small eigenvalue found = 6.966e-03
Small eigenvalue found = 1.408e-02
Small eigenvalue found = 2.712e-02
The first mode is                       ....   88
The number of degrees of freedom        ....  108

    -----------------------------------------------------------------
                    Redundant Internal Coordinates


    -----------------------------------------------------------------
         Definition                    Initial Value    Approx d2E/dq
    -----------------------------------------------------------------
      1. B(C   1,C   0)                  1.3909         0.622754   
      2. B(C   2,C   1)                  1.3980         0.606734   
      3. B(C   3,C   2)                  1.4070         0.586983   
      4. B(C   4,C   3)                  1.4035         0.594573   
      5. B(C   5,C   4)                  1.3989         0.604705   
      6. B(C   5,C   0)                  1.3915         0.621467   
      7. B(P   6,C   3)                  1.8239         0.426617   
      8. B(C   7,P   6)                  1.8295         0.417860   
      9. B(C   8,C   7)                  1.4032         0.595227   
     10. B(C   9,C   8)                  1.3983         0.606101   
     11. B(C  10,C   9)                  1.3918         0.620605   
     12. B(C  11,C  10)                  1.3916         0.621122   
     13. B(C  12,C  11)                  1.3979         0.607027   
     14. B(C  12,C   7)                  1.4057         0.589815   
     15. B(C  13,P   6)                  1.8237         0.426801   
     16. B(C  14,C  13)                  1.4013         0.599467   
     17. B(C  15,C  14)                  1.3991         0.604226   
     18. B(C  16,C  15)                  1.3950         0.613408   
     19. B(C  17,C  16)                  1.3916         0.621131   
     20. B(C  18,C  17)                  1.3991         0.604206   
     21. B(C  18,C  13)                  1.4065         0.588015   
     22. B(S  19,C  15)                  1.7692         0.418258   
     23. B(O  20,S  19)                  1.4475         1.221562   
     24. B(O  21,S  19)                  1.4446         1.234711   
     25. B(O  22,S  19)                  1.6138         0.663086   
     26. B(H  23,C   0)                  1.0867         0.364491   
     27. B(H  24,C   1)                  1.0869         0.364272   
     28. B(H  25,C   2)                  1.0890         0.361413   
     29. B(H  26,C   4)                  1.0874         0.363551   
     30. B(H  27,C   5)                  1.0873         0.363753   
     31. B(H  28,C   8)                  1.0876         0.363222   
     32. B(H  29,C   9)                  1.0871         0.363946   
     33. B(H  30,C  10)                  1.0868         0.364424   
     34. B(H  31,C  11)                  1.0869         0.364212   
     35. B(H  32,C  12)                  1.0886         0.361997   
     36. B(H  33,C  14)                  1.0873         0.363649   
     37. B(H  34,C  16)                  1.0878         0.363055   
     38. B(H  35,C  17)                  1.0876         0.363307   
     39. B(H  36,C  18)                  1.0894         0.360932   
     40. B(H  37,O  22)                  0.9806         0.482062   
     41. A(C   5,C   0,H  23)          120.1222         0.353775   
     42. A(C   1,C   0,C   5)          119.6874         0.434597   
     43. A(C   1,C   0,H  23)          120.1863         0.353900   
     44. A(C   2,C   1,H  24)          119.8966         0.352306   
     45. A(C   0,C   1,H  24)          120.0893         0.353863   
     46. A(C   0,C   1,C   2)          120.0133         0.432725   
     47. A(C   3,C   2,H  25)          120.4445         0.349875   
     48. A(C   1,C   2,C   3)          121.3173         0.428154   
     49. A(C   1,C   2,H  25)          118.2381         0.351837   
     50. A(C   4,C   3,P   6)          122.7515         0.429764   
     51. A(C   2,C   3,C   4)          117.5641         0.426603   
     52. A(C   2,C   3,P   6)          119.5566         0.428775   
     53. A(C   3,C   4,H  26)          121.1347         0.350984   
     54. A(C   3,C   4,C   5)          121.1543         0.428884   
     55. A(C   5,C   4,H  26)          117.7091         0.351988   
     56. A(C   4,C   5,H  27)          119.7794         0.352021   
     57. A(C   0,C   5,H  27)          120.0146         0.353654   
     58. A(C   0,C   5,C   4)          120.2045         0.432304   
     59. A(C   7,P   6,C  13)          100.5768         0.430383   
     60. A(C   3,P   6,C  13)          104.9930         0.431989   
     61. A(C   3,P   6,C   7)          104.6842         0.430350   
     62. A(C   8,C   7,C  12)          117.9009         0.427055   
     63. A(P   6,C   7,C   8)          124.3763         0.428253   
     64. A(P   6,C   7,C  12)          117.7205         0.427552   
     65. A(C   9,C   8,H  28)          117.9705         0.352072   
     66. A(C   7,C   8,H  28)          120.9980         0.350996   
     67. A(C   7,C   8,C   9)          121.0309         0.429146   
     68. A(C   8,C   9,H  29)          119.7932         0.352190   
     69. A(C   8,C   9,C  10)          120.1617         0.432376   
     70. A(C  10,C   9,H  29)          120.0451         0.353603   
     71. A(C   9,C  10,H  30)          120.1187         0.353681   
     72. A(C   9,C  10,C  11)          119.7494         0.434284   
     73. A(C  11,C  10,H  30)          120.1319         0.353731   
     74. A(C  12,C  11,H  31)          119.8956         0.352325   
     75. A(C  10,C  11,H  31)          120.0586         0.353696   
     76. A(C  10,C  11,C  12)          120.0459         0.432559   
     77. A(C  11,C  12,H  32)          118.4315         0.351961   
     78. A(C   7,C  12,H  32)          120.4577         0.350255   
     79. A(C   7,C  12,C  11)          121.1109         0.428561   
     80. A(C  14,C  13,C  18)          118.2142         0.427365   
     81. A(P   6,C  13,C  18)          118.1950         0.428943   
     82. A(P   6,C  13,C  14)          123.5888         0.430430   
     83. A(C  15,C  14,H  33)          119.2010         0.351957   
     84. A(C  13,C  14,H  33)          120.5932         0.351487   
     85. A(C  13,C  14,C  15)          120.1999         0.429454   
     86. A(C  16,C  15,S  19)          119.5812         0.425997   
     87. A(C  14,C  15,S  19)          119.2266         0.424848   
     88. A(C  14,C  15,C  16)          121.1693         0.431230   
     89. A(C  17,C  16,H  34)          119.9791         0.353507   
     90. A(C  15,C  16,H  34)          120.9264         0.352759   
     91. A(C  15,C  16,C  17)          119.0944         0.433374   
     92. A(C  16,C  17,H  35)          120.1089         0.353548   
     93. A(C  16,C  17,C  18)          120.0311         0.432198   
     94. A(C  18,C  17,H  35)          119.8598         0.351899   
     95. A(C  17,C  18,H  36)          118.4084         0.351509   
     96. A(C  13,C  18,H  36)          120.3026         0.349900   
     97. A(C  13,C  18,C  17)          121.2889         0.427968   
     98. A(C  15,S  19,O  21)          107.5698         0.508574   
     99. A(C  15,S  19,O  20)          107.9835         0.507558   
    100. A(O  21,S  19,O  22)          108.2188         0.551441   
    101. A(O  20,S  19,O  22)          104.7313         0.550321   
    102. A(C  15,S  19,O  22)          104.7674         0.453501   
    103. A(O  20,S  19,O  21)          122.2846         0.620023   
    104. A(S  19,O  22,H  37)          107.3871         0.389647   
    105. D(H  24,C   1,C   0,H  23)     -0.2555         0.026851   
    106. D(H  24,C   1,C   0,C   5)    179.0157         0.026851   
    107. D(C   2,C   1,C   0,H  23)   -179.9193         0.026851   
    108. D(C   2,C   1,C   0,C   5)     -0.6480         0.026851   
    109. D(H  25,C   2,C   1,H  24)     -0.5536         0.025409   
    110. D(C   3,C   2,C   1,H  24)    179.3187         0.025409   
    111. D(H  25,C   2,C   1,C   0)    179.1107         0.025409   
    112. D(C   3,C   2,C   1,C   0)     -1.0170         0.025409   
    113. D(P   6,C   3,C   2,H  25)     -1.4650         0.023699   
    114. D(P   6,C   3,C   2,C   1)    178.6655         0.023699   
    115. D(C   4,C   3,C   2,H  25)   -177.4682         0.023699   
    116. D(C   4,C   3,C   2,C   1)      2.6623         0.023699   
    117. D(H  26,C   4,C   3,C   2)    176.7604         0.024347   
    118. D(C   5,C   4,C   3,C   2)     -2.7285         0.024347   
    119. D(C   5,C   4,C   3,P   6)   -178.5944         0.024347   
    120. D(H  26,C   4,C   3,P   6)      0.8945         0.024347   
    121. D(H  27,C   5,C   4,H  26)      1.2125         0.025230   
    122. D(H  27,C   5,C   4,C   3)   -179.2817         0.025230   
    123. D(H  27,C   5,C   0,H  23)      0.2935         0.026733   
    124. D(H  27,C   5,C   0,C   1)   -178.9782         0.026733   
    125. D(C   4,C   5,C   0,H  23)    179.8510         0.026733   
    126. D(C   4,C   5,C   0,C   1)      0.5793         0.026733   
    127. D(C   0,C   5,C   4,H  26)   -178.3461         0.025230   
    128. D(C   0,C   5,C   4,C   3)      1.1598         0.025230   
    129. D(C  13,P   6,C   3,C   4)    -25.2950         0.003765   
    130. D(C  13,P   6,C   3,C   2)    158.9183         0.003765   
    131. D(C   7,P   6,C   3,C   4)   -130.7582         0.003765   
    132. D(C   7,P   6,C   3,C   2)     53.4550         0.003765   
    133. D(C  12,C   7,P   6,C   3)   -155.3903         0.003670   
    134. D(C   8,C   7,P   6,C  13)    -83.5599         0.003670   
    135. D(C   8,C   7,P   6,C   3)     25.1629         0.003670   
    136. D(C  12,C   7,P   6,C  13)     95.8869         0.003670   
    137. D(H  28,C   8,C   7,C  12)   -179.4953         0.024404   
    138. D(H  28,C   8,C   7,P   6)     -0.0495         0.024404   
    139. D(C   9,C   8,C   7,C  12)      0.2007         0.024404   
    140. D(C   9,C   8,C   7,P   6)    179.6465         0.024404   
    141. D(H  29,C   9,C   8,H  28)     -0.3559         0.025353   
    142. D(H  29,C   9,C   8,C   7)    179.9392         0.025353   
    143. D(C  10,C   9,C   8,H  28)    179.6430         0.025353   
    144. D(C  10,C   9,C   8,C   7)     -0.0619         0.025353   
    145. D(H  30,C  10,C   9,H  29)     -0.0776         0.026655   
    146. D(H  30,C  10,C   9,C   8)    179.9235         0.026655   
    147. D(C  11,C  10,C   9,H  29)    179.9261         0.026655   
    148. D(C  11,C  10,C   9,C   8)     -0.0728         0.026655   
    149. D(H  31,C  11,C  10,H  30)      0.0443         0.026702   
    150. D(H  31,C  11,C  10,C   9)   -179.9594         0.026702   
    151. D(C  12,C  11,C  10,H  30)   -179.9338         0.026702   
    152. D(C  12,C  11,C  10,C   9)      0.0625         0.026702   
    153. D(H  32,C  12,C  11,H  31)      0.1057         0.025435   
    154. D(C   7,C  12,C  11,H  31)   -179.8956         0.025435   
    155. D(C   7,C  12,C  11,C  10)      0.0825         0.025435   
    156. D(H  32,C  12,C   7,C   8)    179.7876         0.023940   
    157. D(H  32,C  12,C   7,P   6)      0.3043         0.023940   
    158. D(H  32,C  12,C  11,C  10)   -179.9162         0.025435   
    159. D(C  11,C  12,C   7,C   8)     -0.2111         0.023940   
    160. D(C  11,C  12,C   7,P   6)   -179.6944         0.023940   
    161. D(C  18,C  13,P   6,C   7)   -126.8596         0.003767   
    162. D(C  18,C  13,P   6,C   3)    124.6607         0.003767   
    163. D(C  14,C  13,P   6,C   7)     52.6106         0.003767   
    164. D(C  14,C  13,P   6,C   3)    -55.8692         0.003767   
    165. D(H  33,C  14,C  13,P   6)      1.3263         0.024771   
    166. D(C  15,C  14,C  13,C  18)     -0.0960         0.024771   
    167. D(C  15,C  14,C  13,P   6)   -179.5660         0.024771   
    168. D(H  33,C  14,C  13,C  18)   -179.2036         0.024771   
    169. D(S  19,C  15,C  14,H  33)     -2.1782         0.025188   
    170. D(S  19,C  15,C  14,C  13)    178.7018         0.025188   
    171. D(C  16,C  15,C  14,H  33)    179.5703         0.025188   
    172. D(C  16,C  15,C  14,C  13)      0.4502         0.025188   
    173. D(H  34,C  16,C  15,S  19)      1.2406         0.026004   
    174. D(H  34,C  16,C  15,C  14)    179.4860         0.026004   
    175. D(C  17,C  16,C  15,S  19)   -178.8348         0.026004   
    176. D(C  17,C  16,C  15,C  14)     -0.5894         0.026004   
    177. D(H  35,C  17,C  16,H  34)      0.1326         0.026702   
    178. D(H  35,C  17,C  16,C  15)   -179.7927         0.026702   
    179. D(C  18,C  17,C  16,H  34)   -179.6960         0.026702   
    180. D(C  18,C  17,C  16,C  15)      0.3787         0.026702   
    181. D(H  36,C  18,C  17,H  35)      0.0322         0.025186   
    182. D(H  36,C  18,C  17,C  16)    179.8613         0.025186   
    183. D(C  13,C  18,C  17,H  35)   -179.8630         0.025186   
    184. D(C  13,C  18,C  17,C  16)     -0.0339         0.025186   
    185. D(H  36,C  18,C  13,C  14)    179.9980         0.023786   
    186. D(H  36,C  18,C  13,P   6)     -0.5029         0.023786   
    187. D(C  17,C  18,C  13,C  14)     -0.1088         0.023786   
    188. D(C  17,C  18,C  13,P   6)    179.3903         0.023786   
    189. D(O  22,S  19,C  15,C  14)    -35.1313         0.004591   
    190. D(O  21,S  19,C  15,C  16)   -101.8518         0.004591   
    191. D(O  21,S  19,C  15,C  14)     79.8685         0.004591   
    192. D(O  20,S  19,C  15,C  16)     31.9226         0.004591   
    193. D(O  20,S  19,C  15,C  14)   -146.3571         0.004591   
    194. D(H  37,O  22,S  19,O  21)    132.1027         0.010092   
    195. D(H  37,O  22,S  19,O  20)      0.1923         0.010092   
    196. D(H  37,O  22,S  19,C  15)   -113.3516         0.010092   
    -----------------------------------------------------------------

Number of atoms                         .... 38
Number of degrees of freedom            .... 196


         *************************************************************
         *                GEOMETRY OPTIMIZATION CYCLE   1            *
         *************************************************************
---------------------------------
CARTESIAN COORDINATES (ANGSTROEM)
---------------------------------
  C     -2.984481   -2.565342    2.341324
  C     -3.582369   -1.376507    1.936627
  C     -3.054390   -0.659794    0.858701
  C     -1.906826   -1.104362    0.176727
  C     -1.343104   -2.324505    0.580796
  C     -1.868955   -3.042494    1.660095
  P     -1.280218   -0.151172   -1.246387
  C     -1.086634    1.554312   -0.613191
  C     -0.883669    1.880072    0.736494
  C     -0.737050    3.209933    1.142857
  C     -0.789658    4.237448    0.205498
  C     -0.987305    3.936425   -1.138707
  C     -1.133559    2.606629   -1.543983
  C      0.466984   -0.646533   -1.413530
  C      1.404680   -0.542845   -0.377422
  C      2.731022   -0.935995   -0.586628
  C      3.152012   -1.427583   -1.822409
  C      2.228139   -1.537513   -2.857266
  C      0.899221   -1.150152   -2.653621
  S      3.901406   -0.761709    0.728688
  O      5.187603   -0.447480    0.143713
  O      3.714731   -1.875896    1.628993
  O      3.459333    0.587065    1.496647
  H     -3.393329   -3.125406    3.178038
  H     -4.463515   -1.006042    2.453939
  H     -3.554063    0.259581    0.557010
  H     -0.487529   -2.748297    0.060375
  H     -1.407409   -3.979667    1.961425
  H     -0.830714    1.105202    1.497910
  H     -0.581663    3.439539    2.194018
  H     -0.676860    5.270871    0.522265
  H     -1.028560    4.734839   -1.875053
  H     -1.285533    2.401020   -2.602101
  H      1.109657   -0.170828    0.600766
  H      4.186103   -1.724351   -1.983154
  H      2.537687   -1.921836   -3.826451
  H      0.198812   -1.245294   -3.482540
  H      4.170004    1.248670    1.359537

----------------------------
CARTESIAN COORDINATES (A.U.)
----------------------------
  NO LB      ZA    FRAG     MASS         X           Y           Z
   0 C     6.0000    0    12.011   -5.639852   -4.847794    4.424461
   1 C     6.0000    0    12.011   -6.769696   -2.601221    3.659695
   2 C     6.0000    0    12.011   -5.771961   -1.246830    1.622710
   3 C     6.0000    0    12.011   -3.603379   -2.086942    0.333966
   4 C     6.0000    0    12.011   -2.538099   -4.392678    1.097545
   5 C     6.0000    0    12.011   -3.531813   -5.749480    3.137125
   6 P    15.0000    0    30.974   -2.419261   -0.285674   -2.355330
   7 C     6.0000    0    12.011   -2.053441    2.937224   -1.158763
   8 C     6.0000    0    12.011   -1.669892    3.552821    1.391772
   9 C     6.0000    0    12.011   -1.392823    6.065894    2.159687
  10 C     6.0000    0    12.011   -1.492237    8.007616    0.388335
  11 C     6.0000    0    12.011   -1.865736    7.438765   -2.151844
  12 C     6.0000    0    12.011   -2.142116    4.925815   -2.917705
  13 C     6.0000    0    12.011    0.882472   -1.221770   -2.671185
  14 C     6.0000    0    12.011    2.654461   -1.025828   -0.713224
  15 C     6.0000    0    12.011    5.160884   -1.768774   -1.108566
  16 C     6.0000    0    12.011    5.956439   -2.697741   -3.443854
  17 C     6.0000    0    12.011    4.210572   -2.905478   -5.399450
  18 C     6.0000    0    12.011    1.699281   -2.173472   -5.014617
  19 S    16.0000    0    32.060    7.372589   -1.439421    1.377021
  20 O     8.0000    0    15.999    9.803149   -0.845615    0.271578
  21 O     8.0000    0    15.999    7.019824   -3.544930    3.078351
  22 O     8.0000    0    15.999    6.537192    1.109392    2.828253
  23 H     1.0000    0     1.008   -6.412462   -5.906161    6.005621
  24 H     1.0000    0     1.008   -8.434821   -1.901144    4.637273
  25 H     1.0000    0     1.008   -6.716206    0.490537    1.052596
  26 H     1.0000    0     1.008   -0.921296   -5.193529    0.114092
  27 H     1.0000    0     1.008   -2.659618   -7.520481    3.706556
  28 H     1.0000    0     1.008   -1.569822    2.088529    2.830640
  29 H     1.0000    0     1.008   -1.099184    6.499787    4.146093
  30 H     1.0000    0     1.008   -1.279080    9.960503    0.986938
  31 H     1.0000    0     1.008   -1.943697    8.947549   -3.543337
  32 H     1.0000    0     1.008   -2.429305    4.537270   -4.917258
  33 H     1.0000    0     1.008    2.096948   -0.322818    1.135283
  34 H     1.0000    0     1.008    7.910588   -3.258551   -3.747618
  35 H     1.0000    0     1.008    4.795533   -3.631744   -7.230944
  36 H     1.0000    0     1.008    0.375700   -2.353265   -6.581047
  37 H     1.0000    0     1.008    7.880166    2.359644    2.569153

--------------------------------
INTERNAL COORDINATES (ANGSTROEM)
--------------------------------
 C      0   0   0     0.000000000000     0.00000000     0.00000000
 C      1   0   0     1.390891217737     0.00000000     0.00000000
 C      2   1   0     1.397985625923   120.01332654     0.00000000
 C      3   2   1     1.406994092879   121.31730303   358.98302571
 C      4   3   2     1.403496772527   117.56408849     2.66227954
 C      1   2   3     1.391454360811   119.68744390   359.35199332
 P      4   3   2     1.823859155406   119.55657041   178.66550347
 C      7   4   3     1.829504745478   104.68424348    53.45501323
 C      8   7   4     1.403197765124   124.37634619    25.16292017
 C      9   8   7     1.398269751604   121.03087594   179.64649818
 C     10   9   8     1.391832091802   120.16169017   359.93805085
 C     11  10   9     1.391605642832   119.74939717   359.92722338
 C     12  11  10     1.397854166324   120.04589082     0.06252780
 C      7   4   3     1.823741794107   104.99295194   158.91826488
 C     14   7   4     1.401265420049   123.58884081   304.13079357
 C     15  14   7     1.399112995401   120.19985186   180.43397692
 C     16  15  14     1.395007534677   121.16932744     0.45022864
 C     17  16  15     1.391601572102   119.09443716   359.41064279
 C     18  17  16     1.399122182324   120.03109972     0.37865732
 S     16  15  14     1.769245742430   119.22655786   178.70176798
 O     20  16  15     1.447493812724   107.98351457   213.64286820
 O     20  16  15     1.444579288104   107.56978598    79.86850308
 O     20  16  15     1.613809426818   104.76743253   324.86873019
 H      1   2   3     1.086700827733   120.18632115   180.08074452
 H      2   1   3     1.086864432616   120.08926170   179.66371483
 H      3   2   1     1.089009162971   118.23807262   179.11074387
 H      5   4   3     1.087403447268   121.13468967   176.76039486
 H      6   1   2     1.087252367643   120.01464127   181.02177592
 H      9   8   7     1.087649793813   120.99795505   359.95052231
 H     10   9   8     1.087107852481   119.79324437   179.93916894
 H     11  10   9     1.086751037737   120.11867863   179.92350530
 H     12  11  10     1.086909528037   120.05855100   180.04062313
 H     13  12  11     1.088570098561   118.43147748   180.08378381
 H     15  14   7     1.087330208429   120.59324016     1.32632882
 H     17  16  15     1.087774975411   120.92639693   179.48604962
 H     18  17  16     1.087586179049   120.10891251   180.20727768
 H     19  18  17     1.089372055822   118.40842042   179.86127641
 H     23  20  16     0.980598591864   107.38711808   246.64842661

---------------------------
INTERNAL COORDINATES (A.U.)
---------------------------
 C      0   0   0     0.000000000000     0.00000000     0.00000000
 C      1   0   0     2.628403483599     0.00000000     0.00000000
 C      2   1   0     2.641809972152   120.01332654     0.00000000
 C      3   2   1     2.658833507586   121.31730303   358.98302571
 C      4   3   2     2.652224529919   117.56408849     2.66227954
 C      1   2   3     2.629467669784   119.68744390   359.35199332
 P      4   3   2     3.446594310563   119.55657041   178.66550347
 C      7   4   3     3.457262929663   104.68424348    53.45501323
 C      8   7   4     2.651659487815   124.37634619    25.16292017
 C      9   8   7     2.642346891878   121.03087594   179.64649818
 C     10   9   8     2.630181477909   120.16169017   359.93805085
 C     11  10   9     2.629753551373   119.74939717   359.92722338
 C     12  11  10     2.641561549512   120.04589082     0.06252780
 C      7   4   3     3.446372529849   104.99295194   158.91826488
 C     14   7   4     2.648007884826   123.58884081   304.13079357
 C     15  14   7     2.643940391718   120.19985186   180.43397692
 C     16  15  14     2.636182195296   121.16932744     0.45022864
 C     17  16  15     2.629745858808   119.09443716   359.41064279
 C     18  17  16     2.643957752486   120.03109972     0.37865732
 S     16  15  14     3.343389916800   119.22655786   178.70176798
 O     20  16  15     2.735366886594   107.98351457   213.64286820
 O     20  16  15     2.729859233251   107.56978598    79.86850308
 O     20  16  15     3.049657849026   104.76743253   324.86873019
 H      1   2   3     2.053566953921   120.18632115   180.08074452
 H      2   1   3     2.053876122343   120.08926170   179.66371483
 H      3   2   1     2.057929075346   118.23807262   179.11074387
 H      5   4   3     2.054894712418   121.13468967   176.76039486
 H      6   1   2     2.054609213302   120.01464127   181.02177592
 H      9   8   7     2.055360239922   120.99795505   359.95052231
 H     10   9   8     2.054336119224   119.79324437   179.93916894
 H     11  10   9     2.053661837077   120.11867863   179.92350530
 H     12  11  10     2.053961340339   120.05855100   180.04062313
 H     13  12  11     2.057099363856   118.43147748   180.08378381
 H     15  14   7     2.054756311070   120.59324016     1.32632882
 H     17  16  15     2.055596798859   120.92639693   179.48604962
 H     18  17  16     2.055240025440   120.10891251   180.20727768
 H     19  18  17     2.058614843450   118.40842042   179.86127641
 H     23  20  16     1.853062785932   107.38711808   246.64842661

---------------------
BASIS SET INFORMATION
---------------------
There are 5 groups of distinct atoms

 Group   1 Type C   : 7s4p1d contracted to 3s2p1d pattern {511/31/1}
 Group   2 Type P   : 10s7p1d contracted to 4s3p1d pattern {5311/511/1}
 Group   3 Type S   : 10s7p1d contracted to 4s3p1d pattern {5311/511/1}
 Group   4 Type O   : 7s4p1d contracted to 3s2p1d pattern {511/31/1}
 Group   5 Type H   : 4s1p contracted to 2s1p pattern {31/1}

Atom   0C    basis set group =>   1
Atom   1C    basis set group =>   1
Atom   2C    basis set group =>   1
Atom   3C    basis set group =>   1
Atom   4C    basis set group =>   1
Atom   5C    basis set group =>   1
Atom   6P    basis set group =>   2
Atom   7C    basis set group =>   1
Atom   8C    basis set group =>   1
Atom   9C    basis set group =>   1
Atom  10C    basis set group =>   1
Atom  11C    basis set group =>   1
Atom  12C    basis set group =>   1
Atom  13C    basis set group =>   1
Atom  14C    basis set group =>   1
Atom  15C    basis set group =>   1
Atom  16C    basis set group =>   1
Atom  17C    basis set group =>   1
Atom  18C    basis set group =>   1
Atom  19S    basis set group =>   3
Atom  20O    basis set group =>   4
Atom  21O    basis set group =>   4
Atom  22O    basis set group =>   4
Atom  23H    basis set group =>   5
Atom  24H    basis set group =>   5
Atom  25H    basis set group =>   5
Atom  26H    basis set group =>   5
Atom  27H    basis set group =>   5
Atom  28H    basis set group =>   5
Atom  29H    basis set group =>   5
Atom  30H    basis set group =>   5
Atom  31H    basis set group =>   5
Atom  32H    basis set group =>   5
Atom  33H    basis set group =>   5
Atom  34H    basis set group =>   5
Atom  35H    basis set group =>   5
Atom  36H    basis set group =>   5
Atom  37H    basis set group =>   5
---------------------------------
AUXILIARY/J BASIS SET INFORMATION
---------------------------------
There are 5 groups of distinct atoms

 Group   1 Type C   : 12s5p4d2f1g contracted to 6s4p3d1f1g pattern {711111/2111/211/2/1}
 Group   2 Type P   : 14s5p5d2f1g contracted to 8s4p3d1f1g pattern {71111111/2111/311/2/1}
 Group   3 Type S   : 14s5p5d2f1g contracted to 8s4p3d1f1g pattern {71111111/2111/311/2/1}
 Group   4 Type O   : 12s5p4d2f1g contracted to 6s4p3d1f1g pattern {711111/2111/211/2/1}
 Group   5 Type H   : 5s2p1d contracted to 3s1p1d pattern {311/2/1}

Atom   0C    basis set group =>   1
Atom   1C    basis set group =>   1
Atom   2C    basis set group =>   1
Atom   3C    basis set group =>   1
Atom   4C    basis set group =>   1
Atom   5C    basis set group =>   1
Atom   6P    basis set group =>   2
Atom   7C    basis set group =>   1
Atom   8C    basis set group =>   1
Atom   9C    basis set group =>   1
Atom  10C    basis set group =>   1
Atom  11C    basis set group =>   1
Atom  12C    basis set group =>   1
Atom  13C    basis set group =>   1
Atom  14C    basis set group =>   1
Atom  15C    basis set group =>   1
Atom  16C    basis set group =>   1
Atom  17C    basis set group =>   1
Atom  18C    basis set group =>   1
Atom  19S    basis set group =>   3
Atom  20O    basis set group =>   4
Atom  21O    basis set group =>   4
Atom  22O    basis set group =>   4
Atom  23H    basis set group =>   5
Atom  24H    basis set group =>   5
Atom  25H    basis set group =>   5
Atom  26H    basis set group =>   5
Atom  27H    basis set group =>   5
Atom  28H    basis set group =>   5
Atom  29H    basis set group =>   5
Atom  30H    basis set group =>   5
Atom  31H    basis set group =>   5
Atom  32H    basis set group =>   5
Atom  33H    basis set group =>   5
Atom  34H    basis set group =>   5
Atom  35H    basis set group =>   5
Atom  36H    basis set group =>   5
Atom  37H    basis set group =>   5


           ************************************************************
           *        Program running with 6 parallel MPI-processes     *
           *              working on a common directory               *
           ************************************************************
------------------------------------------------------------------------------
                             ORCA STARTUP CALCULATIONS
                           -- RI-GTO INTEGRALS CHOSEN --
------------------------------------------------------------------------------
------------------------------------------------------------------------------
                   ___                                                        
                  /   \      - P O W E R E D   B Y -                         
                 /     \                                                     
                 |  |  |   _    _      __       _____    __    __             
                 |  |  |  | |  | |    /  \     |  _  \  |  |  /  |          
                  \  \/   | |  | |   /    \    | | | |  |  | /  /          
                 / \  \   | |__| |  /  /\  \   | |_| |  |  |/  /          
                |  |  |   |  __  | /  /__\  \  |    /   |      \           
                |  |  |   | |  | | |   __   |  |    \   |  |\   \          
                \     /   | |  | | |  |  |  |  | |\  \  |  | \   \       
                 \___/    |_|  |_| |__|  |__|  |_| \__\ |__|  \__/        
                                                                              
                      - O R C A' S   B I G   F R I E N D -                    
                                      &                                       
                       - I N T E G R A L  F E E D E R -                       
                                                                              
 v1 FN, 2020, v2 2021, v3 2022-2024                                           
------------------------------------------------------------------------------


----------------------
SHARK INTEGRAL PACKAGE
----------------------

Number of atoms                             ...     38
Number of basis functions                   ...    405
Number of shells                            ...    187
Maximum angular momentum                    ...      2
Integral batch strategy                     ... SHARK/LIBINT Hybrid
RI-J (if used) integral strategy            ... SPLIT-RIJ (Revised 2003 algorithm where possible)
Printlevel                                  ...      1
Contraction scheme used                     ... SEGMENTED contraction
Prescreening option                         ... SCHWARTZ
   Thresh                                   ... 2.500e-11
   Tcut                                     ... 2.500e-12
   Tpresel                                  ... 2.500e-12 
Coulomb Range Separation                    ... NOT USED
Exchange Range Separation                   ... NOT USED
Multipole approximations                    ... NOT USED
Finite Nucleus Model                        ... NOT USED
CABS basis                                  ... NOT available
Auxiliary Coulomb fitting basis             ... AVAILABLE
   # of basis functions in Aux-J            ...   1296
   # of shells in Aux-J                     ...    424
   Maximum angular momentum in Aux-J        ...      4
Auxiliary J/K fitting basis                 ... NOT available
Auxiliary Correlation fitting basis         ... NOT available
Auxiliary 'external' fitting basis          ... NOT available

Checking pre-screening integrals            ... done (  0.0 sec) Dimension = 187
Check shell pair data                       ... done (  0.0 sec)
Shell pair information
Shell pair cut-off parameter TPreSel        ...   2.5e-12
Total number of shell pairs                 ...     17578
Shell pairs after pre-screening             ...     12901
Total number of primitive shell pairs       ...     66430
Primitive shell pairs kept                  ...     30301
          la=0 lb=0:   3860 shell pairs
          la=1 lb=0:   4812 shell pairs
          la=1 lb=1:   1548 shell pairs
          la=2 lb=0:   1567 shell pairs
          la=2 lb=1:    967 shell pairs
          la=2 lb=2:    147 shell pairs

Calculating one electron integrals          ... done (  0.0 sec)
Calculating RI/J V-Matrix + Cholesky decomp.... done (  0.1 sec)
Calculating Nuclear repulsion               ... done (  0.0 sec) ENN=   2153.850422091554 Eh

Diagonalization of the overlap matrix:
Smallest eigenvalue                        ... 2.660e-04
Time for diagonalization                   ...    0.022 sec
Threshold for overlap eigenvalues          ... 1.000e-07
Number of eigenvalues below threshold      ... 0
Time for construction of square roots      ...    0.013 sec
Total time needed                          ...    0.037 sec

-------------------
DFT GRID GENERATION
-------------------

General Integration Accuracy     IntAcc      ... 4.388
Radial Grid Type                 RadialGrid  ... OptM3 with GC (2021)
Angular Grid (max. ang.)         AngularGrid ... 4 (Lebedev-302)
Angular grid pruning method      GridPruning ... 4 (adaptive)
Weight generation scheme         WeightScheme... mBecke (2022)
Basis function cutoff            BFCut       ... 1.0000e-11
Integration weight cutoff        WCut        ... 1.0000e-14
Partially contracted basis set               ... off
Rotationally invariant grid construction     ... off
Angular grids for H and He will be reduced by one unit

Total number of grid points                  ...   187957
Total number of batches                      ...     2958
Average number of points per batch           ...       63
Average number of grid points per atom       ...     4946
Initializing property integral containers    ... done (  0.0 sec)

SHARK setup successfully completed in   1.5 seconds

Maximum memory used throughout the entire STARTUP-calculation: 51.8 MB


           ************************************************************
           *        Program running with 6 parallel MPI-processes     *
           *              working on a common directory               *
           ************************************************************
-------------------------------------------------------------------------------
                                 ORCA GUESS
                   Start orbitals & Density for SCF / CASSCF
-------------------------------------------------------------------------------

------------
SCF SETTINGS
------------
Hamiltonian:
 Density Functional     Method          .... DFT(GTOs)
 Exchange Functional    Exchange        .... B88
   X-Alpha parameter    XAlpha          ....  0.666667
   Becke's b parameter  XBeta           ....  0.004200
 Correlation Functional Correlation     .... LYP
 LDA part of GGA corr.  LDAOpt          .... VWN-5
 Gradients option       PostSCFGGA      .... off
 Hybrid DFT is turned on
   Fraction HF Exchange ScalHFX         ....  0.200000
   Scaling of DF-GGA-X  ScalDFX         ....  0.720000
   Scaling of DF-GGA-C  ScalDFC         ....  0.810000
   Scaling of DF-LDA-C  ScalLDAC        ....  1.000000
   Perturbative correction              ....  0.000000
   NL short-range parameter             ....  4.800000
 RI-approximation to the Coulomb term is turned on
   Number of AuxJ basis functions       .... 1296
   RIJ-ON(X) (HFX calculated with O(N)) .... on


General Settings:
 Integral files         IntName         .... data/geom_opt/195868/195868
 Hartree-Fock type      HFTyp           .... RHF
 Total Charge           Charge          ....    0
 Multiplicity           Mult            ....    1
 Number of Electrons    NEL             ....  178
 Basis Dimension        Dim             ....  405
 Nuclear Repulsion      ENuc            ....   2153.8504220916 Eh

Convergence Acceleration:
 AO-DIIS                CNVDIIS         .... on
   Start iteration      DIISMaxIt       ....    12
   Startup error        DIISStart       ....  0.200000
   # of expansion vecs  DIISMaxEq       ....     5
   Bias factor          DIISBfac        ....   1.050
   Max. coefficient     DIISMaxC        ....  10.000
 MO-DIIS                CNVKDIIS        .... off
 Trust-Rad. Augm. Hess. CNVTRAH         .... auto
   Auto Start mean grad. ratio tolernc. ....  1.125000
   Auto Start start iteration           ....    50
   Auto Start num. interpolation iter.  ....    10
   Max. Number of Micro iterations      ....    24
   Max. Number of Macro iterations      .... Maxiter - #DIIS iter
   Number of Davidson start vectors     ....     2
   Converg. threshold    (grad. norm)   ....   1.000e-05
   Grad. Scal. Fac. for Micro threshold ....   0.100
   Minimum threshold for Micro iter.    ....   1.000e-02
   NR start threshold (gradient norm)   ....   1.000e-04
   Initial trust radius                 ....   0.400
   Minimum AH scaling param. (alpha)    ....   1.000
   Maximum AH scaling param. (alpha)    .... 1000.000
   Quad. conv. algorithm                .... NR
   White noise on init. David. guess    .... on
   Maximum white noise                  ....   0.010
   Pseudo random numbers                .... off
   Inactive MOs                         .... canonical
   Orbital update algorithm             .... Taylor
   Preconditioner                       .... Diag
   Full preconditioner red. dimension   ....   250
   COSX micro iterations for RIJONX calc.... off
 SOSCF                  CNVSOSCF        .... on
   Start iteration      SOSCFMaxIt      ....   150
   Startup grad/error   SOSCFStart      ....  0.003300
   Hessian update       SOSCFHessUp     .... L-BFGS
 Level Shifting         CNVShift        .... on
   Level shift para.    LevelShift      ....    0.2500
   Turn off err/grad.   ShiftErr        ....    0.0010
 Zerner damping         CNVZerner       .... off
 Static damping         CNVDamp         .... on
   Fraction old density DampFac         ....    0.7000
   Max. Damping (<1)    DampMax         ....    0.9800
   Min. Damping (>=0)   DampMin         ....    0.0000
   Turn off err/grad.   DampErr         ....    0.1000

SCF Procedure:
 Maximum # iterations   MaxIter         ....   125
 SCF integral mode      SCFMode         .... Direct
   Integral package                     .... SHARK and LIBINT hybrid scheme
 Reset frequency        DirectResetFreq ....    20
 Integral Threshold     Thresh          ....  2.500e-11 Eh
 Primitive CutOff       TCut            ....  2.500e-12 Eh

Convergence Tolerance:
 Convergence Check Mode ConvCheckMode   .... Total+1el-Energy
 Convergence forced     ConvForced      .... 0
 Energy Change          TolE            ....  1.000e-08 Eh
 1-El. energy change                    ....  1.000e-05 Eh
 Orbital Gradient       TolG            ....  1.000e-05
 Orbital Rotation angle TolX            ....  1.000e-05
 DIIS Error             TolErr          ....  5.000e-07

------------------------------
INITIAL GUESS: MODEL POTENTIAL
------------------------------
Loading Hartree-Fock densities                     ... done
Calculating cut-offs                               ... done
Initializing the effective Hamiltonian             ... done
Setting up the integral package (SHARK)            ... done
Starting the Coulomb interaction                   ... done (   0.2 sec)
Making the grid                                    ... done (   0.3 sec)
Mapping shells                                     ... done
Starting the XC term evaluation                    ... done (   0.2 sec)
  promolecular density results
     # of electrons  =    177.991555197
     EX              =   -169.365574241
     EC              =     -6.296880733
     EX+EC           =   -175.662454974
Transforming the Hamiltonian                       ... done (   0.0 sec)
Diagonalizing the Hamiltonian                      ... done (   0.0 sec)
Back transforming the eigenvectors                 ... done (   0.0 sec)
Now organizing SCF variables                       ... done
                      ------------------
                      INITIAL GUESS DONE (   0.7 sec)
                      ------------------
             **** ENERGY FILE WAS UPDATED (data/geom_opt/195868/195868.en.tmp) ****
Finished Guess after   0.8 sec
Maximum memory used throughout the entire GUESS-calculation: 29.8 MB


           ************************************************************
           *        Program running with 6 parallel MPI-processes     *
           *              working on a common directory               *
           ************************************************************

-------------------------------------------------------------------------------------------
                                      ORCA LEAN-SCF
                              memory conserving SCF solver
-------------------------------------------------------------------------------------------

----------------------------------------D-I-I-S--------------------------------------------
Iteration    Energy (Eh)           Delta-E    RMSDP     MaxDP     DIISErr   Damp  Time(sec)
-------------------------------------------------------------------------------------------
               ***  Starting incremental Fock matrix formation  ***
    1    -1657.8759704045155559     0.00e+00  2.85e-03  2.19e-01  2.89e-01  0.700   6.1
    2    -1658.1934670004457075    -3.17e-01  1.81e-03  9.80e-02  1.09e-01  0.700   5.8
                               ***Turning on AO-DIIS***
    3    -1658.3086739543168733    -1.15e-01  7.91e-04  3.19e-02  3.15e-02  0.700   5.5
    4    -1658.3813606058201913    -7.27e-02  1.47e-03  8.56e-02  1.54e-02  0.000   4.9
    5    -1658.5435046873585634    -1.62e-01  2.31e-04  1.22e-02  6.61e-03  0.000   5.5
                              *** Initializing SOSCF ***
---------------------------------------S-O-S-C-F--------------------------------------
Iteration    Energy (Eh)           Delta-E    RMSDP     MaxDP     MaxGrad    Time(sec)
--------------------------------------------------------------------------------------
    6    -1658.5444699021331871    -9.65e-04  8.04e-05  3.49e-03  2.09e-03     4.8
               *** Restarting incremental Fock matrix formation ***
    7    -1658.5445151774852093    -4.53e-05  6.45e-05  2.79e-03  3.58e-04     6.0
    8    -1658.5444990019450415     1.62e-05  3.28e-05  1.46e-03  6.61e-04     4.4
    9    -1658.5445270700547553    -2.81e-05  1.21e-05  5.40e-04  7.51e-05     4.0
   10    -1658.5445263400288241     7.30e-07  7.19e-06  3.36e-04  1.47e-04     3.5
   11    -1658.5445276087875754    -1.27e-06  3.75e-06  1.79e-04  2.63e-05     3.3
   12    -1658.5445275911210956     1.77e-08  2.16e-06  7.31e-05  3.30e-05     3.2
   13    -1658.5445276634372931    -7.23e-08  6.79e-07  3.49e-05  5.04e-06     3.1
   14    -1658.5445276641471537    -7.10e-10  3.89e-07  1.45e-05  7.08e-06     2.6
                 **** Energy Check signals convergence ****

               *****************************************************
               *                     SUCCESS                       *
               *           SCF CONVERGED AFTER  14 CYCLES          *
               *****************************************************

             **** ENERGY FILE WAS UPDATED (data/geom_opt/195868/195868.en.tmp) ****

----------------
TOTAL SCF ENERGY
----------------

Total Energy       :      -1658.54452766414715 Eh          -45131.29103 eV

Components:
Nuclear Repulsion  :       2153.85042209155381 Eh           58609.24962 eV
Electronic Energy  :      -3812.39494975570096 Eh         -103740.54065 eV
One Electron Energy:      -6553.19090166146907 Eh         -178321.39012 eV
Two Electron Energy:       2740.79595190576811 Eh           74580.84947 eV

Virial components:
Potential Energy   :      -3306.63113572711245 Eh          -89978.00760 eV
Kinetic Energy     :       1648.08660806296552 Eh           44846.71657 eV
Virial Ratio       :          2.00634549152333

DFT components:
N(Alpha)           :       88.999885832304 electrons
N(Beta)            :       88.999885832304 electrons
N(Total)           :      177.999771664609 electrons
E(X)               :     -135.818231659323 Eh       
E(C)               :       -7.403647243770 Eh       
E(XC)              :     -143.221878903094 Eh       

---------------
SCF CONVERGENCE
---------------

  Last Energy change         ...    7.0986e-10  Tolerance :   1.0000e-08
  Last MAX-Density change    ...    1.4510e-05  Tolerance :   1.0000e-07
  Last RMS-Density change    ...    3.8931e-07  Tolerance :   5.0000e-09
  Last DIIS Error            ...    2.0921e-03  Tolerance :   5.0000e-07
  Last Orbital Gradient      ...    7.0764e-06  Tolerance :   1.0000e-05
  Last Orbital Rotation      ...    8.8431e-06  Tolerance :   1.0000e-05


----------------
ORBITAL ENERGIES
----------------

  NO   OCC          E(Eh)            E(eV) 
   0   2.0000     -89.091745     -2424.3096 
   1   2.0000     -77.058217     -2096.8607 
   2   2.0000     -19.190703      -522.2056 
   3   2.0000     -19.127988      -520.4990 
   4   2.0000     -19.127201      -520.4776 
   5   2.0000     -10.231472      -278.4125 
   6   2.0000     -10.220574      -278.1160 
   7   2.0000     -10.220441      -278.1123 
   8   2.0000     -10.214825      -277.9595 
   9   2.0000     -10.212518      -277.8967 
  10   2.0000     -10.211958      -277.8815 
  11   2.0000     -10.199787      -277.5503 
  12   2.0000     -10.199191      -277.5341 
  13   2.0000     -10.198543      -277.5165 
  14   2.0000     -10.197666      -277.4926 
  15   2.0000     -10.196544      -277.4621 
  16   2.0000     -10.195836      -277.4428 
  17   2.0000     -10.195657      -277.4379 
  18   2.0000     -10.195122      -277.4234 
  19   2.0000     -10.193929      -277.3909 
  20   2.0000     -10.192410      -277.3496 
  21   2.0000     -10.191352      -277.3208 
  22   2.0000     -10.190110      -277.2870 
  23   2.0000      -8.153884      -221.8785 
  24   2.0000      -6.554991      -178.3704 
  25   2.0000      -6.124467      -166.6552 
  26   2.0000      -6.120961      -166.5598 
  27   2.0000      -6.120033      -166.5346 
  28   2.0000      -4.720561      -128.4530 
  29   2.0000      -4.720250      -128.4445 
  30   2.0000      -4.717403      -128.3671 
  31   2.0000      -1.149212       -31.2717 
  32   2.0000      -1.031644       -28.0724 
  33   2.0000      -1.005252       -27.3543 
  34   2.0000      -0.879478       -23.9318 
  35   2.0000      -0.856673       -23.3113 
  36   2.0000      -0.850147       -23.1337 
  37   2.0000      -0.788544       -21.4574 
  38   2.0000      -0.776742       -21.1362 
  39   2.0000      -0.753753       -20.5107 
  40   2.0000      -0.745113       -20.2756 
  41   2.0000      -0.741783       -20.1849 
  42   2.0000      -0.739224       -20.1153 
  43   2.0000      -0.686117       -18.6702 
  44   2.0000      -0.659945       -17.9580 
  45   2.0000      -0.628924       -17.1139 
  46   2.0000      -0.610573       -16.6145 
  47   2.0000      -0.606809       -16.5121 
  48   2.0000      -0.601663       -16.3721 
  49   2.0000      -0.597082       -16.2474 
  50   2.0000      -0.573858       -15.6155 
  51   2.0000      -0.547984       -14.9114 
  52   2.0000      -0.525448       -14.2982 
  53   2.0000      -0.521908       -14.2018 
  54   2.0000      -0.503688       -13.7061 
  55   2.0000      -0.497309       -13.5325 
  56   2.0000      -0.484778       -13.1915 
  57   2.0000      -0.478436       -13.0189 
  58   2.0000      -0.462421       -12.5831 
  59   2.0000      -0.460155       -12.5215 
  60   2.0000      -0.455207       -12.3868 
  61   2.0000      -0.453281       -12.3344 
  62   2.0000      -0.449174       -12.2226 
  63   2.0000      -0.436058       -11.8657 
  64   2.0000      -0.427240       -11.6258 
  65   2.0000      -0.425383       -11.5753 
  66   2.0000      -0.424063       -11.5393 
  67   2.0000      -0.415584       -11.3086 
  68   2.0000      -0.398065       -10.8319 
  69   2.0000      -0.393585       -10.7100 
  70   2.0000      -0.380335       -10.3494 
  71   2.0000      -0.375830       -10.2268 
  72   2.0000      -0.373774       -10.1709 
  73   2.0000      -0.373189       -10.1550 
  74   2.0000      -0.353639        -9.6230 
  75   2.0000      -0.351772        -9.5722 
  76   2.0000      -0.347887        -9.4665 
  77   2.0000      -0.340881        -9.2758 
  78   2.0000      -0.337439        -9.1822 
  79   2.0000      -0.328900        -8.9498 
  80   2.0000      -0.318512        -8.6672 
  81   2.0000      -0.307942        -8.3795 
  82   2.0000      -0.284899        -7.7525 
  83   2.0000      -0.281866        -7.6700 
  84   2.0000      -0.276151        -7.5145 
  85   2.0000      -0.264698        -7.2028 
  86   2.0000      -0.261450        -7.1144 
  87   2.0000      -0.256325        -6.9750 
  88   2.0000      -0.219258        -5.9663 
  89   0.0000      -0.051002        -1.3878 
  90   0.0000      -0.046124        -1.2551 
  91   0.0000      -0.026264        -0.7147 
  92   0.0000      -0.021003        -0.5715 
  93   0.0000      -0.017313        -0.4711 
  94   0.0000      -0.006598        -0.1795 
  95   0.0000       0.027103         0.7375 
  96   0.0000       0.053792         1.4637 
  97   0.0000       0.058208         1.5839 
  98   0.0000       0.061906         1.6845 
  99   0.0000       0.070690         1.9236 
*Only the first 10 virtual orbitals were printed.

                    ********************************
                    * MULLIKEN POPULATION ANALYSIS *
                    ********************************

-----------------------
MULLIKEN ATOMIC CHARGES
-----------------------
   0 C :    0.023095
   1 C :    0.024613
   2 C :    0.000501
   3 C :   -0.120063
   4 C :   -0.002762
   5 C :    0.030333
   6 P :    0.348699
   7 C :   -0.130596
   8 C :    0.005473
   9 C :    0.028247
  10 C :    0.027006
  11 C :    0.025788
  12 C :    0.024001
  13 C :   -0.141085
  14 C :    0.063996
  15 C :   -0.084080
  16 C :    0.036658
  17 C :    0.018397
  18 C :    0.040194
  19 S :    0.963656
  20 O :   -0.466311
  21 O :   -0.427162
  22 O :   -0.342560
  23 H :   -0.018076
  24 H :   -0.017976
  25 H :   -0.016048
  26 H :   -0.009619
  27 H :   -0.015327
  28 H :    0.005916
  29 H :   -0.017980
  30 H :   -0.016511
  31 H :   -0.016721
  32 H :   -0.020570
  33 H :   -0.006675
  34 H :    0.006172
  35 H :   -0.003493
  36 H :   -0.009547
  37 H :    0.210418
Sum of atomic charges:   -0.0000000

--------------------------------
MULLIKEN REDUCED ORBITAL CHARGES
--------------------------------
  0 C s       :     3.158373  s :     3.158373
      pz      :     0.898413  p :     2.783113
      px      :     0.953409
      py      :     0.931291
      dz2     :     0.005512  d :     0.035419
      dxz     :     0.006315
      dyz     :     0.007477
      dx2y2   :     0.008050
      dxy     :     0.008065

  1 C s       :     3.158020  s :     3.158020
      pz      :     0.941040  p :     2.782017
      px      :     0.886398
      py      :     0.954579
      dz2     :     0.006530  d :     0.035350
      dxz     :     0.006413
      dyz     :     0.007780
      dx2y2   :     0.007297
      dxy     :     0.007330

  2 C s       :     3.213980  s :     3.213980
      pz      :     0.935385  p :     2.750771
      px      :     0.937228
      py      :     0.878158
      dz2     :     0.007310  d :     0.034748
      dxz     :     0.007236
      dyz     :     0.006169
      dx2y2   :     0.006582
      dxy     :     0.007450

  3 C s       :     3.055360  s :     3.055360
      pz      :     0.984001  p :     3.028309
      px      :     1.024681
      py      :     1.019627
      dz2     :     0.006585  d :     0.036394
      dxz     :     0.006279
      dyz     :     0.007209
      dx2y2   :     0.008192
      dxy     :     0.008129

  4 C s       :     3.218862  s :     3.218862
      pz      :     0.912849  p :     2.749026
      px      :     0.901182
      py      :     0.934994
      dz2     :     0.006287  d :     0.034874
      dxz     :     0.006127
      dyz     :     0.007996
      dx2y2   :     0.006980
      dxy     :     0.007484

  5 C s       :     3.157579  s :     3.157579
      pz      :     0.961735  p :     2.776839
      px      :     0.940122
      py      :     0.874982
      dz2     :     0.007580  d :     0.035248
      dxz     :     0.007133
      dyz     :     0.006536
      dx2y2   :     0.006750
      dxy     :     0.007250

  6 P s       :     5.658575  s :     5.658575
      pz      :     3.168201  p :     8.813591
      px      :     2.901303
      py      :     2.744087
      dz2     :     0.033615  d :     0.179135
      dxz     :     0.017762
      dyz     :     0.041022
      dx2y2   :     0.050373
      dxy     :     0.036362

  7 C s       :     3.068685  s :     3.068685
      pz      :     1.008954  p :     3.025312
      px      :     1.015117
      py      :     1.001242
      dz2     :     0.009718  d :     0.036599
      dxz     :     0.006226
      dyz     :     0.012014
      dx2y2   :     0.004749
      dxy     :     0.003893

  8 C s       :     3.210439  s :     3.210439
      pz      :     0.928108  p :     2.748989
      px      :     0.961283
      py      :     0.859597
      dz2     :     0.008473  d :     0.035100
      dxz     :     0.004453
      dyz     :     0.013226
      dx2y2   :     0.004618
      dxy     :     0.004330

  9 C s       :     3.160346  s :     3.160346
      pz      :     0.836716  p :     2.776279
      px      :     0.981885
      py      :     0.957678
      dz2     :     0.009509  d :     0.035128
      dxz     :     0.002757
      dyz     :     0.011150
      dx2y2   :     0.005615
      dxy     :     0.006097

 10 C s       :     3.159129  s :     3.159129
      pz      :     0.953310  p :     2.778385
      px      :     0.972937
      py      :     0.852138
      dz2     :     0.010357  d :     0.035479
      dxz     :     0.006040
      dyz     :     0.011454
      dx2y2   :     0.004661
      dxy     :     0.002967

 11 C s       :     3.158921  s :     3.158921
      pz      :     0.904494  p :     2.780226
      px      :     0.983456
      py      :     0.892276
      dz2     :     0.008658  d :     0.035066
      dxz     :     0.004519
      dyz     :     0.013042
      dx2y2   :     0.004652
      dxy     :     0.004195

 12 C s       :     3.214666  s :     3.214666
      pz      :     0.851684  p :     2.726436
      px      :     0.967260
      py      :     0.907492
      dz2     :     0.009592  d :     0.034897
      dxz     :     0.002554
      dyz     :     0.010728
      dx2y2   :     0.005678
      dxy     :     0.006346

 13 C s       :     3.077168  s :     3.077168
      pz      :     1.003173  p :     3.027189
      px      :     1.014951
      py      :     1.009066
      dz2     :     0.009600  d :     0.036728
      dxz     :     0.011487
      dyz     :     0.006196
      dx2y2   :     0.005311
      dxy     :     0.004135

 14 C s       :     3.278202  s :     3.278202
      pz      :     0.846401  p :     2.622526
      px      :     0.854264
      py      :     0.921861
      dz2     :     0.008833  d :     0.035277
      dxz     :     0.009619
      dyz     :     0.003934
      dx2y2   :     0.006207
      dxy     :     0.006684

 15 C s       :     2.984692  s :     2.984692
      pz      :     0.987038  p :     3.058686
      px      :     0.994415
      py      :     1.077232
      dz2     :     0.008212  d :     0.040703
      dxz     :     0.015757
      dyz     :     0.004824
      dx2y2   :     0.006171
      dxy     :     0.005738

 16 C s       :     3.230027  s :     3.230027
      pz      :     0.933836  p :     2.698064
      px      :     0.825103
      py      :     0.939125
      dz2     :     0.010428  d :     0.035251
      dxz     :     0.009498
      dyz     :     0.006629
      dx2y2   :     0.004846
      dxy     :     0.003851

 17 C s       :     3.165823  s :     3.165823
      pz      :     0.870056  p :     2.780979
      px      :     0.946561
      py      :     0.964362
      dz2     :     0.008310  d :     0.034800
      dxz     :     0.010842
      dyz     :     0.004090
      dx2y2   :     0.005683
      dxy     :     0.005875

 18 C s       :     3.223668  s :     3.223668
      pz      :     0.902133  p :     2.701142
      px      :     0.859921
      py      :     0.939088
      dz2     :     0.008043  d :     0.034995
      dxz     :     0.011843
      dyz     :     0.004291
      dx2y2   :     0.005534
      dxy     :     0.005284

 19 S s       :     5.270635  s :     5.270635
      pz      :     3.024247  p :     8.987357
      px      :     3.014982
      py      :     2.948128
      dz2     :     0.129040  d :     0.778353
      dxz     :     0.181074
      dyz     :     0.155747
      dx2y2   :     0.164210
      dxy     :     0.148283

 20 O s       :     3.841657  s :     3.841657
      pz      :     1.607852  p :     4.606235
      px      :     1.354463
      py      :     1.643921
      dz2     :     0.002681  d :     0.018419
      dxz     :     0.005436
      dyz     :     0.001051
      dx2y2   :     0.004759
      dxy     :     0.004493

 21 O s       :     3.846246  s :     3.846246
      pz      :     1.516842  p :     4.562216
      px      :     1.653523
      py      :     1.391851
      dz2     :     0.003841  d :     0.018699
      dxz     :     0.002188
      dyz     :     0.005863
      dx2y2   :     0.003480
      dxy     :     0.003328

 22 O s       :     3.744665  s :     3.744665
      pz      :     1.740515  p :     4.584715
      px      :     1.578905
      py      :     1.265295
      dz2     :     0.002053  d :     0.013180
      dxz     :     0.002020
      dyz     :     0.003088
      dx2y2   :     0.002023
      dxy     :     0.003996

 23 H s       :     0.995075  s :     0.995075
      pz      :     0.010734  p :     0.023001
      px      :     0.005471
      py      :     0.006796

 24 H s       :     0.994965  s :     0.994965
      pz      :     0.006520  p :     0.023011
      px      :     0.011422
      py      :     0.005068

 25 H s       :     0.992891  s :     0.992891
      pz      :     0.004834  p :     0.023157
      px      :     0.006254
      py      :     0.012069

 26 H s       :     0.986157  s :     0.986157
      pz      :     0.006628  p :     0.023462
      px      :     0.011311
      py      :     0.005523

 27 H s       :     0.992326  s :     0.992326
      pz      :     0.004773  p :     0.023001
      px      :     0.005949
      py      :     0.012279

 28 H s       :     0.970721  s :     0.970721
      pz      :     0.009037  p :     0.023363
      px      :     0.004803
      py      :     0.009523

 29 H s       :     0.994996  s :     0.994996
      pz      :     0.014206  p :     0.022984
      px      :     0.004876
      py      :     0.003902

 30 H s       :     0.993557  s :     0.993557
      pz      :     0.004393  p :     0.022954
      px      :     0.004730
      py      :     0.013831

 31 H s       :     0.993698  s :     0.993698
      pz      :     0.008701  p :     0.023023
      px      :     0.004707
      py      :     0.009615

 32 H s       :     0.997472  s :     0.997472
      pz      :     0.014316  p :     0.023097
      px      :     0.004856
      py      :     0.003925

 33 H s       :     0.983054  s :     0.983054
      pz      :     0.013214  p :     0.023621
      px      :     0.004501
      py      :     0.005905

 34 H s       :     0.970415  s :     0.970415
      pz      :     0.003632  p :     0.023412
      px      :     0.014749
      py      :     0.005032

 35 H s       :     0.980454  s :     0.980454
      pz      :     0.012826  p :     0.023039
      px      :     0.004323
      py      :     0.005890

 36 H s       :     0.986508  s :     0.986508
      pz      :     0.010109  p :     0.023039
      px      :     0.008654
      py      :     0.004276

 37 H s       :     0.723892  s :     0.723892
      pz      :     0.015374  p :     0.065690
      px      :     0.026300
      py      :     0.024016



                     *******************************
                     * LOEWDIN POPULATION ANALYSIS *
                     *******************************

----------------------
LOEWDIN ATOMIC CHARGES
----------------------
   0 C :   -0.023790
   1 C :   -0.022490
   2 C :   -0.028610
   3 C :   -0.181227
   4 C :   -0.032880
   5 C :   -0.019201
   6 P :    0.521933
   7 C :   -0.177901
   8 C :   -0.025398
   9 C :   -0.022797
  10 C :   -0.018064
  11 C :   -0.023478
  12 C :   -0.023103
  13 C :   -0.171987
  14 C :   -0.005662
  15 C :   -0.181981
  16 C :   -0.004203
  17 C :   -0.017074
  18 C :   -0.007385
  19 S :    1.202739
  20 O :   -0.504965
  21 O :   -0.474791
  22 O :   -0.250411
  23 H :    0.026394
  24 H :    0.027343
  25 H :    0.024754
  26 H :    0.025337
  27 H :    0.028754
  28 H :    0.026675
  29 H :    0.027605
  30 H :    0.026910
  31 H :    0.027484
  32 H :    0.023156
  33 H :    0.031126
  34 H :    0.038220
  35 H :    0.034093
  36 H :    0.028796
  37 H :    0.096080

-------------------------------
LOEWDIN REDUCED ORBITAL CHARGES
-------------------------------
  0 C s       :     2.858851  s :     2.858851
      pz      :     1.010191  p :     3.073072
      px      :     1.028581
      py      :     1.034300
      dz2     :     0.013388  d :     0.091867
      dxz     :     0.016629
      dyz     :     0.019221
      dx2y2   :     0.020324
      dxy     :     0.022305

  1 C s       :     2.859730  s :     2.859730
      pz      :     1.020737  p :     3.071252
      px      :     1.012420
      py      :     1.038095
      dz2     :     0.015931  d :     0.091508
      dxz     :     0.016330
      dyz     :     0.021406
      dx2y2   :     0.018531
      dxy     :     0.019310

  2 C s       :     2.863225  s :     2.863225
      pz      :     1.026801  p :     3.074603
      px      :     1.025502
      py      :     1.022300
      dz2     :     0.017603  d :     0.090782
      dxz     :     0.020549
      dyz     :     0.016324
      dx2y2   :     0.016995
      dxy     :     0.019311

  3 C s       :     2.912585  s :     2.912585
      pz      :     1.043472  p :     3.177407
      px      :     1.060651
      py      :     1.073284
      dz2     :     0.015472  d :     0.091235
      dxz     :     0.015699
      dyz     :     0.017937
      dx2y2   :     0.020652
      dxy     :     0.021474

  4 C s       :     2.862802  s :     2.862802
      pz      :     1.024797  p :     3.078899
      px      :     1.014733
      py      :     1.039369
      dz2     :     0.015308  d :     0.091180
      dxz     :     0.015513
      dyz     :     0.022600
      dx2y2   :     0.018292
      dxy     :     0.019467

  5 C s       :     2.860186  s :     2.860186
      pz      :     1.024387  p :     3.067827
      px      :     1.024570
      py      :     1.018871
      dz2     :     0.018340  d :     0.091188
      dxz     :     0.019737
      dyz     :     0.017356
      dx2y2   :     0.016967
      dxy     :     0.018788

  6 P s       :     5.239971  s :     5.239971
      pz      :     3.232596  p :     8.990558
      px      :     2.962358
      py      :     2.795604
      dz2     :     0.046857  d :     0.247538
      dxz     :     0.024997
      dyz     :     0.056408
      dx2y2   :     0.070701
      dxy     :     0.048575

  7 C s       :     2.912576  s :     2.912576
      pz      :     1.093901  p :     3.173496
      px      :     0.998601
      py      :     1.080993
      dz2     :     0.026881  d :     0.091829
      dxz     :     0.013248
      dyz     :     0.033818
      dx2y2   :     0.010587
      dxy     :     0.007296

  8 C s       :     2.865031  s :     2.865031
      pz      :     1.054512  p :     3.068600
      px      :     0.957716
      py      :     1.056373
      dz2     :     0.023979  d :     0.091766
      dxz     :     0.009483
      dyz     :     0.037104
      dx2y2   :     0.012298
      dxy     :     0.008901

  9 C s       :     2.860599  s :     2.860599
      pz      :     1.038657  p :     3.071155
      px      :     0.967082
      py      :     1.065416
      dz2     :     0.025286  d :     0.091043
      dxz     :     0.005073
      dyz     :     0.031646
      dx2y2   :     0.015880
      dxy     :     0.013157
[...]
      pz      :     0.988259  p :     3.060149
      px      :     1.053104
      py      :     1.018787
      dz2     :     0.014291  d :     0.090919
      dxz     :     0.014273
      dyz     :     0.016394
      dx2y2   :     0.024537
      dxy     :     0.021425

 17 C s       :     2.862129  s :     2.862129
      pz      :     0.992207  p :     3.064908
      px      :     1.059682
      py      :     1.013020
      dz2     :     0.009101  d :     0.090171
      dxz     :     0.019754
      dyz     :     0.011286
      dx2y2   :     0.025938
      dxy     :     0.024093

 18 C s       :     2.868615  s :     2.868615
      pz      :     0.981280  p :     3.048397
      px      :     1.048857
      py      :     1.018260
      dz2     :     0.009798  d :     0.091029
      dxz     :     0.018721
      dyz     :     0.013295
      dx2y2   :     0.023317
      dxy     :     0.025898

 19 S s       :     5.050983  s :     5.050983
      pz      :     2.917991  p :     8.763200
      px      :     2.947695
      py      :     2.897514
      dz2     :     0.164080  d :     0.969104
      dxz     :     0.206389
      dyz     :     0.225733
      dx2y2   :     0.165883
      dxy     :     0.207020

 20 O s       :     3.689863  s :     3.689863
      pz      :     1.690150  p :     4.784905
      px      :     1.521634
      py      :     1.573122
      dz2     :     0.004291  d :     0.028777
      dxz     :     0.003620
      dyz     :     0.002403
      dx2y2   :     0.006079
      dxy     :     0.012383

 21 O s       :     3.686117  s :     3.686117
      pz      :     1.480635  p :     4.759800
      px      :     1.650002
      py      :     1.629163
      dz2     :     0.009213  d :     0.029623
      dxz     :     0.007571
      dyz     :     0.008590
      dx2y2   :     0.001902
      dxy     :     0.002346

 22 O s       :     3.538716  s :     3.538716
      pz      :     1.528386  p :     4.696431
      px      :     1.582575
      py      :     1.585470
      dz2     :     0.001338  d :     0.022487
      dxz     :     0.004396
      dyz     :     0.007653
      dx2y2   :     0.004647
      dxy     :     0.004453

 23 H s       :     0.904821  s :     0.904821
      pz      :     0.026127  p :     0.066592
      px      :     0.017510
      py      :     0.022955

 24 H s       :     0.904493  s :     0.904493
      pz      :     0.012260  p :     0.066564
      px      :     0.041775
      py      :     0.012529

 25 H s       :     0.907071  s :     0.907071
      pz      :     0.024107  p :     0.067395
      px      :     0.019885
      py      :     0.023402

 26 H s       :     0.902248  s :     0.902248
      pz      :     0.012462  p :     0.069284
      px      :     0.043969
      py      :     0.012853

 27 H s       :     0.904074  s :     0.904074
      pz      :     0.023737  p :     0.066646
      px      :     0.019843
      py      :     0.023066

 28 H s       :     0.900281  s :     0.900281
      pz      :     0.019633  p :     0.069678
      px      :     0.015581
      py      :     0.034464

 29 H s       :     0.903756  s :     0.903756
      pz      :     0.041838  p :     0.066594
      px      :     0.013759
      py      :     0.010996

 30 H s       :     0.904297  s :     0.904297
      pz      :     0.017956  p :     0.066571
      px      :     0.014474
      py      :     0.034140

 31 H s       :     0.904502  s :     0.904502
      pz      :     0.019335  p :     0.066542
      px      :     0.015448
      py      :     0.031758

 32 H s       :     0.908225  s :     0.908225
      pz      :     0.042504  p :     0.067381
      px      :     0.013845
      py      :     0.011032

 33 H s       :     0.887620  s :     0.887620
      pz      :     0.025711  p :     0.073255
      px      :     0.012427
      py      :     0.035117

 34 H s       :     0.893360  s :     0.893360
      pz      :     0.012604  p :     0.070787
      px      :     0.041394
      py      :     0.016789

 35 H s       :     0.899009  s :     0.899009
      pz      :     0.022694  p :     0.066918
      px      :     0.011496
      py      :     0.032729

 36 H s       :     0.901890  s :     0.901890
      pz      :     0.020541  p :     0.067372
      px      :     0.029801
      py      :     0.017030

 37 H s       :     0.737103  s :     0.737103
      pz      :     0.062444  p :     0.180589
      px      :     0.075444
      py      :     0.042701



                      *****************************
                      * MAYER POPULATION ANALYSIS *
                      *****************************

  NA   - Mulliken gross atomic population
  ZA   - Total nuclear charge
  QA   - Mulliken gross atomic charge
  VA   - Mayer's total valence
  BVA  - Mayer's bonded valence
  FA   - Mayer's free valence

  ATOM       NA         ZA         QA         VA         BVA        FA
  0 C      5.9749     6.0000     0.0251     3.8266     3.8266    -0.0000
  1 C      5.9783     6.0000     0.0217     3.8529     3.8529    -0.0000
  2 C      5.9719     6.0000     0.0281     3.8701     3.8701    -0.0000
  3 C      6.1662     6.0000    -0.1662     3.8245     3.8245    -0.0000
  4 C      5.9801     6.0000     0.0199     3.8748     3.8748    -0.0000
  5 C      5.9747     6.0000     0.0253     3.8385     3.8385    -0.0000
  6 P     14.6321    15.0000     0.3679     2.9324     2.9324    -0.0000
  7 C      6.1760     6.0000    -0.1760     3.8181     3.8181    -0.0000
  8 C      5.9799     6.0000     0.0201     3.8802     3.8802    -0.0000
  9 C      5.9671     6.0000     0.0329     3.8391     3.8391    -0.0000
 10 C      5.9713     6.0000     0.0287     3.8292     3.8292     0.0000
 11 C      5.9755     6.0000     0.0245     3.8552     3.8552     0.0000
 12 C      5.9752     6.0000     0.0248     3.8681     3.8681    -0.0000
 13 C      6.1731     6.0000    -0.1731     3.8305     3.8305    -0.0000
 14 C      5.9609     6.0000     0.0391     3.8792     3.8792    -0.0000
 15 C      6.0892     6.0000    -0.0892     3.8262     3.8262    -0.0000
 16 C      5.9789     6.0000     0.0211     3.8750     3.8750    -0.0000
 17 C      5.9783     6.0000     0.0217     3.8474     3.8474    -0.0000
 18 C      5.9493     6.0000     0.0507     3.8481     3.8481    -0.0000
 19 S     15.0374    16.0000     0.9626     5.3393     5.3393    -0.0000
 20 O      8.4536     8.0000    -0.4536     1.9759     1.9759    -0.0000
 21 O      8.4283     8.0000    -0.4283     2.0047     2.0047    -0.0000
 22 O      8.3409     8.0000    -0.3409     2.0329     2.0329    -0.0000
 23 H      1.0118     1.0000    -0.0118     0.9779     0.9779    -0.0000
 24 H      1.0123     1.0000    -0.0123     0.9781     0.9781     0.0000
 25 H      1.0140     1.0000    -0.0140     0.9898     0.9898    -0.0000
 26 H      1.0029     1.0000    -0.0029     0.9887     0.9887    -0.0000
 27 H      1.0130     1.0000    -0.0130     0.9780     0.9780    -0.0000
 28 H      1.0013     1.0000    -0.0013     0.9924     0.9924    -0.0000
 29 H      1.0130     1.0000    -0.0130     0.9782     0.9782    -0.0000
 30 H      1.0111     1.0000    -0.0111     0.9780     0.9780     0.0000
 31 H      1.0127     1.0000    -0.0127     0.9781     0.9781     0.0000
 32 H      1.0161     1.0000    -0.0161     0.9895     0.9895    -0.0000
 33 H      0.9750     1.0000     0.0250     1.0262     1.0262     0.0000
 34 H      0.9937     1.0000     0.0063     1.0129     1.0129    -0.0000
 35 H      1.0023     1.0000    -0.0023     0.9803     0.9803    -0.0000
 36 H      1.0045     1.0000    -0.0045     0.9913     0.9913     0.0000
 37 H      0.8032     1.0000     0.1968     1.0191     1.0191    -0.0000

  Mayer bond orders larger than 0.100000
B(  0-C ,  1-C ) :   1.3780 B(  0-C ,  5-C ) :   1.3804 B(  0-C , 23-H ) :   0.9848 
B(  1-C ,  2-C ) :   1.4023 B(  1-C , 24-H ) :   0.9851 B(  2-C ,  3-C ) :   1.3741 
B(  2-C , 25-H ) :   0.9821 B(  3-C ,  4-C ) :   1.3771 B(  3-C ,  6-P ) :   0.9405 
B(  4-C ,  5-C ) :   1.3881 B(  4-C , 26-H ) :   0.9798 B(  5-C , 27-H ) :   0.9844 
B(  6-P ,  7-C ) :   0.9371 B(  6-P , 13-C ) :   0.9166 B(  7-C ,  8-C ) :   1.3811 
B(  7-C , 12-C ) :   1.3688 B(  8-C ,  9-C ) :   1.3875 B(  8-C , 28-H ) :   0.9801 
B(  9-C , 10-C ) :   1.3821 B(  9-C , 29-H ) :   0.9836 B( 10-C , 11-C ) :   1.3781 
B( 10-C , 30-H ) :   0.9843 B( 11-C , 12-C ) :   1.4039 B( 11-C , 31-H ) :   0.9849 
B( 12-C , 32-H ) :   0.9821 B( 13-C , 14-C ) :   1.3836 B( 13-C , 18-C ) :   1.3643 
B( 14-C , 15-C ) :   1.3416 B( 14-C , 33-H ) :   0.9826 B( 15-C , 16-C ) :   1.3963 
B( 15-C , 19-S ) :   0.8556 B( 16-C , 17-C ) :   1.3531 B( 16-C , 34-H ) :   0.9840 
B( 17-C , 18-C ) :   1.4062 B( 17-C , 35-H ) :   0.9851 B( 18-C , 36-H ) :   0.9827 
B( 19-S , 20-O ) :   1.7066 B( 19-S , 21-O ) :   1.7599 B( 19-S , 22-O ) :   0.9371 
B( 22-O , 37-H ) :   0.9430 

-------
TIMINGS
-------

Total SCF time: 0 days 0 hours 0 min 22 sec 

Total time                  ....      22.526 sec
Sum of individual times     ....      22.431 sec  ( 99.6%)

SCF preparation             ....       0.138 sec  (  0.6%)
Fock matrix formation       ....      21.739 sec  ( 96.5%)
  Startup                   ....       0.026 sec  (  0.1% of F)
  Exchange formation        ....      16.875 sec  ( 77.6% of F)
  Split-RI-J                ....       1.803 sec  (  8.3% of F)
  XC integration            ....       2.938 sec  ( 13.5% of F)
    Basis function eval.    ....       0.921 sec  ( 31.3% of XC)
    Density eval.           ....       0.922 sec  ( 31.4% of XC)
    XC-Functional eval.     ....       0.079 sec  (  2.7% of XC)
    XC-Potential eval.      ....       0.613 sec  ( 20.9% of XC)
Diagonalization             ....       0.000 sec  (  0.0%)
Density matrix formation    ....       0.058 sec  (  0.3%)
Total Energy calculation    ....       0.020 sec  (  0.1%)
Population analysis         ....       0.109 sec  (  0.5%)
Orbital Transformation      ....       0.055 sec  (  0.2%)
Orbital Orthonormalization  ....       0.000 sec  (  0.0%)
DIIS solution               ....       0.061 sec  (  0.3%)
SOSCF solution              ....       0.251 sec  (  1.1%)
Finished LeanSCF after  22.6 sec

Maximum memory used throughout the entire LEANSCF-calculation: 43.1 MB


-------------------------------------------------------------------------------
                          DFT DISPERSION CORRECTION                            
                                                                               
                              DFTD3 V3.1  Rev 1                                
                          USING Becke-Johnson damping                          
-------------------------------------------------------------------------------
The B3LYP functional is recognized
Active option DFTDOPT                   ...         4   

molecular C6(AA) [au] = 22484.390896 


            DFT-D V3
 parameters
 s6 scaling factor         :     1.0000 
 a1 scaling factor         :     0.3981 
 s8 scaling factor         :     1.9889 
 a2 scaling factor         :     4.4211 
 ad hoc parameters k1-k3   :    16.0000     1.3333    -4.0000 

 Edisp/kcal,au: -63.380552348968  -0.101003328568 
 E6   /kcal   : -28.587437914 
 E8   /kcal   : -34.793114435 
 % E8         :  54.895568349 

-------------------------   ----------------
Dispersion correction           -0.101003329
-------------------------   ----------------


-------------------------   --------------------
FINAL SINGLE POINT ENERGY     -1658.655434924403
-------------------------   --------------------

                                *** OPTIMIZATION RUN DONE ***



           ************************************************************
           *        Program running with 6 parallel MPI-processes     *
           *              working on a common directory               *
           ************************************************************

------------------------------------------------------------------------------
                              ORCA PROPERTY CALCULATIONS
------------------------------------------------------------------------------

GBWName                                 ... data/geom_opt/195868/195868.gbw
Number of atoms                         ...     38
Number of basis functions               ...    405
Max core memory                         ...   1024 MB

Electric properties:
Dipole moment                           ... YES
Quadrupole moment                       ...  NO
Static polarizability (Dipole/Dipole)   ...  NO
Static polarizability (Dipole/Quad.)    ...  NO
Static polarizability (Quad./Quad.)     ...  NO
Static polarizability (Velocity)        ...  NO

Atomic electric properties:
Dipole moment                           ...  NO
Quadrupole moment                       ...  NO
Static polarizability                   ...  NO

Choice of electric origin               ... Center of mass
Position of electric origin             ...     0.960843     0.067953    -0.162955

General magnetic properties:
Magnetizability                         ...  NO

EPR properties:
g-Tensor (aka g-matrix)                 ...  NO
Zero-Field splitting spin-orbit         ...  NO
Zero-field splitting spin-spin          ...  NO
Hyperfine couplings                     ...  NO (   0 nuclei)
Quadrupole couplings                    ...  NO (   0 nuclei)
Contact density                         ...  NO (   0 nuclei)

NMR properties:
Chemical shifts                         ...  NO (   0 nuclei)
Spin-rotation constants                 ...  NO (   0 nuclei)
Spin-spin couplings                     ...  NO (   0 nuclei,    0 pairs)

Choice of magnetic origin               ... GIAO
Position of magnetic origin             ...     0.000000     0.000000     0.000000

Properties with geometric perturbations:
SCF Hessian                             ...  NO
IR spectrum                             ...  NO
VCD spectrum                            ...  NO
X-ray spectroscopy properties:
SCF XES/XAS/RIXS spectra                ...  NO


-------------
DIPOLE MOMENT
-------------

Method             : SCF
Type of density    : Electron Density
Multiplicity       :   1
Irrep              :   0
Energy             : -1658.5544315958354673 Eh
Relativity type    : 
Basis              : AO
                                X                 Y                 Z
Electronic contribution:      9.986405559       0.335112066      -4.126374231
Nuclear contribution   :    -10.773367245      -0.702215207       3.235270662
                        -----------------------------------------
Total Dipole Moment    :     -0.786961686      -0.367103141      -0.891103569
                        -----------------------------------------
Magnitude (a.u.)       :      1.244242332
Magnitude (Debye)      :      3.162612672



--------------------
Rotational spectrum 
--------------------
 
Rotational constants in cm-1:             0.010057             0.005533             0.004395 
Rotational constants in MHz :           301.507519           165.863492           131.757376 

Dipole components along the rotational axes: 
x,y,z [a.u.] :     0.693298    -0.400197    -0.952533 
x,y,z [Debye]:     1.762224    -1.017220    -2.421146 

 

Dipole moment calculation done in   0.0 sec 

Maximum memory used throughout the entire PROP-calculation: 22.4 MB

--------------------------------
SUGGESTED CITATIONS FOR THIS RUN
--------------------------------

Below you find a list of papers that are relevant to this ORCA run
We neither can nor want to force you to cite these papers, but we appreciate if you do
You receive ORCA, which is the product of decades of hard work by many enthusiastic individuals, for free
The only thing we kindly ask in return is that you cite our papers,
We deeply appreciate it, if you show your appreciation for ORCA by not just citing the generic ORCA reference.

Please note that relegating all ORCA citations to the supporting information does *not* help us.
SI sections are not indexed - citations you put there will not count into any citation statistics
But we need these citations in order to attract the funding resources that allow us to do what we are doing

Therefore, if you are a happy ORCA user, please consider citing a few of the papers listed below in the main body of your paper

In addition to the list printed below, the program has created the file data/geom_opt/195868/195868.bibtex that contains the list in bibtex format
You can import this file easily into all common literature databanks and citation aid programs


List of essential papers. We consider these as the minimum necessary citations

  1. Neese,F.
     Software update: the ORCA program system, version 5.0
     WIRES Comput. Molec. Sci., 2022 12(1)e1606
     doi.org/10.1002/wcms.1606

List of papers to cite with high priority. The work reported in these papers was absolutely
necessary for this run to complete.
Our perspective: the developers of density functionals and basis sets usually get cited in chemistry papers
Good! But without the algorithms to do something with them, the functionals or basis sets would not do anything.
Hence, in our opinion, the algorithm design and method developments papers are equally worthy of getting cited

  1. Neese,F.
     An improvement of the resolution of the identity approximation for the formation of the Coulomb matrix
     J. Comp. Chem., 2003 24(14)1740-1747
     doi.org/10.1002/jcc.10318
  2. Neese,F.
     The SHARK Integral Generation and Digestion System
     J. Comp. Chem., 2022  1-16
     doi.org/10.1002/jcc.26942
  3. Grimme,S.; Antony,J.; Ehrlich,S.; Krieg,H.
     A consistent and accurate ab initio parametrization of density functional dispersion correction (DFT-D) for the 94 elements H-Pu
     J. Chem. Phys., 2010 132 154104-XXXX
     doi.org/10.1063/1.3382344
  4. Grimme,S.; Ehrlich,S.; Goerigk,L.
     Effect of the damping function in dispersion corrected density functional theory
     J. Comput. Chem., 2011 32(7)1456-1465
     doi.org/10.1002/jcc.21759

List of suggested additional citations. These are papers that are important in the 'surrounding' of 
of this run, or papers that preceded the highly important papers. If you like your results we are grateful for a citation.

  1. Neese,F.
     The ORCA program system
     WIRES Comput. Molec. Sci., 2012 2(1)73-78
     doi.org/10.1002/wcms.81
  2. Neese,F.
     Software update: the ORCA program system, version 4.0
     WIRES Comput. Molec. Sci., 2018 8(1)1-6
     doi.org/10.1002/wcms.1327
  3. Neese,F.; Wennmohs,F.; Becker,U.; Riplinger,C.
     The ORCA quantum chemistry program package
     J. Chem. Phys., 2020 152 Art. No. L224108
     doi.org/10.1063/5.0004608

List of optional additional citations

  1. Neese,F.
     Approximate second-order SCF convergence for spin unrestricted wavefunctions
     Chem. Phys. Lett., 2000 325(1-3)93-98
     doi.org/10.1016/s0009-2614(00)00662-x

Timings for individual modules:

Sum of individual times          ...      983.018 sec (=  16.384 min)
Startup calculation              ...       23.549 sec (=   0.392 min)   2.4 %
SCF iterations                   ...      661.047 sec (=  11.017 min)  67.2 %
Property calculations            ...        0.182 sec (=   0.003 min)   0.0 %
SCF Gradient evaluation          ...      297.968 sec (=   4.966 min)  30.3 %
Geometry relaxation              ...        0.272 sec (=   0.005 min)   0.0 %
                             ****ORCA TERMINATED NORMALLY****
TOTAL RUN TIME: 0 days 0 hours 16 minutes 25 seconds 871 msec
