
                                 *****************
                                 * O   R   C   A *
                                 *****************

                                            #,                                       
                                            ###                                      
                                            ####                                     
                                            #####                                    
                                            ######                                   
                                           ########,                                 
                                     ,,################,,,,,                         
                               ,,#################################,,                 
                          ,,##########################################,,             
                       ,#########################################, ''#####,          
                    ,#############################################,,   '####,        
                  ,##################################################,,,,####,       
                ,###########''''           ''''###############################       
              ,#####''   ,,,,##########,,,,          '''####'''          '####       
            ,##' ,,,,###########################,,,                        '##       
           ' ,,###''''                  '''############,,,                           
         ,,##''                                '''############,,,,        ,,,,,,###''
      ,#''                                            '''#######################'''  
     '                                                          ''''####''''         
             ,#######,   #######,   ,#######,      ##                                
            ,#'     '#,  ##    ##  ,#'     '#,    #''#        ,####,   ,####,        
            ##       ##  ##   ,#'  ##            #'  '#       #'       #'  '#        
            ##       ##  #######   ##           ,######,      #####,   #    #        
            '#,     ,#'  ##    ##  '#,     ,#' ,#      #,     #,   #   #,  ,#        
             '#######'   ##     ##  '#######'  #'      '#     '####' # '####'        



                #########################################################
                #                        -***-                          #
                #          Department of theory and spectroscopy        #
                #                                                       #
                #                      Frank Neese                      #
                #                                                       #
                #     Directorship, Architecture, Infrastructure        #
                #                    SHARK, DRIVERS                     #
                #        Core code/Algorithms in most modules           #
                #                                                       #
                #        Max Planck Institute fuer Kohlenforschung      #
                #                Kaiser Wilhelm Platz 1                 #
                #                 D-45470 Muelheim/Ruhr                 #
                #                      Germany                          #
                #                                                       #
                #                  All rights reserved                  #
                #                        -***-                          #
                #########################################################


                         Program Version 6.0.0  -   RELEASE   -


 With contributions from (in alphabetic order):
   Daniel Aravena         : Magnetic Suceptibility
   Michael Atanasov       : Ab Initio Ligand Field Theory (pilot matlab implementation)
   Alexander A. Auer      : GIAO ZORA, VPT2 properties, NMR spectrum
   Ute Becker             : All parallelization in ORCA, NUMFREQ, NUMCALC
   Giovanni Bistoni       : ED, misc. LED, open-shell LED, HFLD
   Martin Brehm           : Molecular dynamics
   Dmytro Bykov           : pre 5.0 version of the SCF Hessian
   Marcos Casanova-Páez   : Triplet and SCS-CIS(D). UHF-(DLPNO)-IP/EA/STEOM-CCSD. UHF-CVS-IP/STEOM-CCSD
   Vijay G. Chilkuri      : MRCI spin determinant printing, contributions to CSF-ICE
   Pauline Colinet        : FMM embedding
   Dipayan Datta          : RHF DLPNO-CCSD density
   Achintya Kumar Dutta   : EOM-CC, STEOM-CC
   Nicolas Foglia         : Exact transition moments, OPA infrastructure, MCD improvements
   Dmitry Ganyushin       : Spin-Orbit,Spin-Spin,Magnetic field MRCI
   Miquel Garcia          : C-PCM and meta-GGA Hessian, CCSD/C-PCM, Gaussian charge scheme
   Tiago L. C. Gouveia    : GS-ROHF, GS-ROCIS
   Yang Guo               : DLPNO-NEVPT2, F12-NEVPT2, CIM, IAO-localization
   Andreas Hansen         : Spin unrestricted coupled pair/coupled cluster methods
   Ingolf Harden          : AUTO-CI MPn and infrastructure 
   Benjamin Helmich-Paris : MC-RPA, TRAH-(SCF,CASSCF), AVAS, COSX integrals, SCF dyn. polar.
   Lee Huntington         : MR-EOM, pCC
   Robert Izsak           : Overlap fitted RIJCOSX, COSX-SCS-MP3, EOM
   Riya Kayal             : Wick's Theorem for AUTO-CI, AUTO-CI UHF-CCSDT
   Emily Kempfer          : AUTO-CI, RHF CISDT and CCSDT
   Christian Kollmar      : KDIIS, OOCD, Brueckner-CCSD(T), CCSD density, CASPT2, CASPT2-K, improved NEVPT2
   Axel Koslowski         : Symmetry handling
   Simone Kossmann        : Meta GGA functionals, TD-DFT gradient, OOMP2, (MP2 Hessian; deprecated post 5.0)
   Lucas Lang             : DCDCAS
   Marvin Lechner         : AUTO-CI (C++ implementation), FIC-MRCC
   Spencer Leger          : CASSCF response
   Dagmar Lenk            : GEPOL surface, SMD, ORCA-2-JSON
   Dimitrios Liakos       : Extrapolation schemes; Compound Job, initial MDCI parallelization
   Dimitrios Manganas     : Further ROCIS development; embedding schemes. LFT, Crystal Embedding
   Dimitrios Pantazis     : SARC Basis sets
   Anastasios Papadopoulos: AUTO-CI, single reference methods and gradients
   Taras Petrenko         : pre 6.0 DFT Hessian and TD-DFT gradient, (ASA, deprecated), ECA, 1-Electron XAS/XES, NRVS
   Peter Pinski           : DLPNO-MP2, DLPNO-MP2 Gradient
   Christoph Reimann      : Effective Core Potentials
   Marius Retegan         : Local ZFS, SOC
   Christoph Riplinger    : Optimizer, TS searches, QM/MM, DLPNO-CCSD(T), (RO)-DLPNO pert. Triples
   Michael Roemelt        : Original ROCIS implementation
   Masaaki Saitow         : Open-shell DLPNO-CCSD energy and density
   Barbara Sandhoefer     : DKH picture change effects
   Kantharuban Sivalingam : CASSCF convergence/infrastructure, NEVPT2 and variants, FIC-MRCI
   Bernardo de Souza      : ESD, SOC TD-DFT
   Georgi Stoychev        : AutoAux, RI-MP2 NMR, DLPNO-MP2 response, X2C
   Van Anh Tran           : RI-MP2 g-tensors
   Willem Van den Heuvel  : Paramagnetic NMR
   Zikuan Wang            : NOTCH, Electric field optimization 
   Frank Wennmohs         : Technical directorship and infrastructure
   Hang Xu                : AUTO-CI-Response properties 


 We gratefully acknowledge several colleagues who have allowed us to
 interface, adapt or use parts of their codes:
   Stefan Grimme, W. Hujo, H. Kruse, P. Pracht,  : VdW corrections, initial TS optimization,
                  C. Bannwarth, S. Ehlert,         DFT functionals, gCP, sTDA/sTD-DF
                  L. Wittmann, M. Mueller
   Ed Valeev, F. Pavosevic, A. Kumar             : LibInt (2-el integral package), F12 methods
   Garnet Chan, S. Sharma, J. Yang, R. Olivares  : DMRG
   Ulf Ekstrom                                   : XCFun DFT Library
   Mihaly Kallay                                 : mrcc  (arbitrary order and MRCC methods)
   Frank Weinhold                                : gennbo (NPA and NBO analysis)
   Simon Mueller                                 : openCOSMO-RS
   Christopher J. Cramer and Donald G. Truhlar   : smd solvation model
   Lars Goerigk                                  : TD-DFT with DH, B97 family of functionals
   V. Asgeirsson, H. Jonsson                     : NEB implementation
   FAccTs GmbH                                   : IRC, NEB, NEB-TS, DLPNO-Multilevel, CI-OPT
                                                   MM, QMMM, 2- and 3-layer-ONIOM, Crystal-QMMM,
                                                   LR-CPCM, SF, NACMEs, symmetry and pop. for TD-DFT,
                                                   nearIR, NL-DFT gradient (VV10), updates on ESD,
                                                   ML-optimized integration grids, MBIS, APM,
                                                   GOAT, DOCKER, SOLVATOR, interface openCOSMO-RS
   S Lehtola, MJT Oliveira, MAL Marques          : LibXC Library
   Liviu Ungur et al                             : ANISO software


 Your calculation uses the libint2 library for the computation of 2-el integrals
 For citations please refer to: http://libint.valeyev.net

 Your ORCA version has been built with support for libXC version: 6.2.2
 For citations please refer to: https://libxc.gitlab.io

 This ORCA versions uses:
   CBLAS   interface :  Fast vector & matrix operations
   LAPACKE interface :  Fast linear algebra routines
   Shared memory     :  Shared parallel matrices


Your calculation utilizes the atom-pairwise dispersion correction
with the Becke-Johnson damping scheme (D3BJ)


Warning: RI is on but no J-basis has been assigned. Assigning Def2/J (nothing to worry about!)
================================================================================

----- Orbital basis set information -----
Your calculation utilizes the basis: def2-SVP
   F. Weigend and R. Ahlrichs, Phys. Chem. Chem. Phys. 7, 3297 (2005).

----- AuxJ basis set information -----
Your calculation utilizes the auxiliary basis: def2/J
   F. Weigend, Phys. Chem. Chem. Phys. 8, 1057 (2006).

================================================================================
                                        WARNINGS
                       Please study these warnings very carefully!
================================================================================


WARNING: Geometry Optimization
  ===> : Switching off AutoStart
         For restart on a previous wavefunction, please use MOREAD

================================================================================
                                       INPUT FILE
================================================================================
NAME = data/geom_opt_PO_BP86/195868/195868.inp
|  1> ! RI BP86 def2-SVP D3BJ TIGHTSCF Opt
|  2> %pal
|  3> nprocs 6
|  4> end
|  5> 
|  6> * xyz 0 1
|  7> C     -3.711811   -2.815281    1.061109
|  8> C     -3.965470   -2.335379   -0.221490
|  9> C     -2.990860   -1.598439   -0.894559
| 10> C     -1.750350   -1.330864   -0.293989
| 11> C     -1.507710   -1.823316    0.996808
| 12> C     -2.484378   -2.560659    1.669500
| 13> P     -0.539938   -0.358347   -1.208658
| 14> O     -0.621228   -0.645610   -2.699102
| 15> C     -0.842835    1.386443   -0.871631
| 16> C     -0.393546    2.339517   -1.799702
| 17> C     -0.587496    3.702234   -1.573436
| 18> C     -1.234187    4.129425   -0.416264
| 19> C     -1.690005    3.195339    0.511864
| 20> C     -1.497513    1.830872    0.286225
| 21> C      1.101950   -0.767314   -0.574891
| 22> C      1.719742   -0.038246    0.450555
| 23> C      2.985560   -0.418850    0.910822
| 24> C      3.656733   -1.510341    0.357267
| 25> C      3.049838   -2.234346   -0.666252
| 26> C      1.783696   -1.865601   -1.127084
| 27> S      3.747532    0.523120    2.203094
| 28> O      3.013966    0.258021    3.419302
| 29> O      5.181051    0.350412    2.110440
| 30> O      3.486943    2.059318    1.784772
| 31> H     -4.469939   -3.391475    1.585481
| 32> H     -4.920500   -2.537098   -0.700110
| 33> H     -3.193466   -1.231338   -1.900036
| 34> H     -0.559856   -1.640259    1.495979
| 35> H     -2.286538   -2.939270    2.669587
| 36> H      0.105407    2.011566   -2.710794
| 37> H     -0.238368    4.429107   -2.302489
| 38> H     -1.388341    5.190969   -0.239976
| 39> H     -2.199620    3.530283    1.412240
| 40> H     -1.865980    1.123990    1.025308
| 41> H      1.222157    0.817930    0.901140
| 42> H      4.642809   -1.800844    0.713503
| 43> H      3.560520   -3.086499   -1.109613
| 44> H      1.318910   -2.436052   -1.931720
| 45> H      4.363119    2.486883    1.676914
| 46> **                         ****END OF INPUT****
================================================================================

                       *****************************
                       * Geometry Optimization Run *
                       *****************************

Geometry optimization settings:
Update method            Update   .... BFGS
Choice of coordinates    CoordSys .... (2022) Redundant Internals
Initial Hessian          InHess   .... Almloef's Model
Max. no of cycles        MaxIter  .... 117

Convergence Tolerances:
Energy Change            TolE     ....  5.0000e-06 Eh
Max. Gradient            TolMAXG  ....  3.0000e-04 Eh/bohr
RMS Gradient             TolRMSG  ....  1.0000e-04 Eh/bohr
Max. Displacement        TolMAXD  ....  4.0000e-03 bohr
RMS Displacement         TolRMSD  ....  2.0000e-03 bohr
Strict Convergence                .... False

------------------------------------------------------------------------------
                        ORCA OPTIMIZATION COORDINATE SETUP
------------------------------------------------------------------------------

The optimization will be done in redundant internal coordinates (2022)
Making redundant internal coordinates   ...  (2022 redundants) done
Evaluating the initial hessian          ...  (Almloef) done
Evaluating the coordinates              ...  done
Calculating the B-matrix                .... done
Calculating the G-matrix                .... done
Diagonalizing the G-matrix              .... done
Small eigenvalue found = 3.585e-03
Small eigenvalue found = 4.740e-03
Small eigenvalue found = 7.515e-03
Small eigenvalue found = 1.556e-02
Small eigenvalue found = 2.479e-02
Small eigenvalue found = 2.907e-02
The first mode is                       ....   92
The number of degrees of freedom        ....  111

    -----------------------------------------------------------------
                    Redundant Internal Coordinates


    -----------------------------------------------------------------
         Definition                    Initial Value    Approx d2E/dq
    -----------------------------------------------------------------
      1. B(C   1,C   0)                  1.3927         0.618552   
      2. B(C   2,C   1)                  1.3950         0.613472   
      3. B(C   3,C   2)                  1.4040         0.593530   
      4. B(C   4,C   3)                  1.4027         0.596337   
      5. B(C   5,C   0)                  1.3934         0.617041   
      6. B(C   5,C   4)                  1.3964         0.610168   
      7. B(P   6,C   3)                  1.8021         0.462146   
      8. B(O   7,P   6)                  1.5200         1.166496   
      9. B(C   8,P   6)                  1.8027         0.461149   
     10. B(C   9,C   8)                  1.4041         0.593234   
     11. B(C  10,C   9)                  1.3949         0.613598   
     12. B(C  11,C  10)                  1.3927         0.618520   
     13. B(C  12,C  11)                  1.3935         0.616923   
     14. B(C  13,C  12)                  1.3963         0.610436   
     15. B(C  13,C   8)                  1.4024         0.596954   
     16. B(C  14,P   6)                  1.8069         0.454123   
     17. B(C  15,C  14)                  1.4017         0.598524   
     18. B(C  16,C  15)                  1.3996         0.603051   
     19. B(C  17,C  16)                  1.3958         0.611632   
     20. B(C  18,C  17)                  1.3929         0.618236   
     21. B(C  19,C  18)                  1.3969         0.609058   
     22. B(C  19,C  14)                  1.4057         0.589829   
     23. B(S  20,C  16)                  1.7714         0.414953   
     24. B(O  21,S  20)                  1.4448         1.233536   
     25. B(O  22,S  20)                  1.4469         1.224432   
     26. B(O  23,S  20)                  1.6133         0.664277   
     27. B(H  24,C   0)                  1.0871         0.363995   
     28. B(H  25,C   1)                  1.0871         0.363918   
     29. B(H  26,C   2)                  1.0894         0.360892   
     30. B(H  27,C   4)                  1.0868         0.364374   
     31. B(H  28,C   5)                  1.0875         0.363420   
     32. B(H  29,C   9)                  1.0893         0.361015   
     33. B(H  30,C  10)                  1.0871         0.363977   
     34. B(H  31,C  11)                  1.0871         0.364000   
     35. B(H  32,C  12)                  1.0875         0.363474   
     36. B(H  33,C  13)                  1.0871         0.364014   
     37. B(H  34,C  15)                  1.0880         0.362810   
     38. B(H  35,C  17)                  1.0880         0.362818   
     39. B(H  36,C  18)                  1.0879         0.362887   
     40. B(H  37,C  19)                  1.0904         0.359627   
     41. B(H  38,O  23)                  0.9809         0.481560   
     42. A(C   5,C   0,H  24)          120.0383         0.353266   
     43. A(C   1,C   0,H  24)          119.9899         0.353412   
     44. A(C   1,C   0,C   5)          119.9713         0.433510   
     45. A(C   0,C   1,C   2)          119.9421         0.433058   
     46. A(C   0,C   1,H  25)          120.0998         0.353400   
     47. A(C   2,C   1,H  25)          119.9577         0.352907   
     48. A(C   1,C   2,H  26)          119.5647         0.352408   
     49. A(C   1,C   2,C   3)          120.7704         0.429857   
     50. A(C   3,C   2,H  26)          119.6641         0.350445   
     51. A(C   2,C   3,C   4)          118.6575         0.427679   
     52. A(C   4,C   3,P   6)          122.7074         0.436223   
     53. A(C   2,C   3,P   6)          118.6335         0.435852   
     54. A(C   3,C   4,H  27)          120.9575         0.351294   
     55. A(C   3,C   4,C   5)          120.5094         0.429805   
     56. A(C   5,C   4,H  27)          118.5330         0.352659   
     57. A(C   0,C   5,C   4)          120.1488         0.432448   
     58. A(C   4,C   5,H  28)          119.9726         0.352503   
     59. A(C   0,C   5,H  28)          119.8784         0.353171   
     60. A(C   8,P   6,C  14)          107.8294         0.443022   
     61. A(O   7,P   6,C  14)          110.4719         0.522815   
     62. A(C   3,P   6,C  14)          108.0695         0.443196   
     63. A(O   7,P   6,C   8)          110.9312         0.524325   
     64. A(C   3,P   6,C   8)          108.3356         0.444429   
     65. A(C   3,P   6,O   7)          111.0860         0.524538   
     66. A(P   6,C   8,C   9)          118.6619         0.435644   
     67. A(C   9,C   8,C  13)          118.6838         0.427720   
     68. A(P   6,C   8,C  13)          122.6513         0.436134   
     69. A(C  10,C   9,H  29)          119.5688         0.352441   
     70. A(C   8,C   9,C  10)          120.7571         0.429835   
     71. A(C   8,C   9,H  29)          119.6725         0.350436   
     72. A(C   9,C  10,C  11)          119.9321         0.433070   
     73. A(C   9,C  10,H  30)          119.9847         0.352929   
     74. A(C  11,C  10,H  30)          120.0825         0.353406   
     75. A(C  12,C  11,H  31)          120.0131         0.353255   
     76. A(C  10,C  11,H  31)          120.0071         0.353410   
     77. A(C  10,C  11,C  12)          119.9789         0.433491   
     78. A(C  11,C  12,H  32)          119.8877         0.353169   
     79. A(C  13,C  12,H  32)          119.9586         0.352538   
     80. A(C  11,C  12,C  13)          120.1534         0.432467   
     81. A(C   8,C  13,H  33)          120.8968         0.351297   
     82. A(C  12,C  13,H  33)          118.6096         0.352626   
     83. A(C   8,C  13,C  12)          120.4936         0.429919   
     84. A(C  15,C  14,C  19)          118.6865         0.427480   
     85. A(P   6,C  14,C  19)          118.6706         0.433991   
     86. A(P   6,C  14,C  15)          122.6418         0.435136   
     87. A(C  14,C  15,H  34)          120.7125         0.351256   
     88. A(C  14,C  15,C  16)          119.8507         0.429183   
     89. A(C  16,C  15,H  34)          119.4346         0.351704   
     90. A(C  15,C  16,C  17)          121.1383         0.430855   
     91. A(C  17,C  16,S  20)          119.8882         0.425172   
     92. A(C  15,C  16,S  20)          118.9679         0.424098   
     93. A(C  18,C  17,H  35)          119.7838         0.353188   
     94. A(C  16,C  17,H  35)          120.9822         0.352547   
     95. A(C  16,C  17,C  18)          119.2340         0.432785   
     96. A(C  17,C  18,H  36)          120.1384         0.353199   
     97. A(C  17,C  18,C  19)          120.0078         0.432457   
     98. A(C  19,C  18,H  36)          119.8538         0.352307   
     99. A(C  14,C  19,C  18)          121.0800         0.428819   
    100. A(C  18,C  19,H  37)          119.4521         0.351769   
    101. A(C  14,C  19,H  37)          119.4671         0.349868   
    102. A(O  22,S  20,O  23)          104.8976         0.550754   
    103. A(O  21,S  20,O  23)          108.1173         0.551529   
    104. A(C  16,S  20,O  23)          104.3418         0.452995   
    105. A(O  21,S  20,O  22)          122.3465         0.620191   
    106. A(C  16,S  20,O  22)          108.4208         0.507030   
    107. A(C  16,S  20,O  21)          107.3446         0.507731   
    108. A(S  20,O  23,H  38)          107.4151         0.389699   
    109. D(H  25,C   1,C   0,C   5)    179.6902         0.026468   
    110. D(C   2,C   1,C   0,H  24)   -179.8679         0.026468   
    111. D(C   2,C   1,C   0,C   5)     -0.1031         0.026468   
    112. D(H  25,C   1,C   0,H  24)     -0.0745         0.026468   
    113. D(H  26,C   2,C   1,C   0)    179.6189         0.026009   
    114. D(C   3,C   2,C   1,C   0)     -0.0420         0.026009   
    115. D(C   3,C   2,C   1,H  25)   -179.8356         0.026009   
    116. D(H  26,C   2,C   1,H  25)     -0.1747         0.026009   
    117. D(P   6,C   3,C   2,H  26)      0.9829         0.024257   
    118. D(P   6,C   3,C   2,C   1)   -179.3565         0.024257   
    119. D(C   4,C   3,C   2,H  26)   -179.4643         0.024257   
    120. D(C   4,C   3,C   2,C   1)      0.1963         0.024257   
    121. D(H  27,C   4,C   3,C   2)    179.8608         0.024500   
    122. D(C   5,C   4,C   3,P   6)    179.3248         0.024500   
    123. D(C   5,C   4,C   3,C   2)     -0.2087         0.024500   
    124. D(H  27,C   4,C   3,P   6)     -0.6057         0.024500   
    125. D(H  28,C   5,C   4,H  27)     -0.1376         0.025714   
    126. D(C   0,C   5,C   4,H  27)    179.9999         0.025714   
    127. D(C   0,C   5,C   4,C   3)      0.0678         0.025714   
    128. D(H  28,C   5,C   0,H  24)     -0.0076         0.026331   
    129. D(C   4,C   5,C   0,C   1)      0.0904         0.026331   
    130. D(H  28,C   5,C   4,C   3)    179.9303         0.025714   
    131. D(C   4,C   5,C   0,H  24)    179.8550         0.026331   
    132. D(H  28,C   5,C   0,C   1)   -179.7722         0.026331   
    133. D(C  14,P   6,C   3,C   2)   -155.8139         0.004418   
    134. D(C   8,P   6,C   3,C   4)    -91.9257         0.004418   
    135. D(C   8,P   6,C   3,C   2)     87.6079         0.004418   
    136. D(O   7,P   6,C   3,C   4)    145.9911         0.004418   
    137. D(O   7,P   6,C   3,C   2)    -34.4752         0.004418   
    138. D(C   9,C   8,P   6,O   7)    -34.6684         0.004405   
    139. D(C   9,C   8,P   6,C   3)   -156.8462         0.004405   
    140. D(C  13,C   8,P   6,O   7)    145.9684         0.004405   
    141. D(C  13,C   8,P   6,C   3)     23.7906         0.004405   
    142. D(C   9,C   8,P   6,C  14)     86.4206         0.004405   
    143. D(H  29,C   9,C   8,C  13)   -179.2060         0.024232   
    144. D(H  29,C   9,C   8,P   6)      1.4052         0.024232   
    145. D(C  10,C   9,C   8,C  13)      0.3155         0.024232   
    146. D(C  10,C   9,C   8,P   6)   -179.0733         0.024232   
    147. D(H  30,C  10,C   9,H  29)     -0.2120         0.026021   
    148. D(H  30,C  10,C   9,C   8)   -179.7341         0.026021   
    149. D(C  11,C  10,C   9,H  29)    179.4804         0.026021   
    150. D(C  11,C  10,C   9,C   8)     -0.0416         0.026021   
    151. D(H  31,C  11,C  10,H  30)     -0.1445         0.026465   
    152. D(H  31,C  11,C  10,C   9)   -179.8366         0.026465   
    153. D(C  12,C  11,C  10,H  30)    179.5044         0.026465   
    154. D(C  12,C  11,C  10,C   9)     -0.1878         0.026465   
    155. D(H  32,C  12,C  11,H  31)     -0.0142         0.026320   
    156. D(H  32,C  12,C  11,C  10)   -179.6630         0.026320   
    157. D(C  13,C  12,C  11,H  31)    179.7866         0.026320   
    158. D(C  13,C  12,C  11,C  10)      0.1377         0.026320   
    159. D(H  33,C  13,C  12,H  32)     -0.0098         0.025738   
    160. D(H  33,C  13,C  12,C  11)   -179.8104         0.025738   
    161. D(C   8,C  13,C  12,H  32)    179.9433         0.025738   
    162. D(C   8,C  13,C  12,C  11)      0.1427         0.025738   
    163. D(H  33,C  13,C   8,C   9)    179.5868         0.024553   
    164. D(H  33,C  13,C   8,P   6)     -1.0502         0.024553   
    165. D(C  12,C  13,C   8,C   9)     -0.3653         0.024553   
    166. D(C  12,C  13,C   8,P   6)    178.9978         0.024553   
    167. D(C  19,C  14,P   6,O   7)    -34.8329         0.004314   
    168. D(C  19,C  14,P   6,C   3)     86.8856         0.004314   
    169. D(C  15,C  14,P   6,C   8)     24.1774         0.004314   
    170. D(C  15,C  14,P   6,O   7)    145.5526         0.004314   
    171. D(C  15,C  14,P   6,C   3)    -92.7288         0.004314   
    172. D(H  34,C  15,C  14,C  19)    179.9695         0.024689   
    173. D(H  34,C  15,C  14,P   6)     -0.4162         0.024689   
    174. D(C  16,C  15,C  14,C  19)     -0.5729         0.024689   
    175. D(C  16,C  15,C  14,P   6)    179.0415         0.024689   
    176. D(S  20,C  16,C  15,H  34)     -0.7849         0.025084   
    177. D(S  20,C  16,C  15,C  14)    179.7505         0.025084   
    178. D(C  17,C  16,C  15,H  34)   -179.9218         0.025084   
    179. D(C  17,C  16,C  15,C  14)      0.6136         0.025084   
    180. D(H  35,C  17,C  16,S  20)      0.5531         0.025845   
    181. D(H  35,C  17,C  16,C  15)    179.6822         0.025845   
    182. D(C  18,C  17,C  16,S  20)   -179.4408         0.025845   
    183. D(C  18,C  17,C  16,C  15)     -0.3118         0.025845   
    184. D(H  36,C  18,C  17,H  35)     -0.1127         0.026439   
    185. D(H  36,C  18,C  17,C  16)    179.8813         0.026439   
    186. D(C  19,C  18,C  17,H  35)    179.9877         0.026439   
    187. D(C  19,C  18,C  17,C  16)     -0.0183         0.026439   
    188. D(H  37,C  19,C  18,C  17)    179.7327         0.025615   
    189. D(C  14,C  19,C  18,H  36)   -179.8548         0.025615   
    190. D(C  14,C  19,C  18,C  17)      0.0451         0.025615   
    191. D(H  37,C  19,C  14,C  15)   -179.4361         0.023941   
    192. D(H  37,C  19,C  14,P   6)      0.9340         0.023941   
    193. D(C  18,C  19,C  14,C  15)      0.2514         0.023941   
    194. D(H  37,C  19,C  18,H  36)     -0.1673         0.025615   
    195. D(C  18,C  19,C  14,P   6)   -179.3785         0.023941   
    196. D(O  23,S  20,C  16,C  15)    -43.9499         0.004540   
    197. D(O  22,S  20,C  16,C  17)     23.7999         0.004540   
    198. D(O  22,S  20,C  16,C  15)   -155.3480         0.004540   
    199. D(O  21,S  20,C  16,C  17)   -110.2128         0.004540   
    200. D(O  21,S  20,C  16,C  15)     70.6392         0.004540   
    201. D(H  38,O  23,S  20,O  22)     -6.0378         0.010125   
    202. D(H  38,O  23,S  20,O  21)    125.9962         0.010125   
    203. D(H  38,O  23,S  20,C  16)   -119.9615         0.010125   
    -----------------------------------------------------------------

Number of atoms                         .... 39
Number of degrees of freedom            .... 203


         *************************************************************
         *                GEOMETRY OPTIMIZATION CYCLE   1            *
         *************************************************************
---------------------------------
CARTESIAN COORDINATES (ANGSTROEM)
---------------------------------
  C     -3.711811   -2.815281    1.061109
  C     -3.965470   -2.335379   -0.221490
  C     -2.990860   -1.598439   -0.894559
  C     -1.750350   -1.330864   -0.293989
  C     -1.507710   -1.823316    0.996808
  C     -2.484378   -2.560659    1.669500
  P     -0.539938   -0.358347   -1.208658
  O     -0.621228   -0.645610   -2.699102
  C     -0.842835    1.386443   -0.871631
  C     -0.393546    2.339517   -1.799702
  C     -0.587496    3.702234   -1.573436
  C     -1.234187    4.129425   -0.416264
  C     -1.690005    3.195339    0.511864
  C     -1.497513    1.830872    0.286225
  C      1.101950   -0.767314   -0.574891
  C      1.719742   -0.038246    0.450555
  C      2.985560   -0.418850    0.910822
  C      3.656733   -1.510341    0.357267
  C      3.049838   -2.234346   -0.666252
  C      1.783696   -1.865601   -1.127084
  S      3.747532    0.523120    2.203094
  O      3.013966    0.258021    3.419302
  O      5.181051    0.350412    2.110440
  O      3.486943    2.059318    1.784772
  H     -4.469939   -3.391475    1.585481
  H     -4.920500   -2.537098   -0.700110
  H     -3.193466   -1.231338   -1.900036
  H     -0.559856   -1.640259    1.495979
  H     -2.286538   -2.939270    2.669587
  H      0.105407    2.011566   -2.710794
  H     -0.238368    4.429107   -2.302489
  H     -1.388341    5.190969   -0.239976
  H     -2.199620    3.530283    1.412240
  H     -1.865980    1.123990    1.025308
  H      1.222157    0.817930    0.901140
  H      4.642809   -1.800844    0.713503
  H      3.560520   -3.086499   -1.109613
  H      1.318910   -2.436052   -1.931720
  H      4.363119    2.486883    1.676914

----------------------------
CARTESIAN COORDINATES (A.U.)
----------------------------
  NO LB      ZA    FRAG     MASS         X           Y           Z
   0 C     6.0000    0    12.011   -7.014306   -5.320110    2.005205
   1 C     6.0000    0    12.011   -7.493652   -4.413227   -0.418555
   2 C     6.0000    0    12.011   -5.651906   -3.020612   -1.690472
   3 C     6.0000    0    12.011   -3.307682   -2.514968   -0.555559
   4 C     6.0000    0    12.011   -2.849159   -3.445568    1.883694
   5 C     6.0000    0    12.011   -4.694794   -4.838944    3.154898
   6 P    15.0000    0    30.974   -1.020335   -0.677178   -2.284033
   7 O     8.0000    0    15.999   -1.173951   -1.220026   -5.100564
   8 C     6.0000    0    12.011   -1.592727    2.619998   -1.647144
   9 C     6.0000    0    12.011   -0.743694    4.421046   -3.400944
  10 C     6.0000    0    12.011   -1.110207    6.996208   -2.973363
  11 C     6.0000    0    12.011   -2.332275    7.803482   -0.786625
  12 C     6.0000    0    12.011   -3.193647    6.038316    0.967283
  13 C     6.0000    0    12.011   -2.829889    3.459847    0.540887
  14 C     6.0000    0    12.011    2.082384   -1.450013   -1.086387
  15 C     6.0000    0    12.011    3.249841   -0.072274    0.851426
  16 C     6.0000    0    12.011    5.641891   -0.791512    1.721204
  17 C     6.0000    0    12.011    6.910224   -2.854131    0.675137
  18 C     6.0000    0    12.011    5.763359   -4.222302   -1.259034
  19 C     6.0000    0    12.011    3.370697   -3.525475   -2.129880
  20 S    16.0000    0    32.060    7.081809    0.988554    4.163244
  21 O     8.0000    0    15.999    5.695570    0.487589    6.461544
  22 O     8.0000    0    15.999    9.790767    0.662183    3.988154
  23 O     8.0000    0    15.999    6.589367    3.891547    3.372730
  24 H     1.0000    0     1.008   -8.446961   -6.408959    2.996125
  25 H     1.0000    0     1.008   -9.298397   -4.794420   -1.323016
  26 H     1.0000    0     1.008   -6.034776   -2.326892   -3.590548
  27 H     1.0000    0     1.008   -1.057975   -3.099640    2.826991
  28 H     1.0000    0     1.008   -4.320931   -5.554415    5.044788
  29 H     1.0000    0     1.008    0.199190    3.801309   -5.122658
  30 H     1.0000    0     1.008   -0.450450    8.369799   -4.351074
  31 H     1.0000    0     1.008   -2.623584    9.809510   -0.453489
  32 H     1.0000    0     1.008   -4.156679    6.671268    2.668747
  33 H     1.0000    0     1.008   -3.526191    2.124033    1.937551
  34 H     1.0000    0     1.008    2.309542    1.545664    1.702908
  35 H     1.0000    0     1.008    8.773638   -3.403102    1.348325
  36 H     1.0000    0     1.008    6.728408   -5.832638   -2.096865
  37 H     1.0000    0     1.008    2.492379   -4.603471   -3.650422
  38 H     1.0000    0     1.008    8.245100    4.699528    3.168908

--------------------------------
INTERNAL COORDINATES (ANGSTROEM)
--------------------------------
 C      0   0   0     0.000000000000     0.00000000     0.00000000
 C      1   0   0     1.392734365443     0.00000000     0.00000000
 C      2   1   0     1.394979245172   119.94213490     0.00000000
 C      3   2   1     1.403974987535   120.77040774   359.95800072
 C      4   3   2     1.402690285527   118.65752330     0.19626561
 C      1   2   3     1.393400065040   119.97134775   359.89686119
 P      4   3   2     1.802083767363   118.63347727   180.64347843
 O      7   4   3     1.520049805896   111.08602365   325.52475256
 C      7   4   3     1.802671887904   108.33556862    87.60791792
 C      9   7   4     1.404110549792   118.66188289   203.15379722
 C     10   9   7     1.394923125963   120.75706511   180.92671626
 C     11  10   9     1.392748519133   119.93212885   359.95838136
 C     12  11  10     1.393451932757   119.97886446   359.81222221
 C     13  12  11     1.396329589486   120.15337681     0.13774663
 C      7   4   3     1.806851079066   108.06953026   204.18611044
 C     15   7   4     1.401694190187   122.64176947   267.27115073
 C     16  15   7     1.399642927760   119.85069764   179.04149771
 C     17  16  15     1.395796882442   121.13827272     0.61360559
 C     18  17  16     1.392873262150   119.23397746   359.68824735
 C     19  18  17     1.396944727401   120.00778172     0.00000000
 S     17  16  15     1.771405016270   118.96790895   179.75050758
 O     21  17  16     1.444838556871   107.34455365    70.63924199
 O     21  17  16     1.446855051600   108.42081797   204.65197199
 O     21  17  16     1.613320866353   104.34180294   316.05014908
 H      1   2   3     1.087071103656   119.98990721   180.13213240
 H      2   1   3     1.087129228869   120.09980920   179.79332372
 H      3   2   1     1.089401823464   119.56466746   179.61889482
 H      5   4   3     1.086788276439   120.95751221   179.86081090
 H      6   1   2     1.087502166660   119.87842779   180.22776976
 H     10   9   7     1.089309224726   119.67246009     1.40515843
 H     11  10   9     1.087084631168   119.98469455   180.26593985
 H     12  11  10     1.087067881319   120.00705723   180.16337990
 H     13  12  11     1.087461205164   119.88772151   180.33699091
 H     14  13  12     1.087057391724   118.60956577   180.18955075
 H     16  15   7     1.087959106504   120.71251057   359.58383590
 H     18  17  16     1.087953104909   120.98220804   179.68217595
 H     19  18  17     1.087901565793   120.13835198   179.88133598
 H     20  19  18     1.090357492611   119.45211410   179.73266299
 H     24  21  17     0.980882031829   107.41505376   240.03848252

---------------------------
INTERNAL COORDINATES (A.U.)
---------------------------
 C      0   0   0     0.000000000000     0.00000000     0.00000000
 C      1   0   0     2.631886527988     0.00000000     0.00000000
 C      2   1   0     2.636128735880   119.94213490     0.00000000
 C      3   2   1     2.653128225317   120.77040774   359.95800072
 C      4   3   2     2.650700490359   118.65752330     0.19626561
 C      1   2   3     2.633144517914   119.97134775   359.89686119
 P      4   3   2     3.405444790702   118.63347727   180.64347843
 O      7   4   3     2.872477843064   111.08602365   325.52475256
 C      7   4   3     3.406556177457   108.33556862    87.60791792
 C      9   7   4     2.653384400857   118.66188289   203.15379722
 C     10   9   7     2.636022685942   120.75706511   180.92671626
 C     11  10   9     2.631913274585   119.93212885   359.95838136
 C     12  11  10     2.633242533694   119.97886446   359.81222221
 C     13  12  11     2.638680516819   120.15337681     0.13774663
 C      7   4   3     3.414453704215   108.06953026   204.18611044
 C     15   7   4     2.648818142962   122.64176947   267.27115073
 C     16  15   7     2.644941818746   119.85069764   179.04149771
 C     17  16  15     2.637673846397   121.13827272     0.61360559
 C     18  17  16     2.632149004724   119.23397746   359.68824735
 C     19  18  17     2.639842959013   120.00778172     0.00000000
 S     17  16  15     3.347470353005   118.96790895   179.75050758
 O     21  17  16     2.730349180216   107.34455365    70.63924199
 O     21  17  16     2.734159803005   108.42081797   204.65197199
 O     21  17  16     3.048734603547   104.34180294   316.05014908
 H      1   2   3     2.054266674009   119.98990721   180.13213240
 H      2   1   3     2.054376514743   120.09980920   179.79332372
 H      3   2   1     2.058671096141   119.56466746   179.61889482
 H      5   4   3     2.053732208027   120.95751221   179.86081090
 H      6   1   2     2.055081265033   119.87842779   180.22776976
 H     10   9   7     2.058496109887   119.67246009     1.40515843
 H     11  10   9     2.054292237303   119.98469455   180.26593985
 H     12  11  10     2.054260584675   120.00705723   180.16337990
 H     13  12  11     2.055003859024   119.88772151   180.33699091
 H     14  13  12     2.054240762213   118.60956577   180.18955075
 H     16  15   7     2.055944756199   120.71251057   359.58383590
 H     18  17  16     2.055933414827   120.98220804   179.68217595
 H     19  18  17     2.055836020012   120.13835198   179.88133598
 H     20  19  18     2.060477049104   119.45211410   179.73266299
 H     24  21  17     1.853598409841   107.41505376   240.03848252

---------------------
BASIS SET INFORMATION
---------------------
There are 5 groups of distinct atoms

 Group   1 Type C   : 7s4p1d contracted to 3s2p1d pattern {511/31/1}
 Group   2 Type P   : 10s7p1d contracted to 4s3p1d pattern {5311/511/1}
 Group   3 Type O   : 7s4p1d contracted to 3s2p1d pattern {511/31/1}
 Group   4 Type S   : 10s7p1d contracted to 4s3p1d pattern {5311/511/1}
 Group   5 Type H   : 4s1p contracted to 2s1p pattern {31/1}

Atom   0C    basis set group =>   1
Atom   1C    basis set group =>   1
Atom   2C    basis set group =>   1
Atom   3C    basis set group =>   1
Atom   4C    basis set group =>   1
Atom   5C    basis set group =>   1
Atom   6P    basis set group =>   2
Atom   7O    basis set group =>   3
Atom   8C    basis set group =>   1
Atom   9C    basis set group =>   1
Atom  10C    basis set group =>   1
Atom  11C    basis set group =>   1
Atom  12C    basis set group =>   1
Atom  13C    basis set group =>   1
Atom  14C    basis set group =>   1
Atom  15C    basis set group =>   1
Atom  16C    basis set group =>   1
Atom  17C    basis set group =>   1
Atom  18C    basis set group =>   1
Atom  19C    basis set group =>   1
Atom  20S    basis set group =>   4
Atom  21O    basis set group =>   3
Atom  22O    basis set group =>   3
Atom  23O    basis set group =>   3
Atom  24H    basis set group =>   5
Atom  25H    basis set group =>   5
Atom  26H    basis set group =>   5
Atom  27H    basis set group =>   5
Atom  28H    basis set group =>   5
Atom  29H    basis set group =>   5
Atom  30H    basis set group =>   5
Atom  31H    basis set group =>   5
Atom  32H    basis set group =>   5
Atom  33H    basis set group =>   5
Atom  34H    basis set group =>   5
Atom  35H    basis set group =>   5
Atom  36H    basis set group =>   5
Atom  37H    basis set group =>   5
Atom  38H    basis set group =>   5
---------------------------------
AUXILIARY/J BASIS SET INFORMATION
---------------------------------
There are 5 groups of distinct atoms

 Group   1 Type C   : 12s5p4d2f1g contracted to 6s4p3d1f1g pattern {711111/2111/211/2/1}
 Group   2 Type P   : 14s5p5d2f1g contracted to 8s4p3d1f1g pattern {71111111/2111/311/2/1}
 Group   3 Type O   : 12s5p4d2f1g contracted to 6s4p3d1f1g pattern {711111/2111/211/2/1}
 Group   4 Type S   : 14s5p5d2f1g contracted to 8s4p3d1f1g pattern {71111111/2111/311/2/1}
 Group   5 Type H   : 5s2p1d contracted to 3s1p1d pattern {311/2/1}

Atom   0C    basis set group =>   1
Atom   1C    basis set group =>   1
Atom   2C    basis set group =>   1
Atom   3C    basis set group =>   1
Atom   4C    basis set group =>   1
Atom   5C    basis set group =>   1
Atom   6P    basis set group =>   2
Atom   7O    basis set group =>   3
Atom   8C    basis set group =>   1
Atom   9C    basis set group =>   1
Atom  10C    basis set group =>   1
Atom  11C    basis set group =>   1
Atom  12C    basis set group =>   1
Atom  13C    basis set group =>   1
Atom  14C    basis set group =>   1
Atom  15C    basis set group =>   1
Atom  16C    basis set group =>   1
Atom  17C    basis set group =>   1
Atom  18C    basis set group =>   1
Atom  19C    basis set group =>   1
Atom  20S    basis set group =>   4
Atom  21O    basis set group =>   3
Atom  22O    basis set group =>   3
Atom  23O    basis set group =>   3
Atom  24H    basis set group =>   5
Atom  25H    basis set group =>   5
Atom  26H    basis set group =>   5
Atom  27H    basis set group =>   5
Atom  28H    basis set group =>   5
Atom  29H    basis set group =>   5
Atom  30H    basis set group =>   5
Atom  31H    basis set group =>   5
Atom  32H    basis set group =>   5
Atom  33H    basis set group =>   5
Atom  34H    basis set group =>   5
Atom  35H    basis set group =>   5
Atom  36H    basis set group =>   5
Atom  37H    basis set group =>   5
Atom  38H    basis set group =>   5


           ************************************************************
           *        Program running with 6 parallel MPI-processes     *
           *              working on a common directory               *
           ************************************************************
------------------------------------------------------------------------------
                             ORCA STARTUP CALCULATIONS
                           -- RI-GTO INTEGRALS CHOSEN --
------------------------------------------------------------------------------
------------------------------------------------------------------------------
                   ___                                                        
                  /   \      - P O W E R E D   B Y -                         
                 /     \                                                     
                 |  |  |   _    _      __       _____    __    __             
                 |  |  |  | |  | |    /  \     |  _  \  |  |  /  |          
                  \  \/   | |  | |   /    \    | | | |  |  | /  /          
                 / \  \   | |__| |  /  /\  \   | |_| |  |  |/  /          
                |  |  |   |  __  | /  /__\  \  |    /   |      \           
                |  |  |   | |  | | |   __   |  |    \   |  |\   \          
                \     /   | |  | | |  |  |  |  | |\  \  |  | \   \       
                 \___/    |_|  |_| |__|  |__|  |_| \__\ |__|  \__/        
                                                                              
                      - O R C A' S   B I G   F R I E N D -                    
                                      &                                       
                       - I N T E G R A L  F E E D E R -                       
                                                                              
 v1 FN, 2020, v2 2021, v3 2022-2024                                           
------------------------------------------------------------------------------


----------------------
SHARK INTEGRAL PACKAGE
----------------------

Number of atoms                             ...     39
Number of basis functions                   ...    419
Number of shells                            ...    193
Maximum angular momentum                    ...      2
Integral batch strategy                     ... SHARK/LIBINT Hybrid
RI-J (if used) integral strategy            ... SPLIT-RIJ (Revised 2003 algorithm where possible)
Printlevel                                  ...      1
Contraction scheme used                     ... SEGMENTED contraction
Prescreening option                         ... SCHWARTZ
   Thresh                                   ... 2.500e-11
   Tcut                                     ... 2.500e-12
   Tpresel                                  ... 2.500e-12 
Coulomb Range Separation                    ... NOT USED
Exchange Range Separation                   ... NOT USED
Multipole approximations                    ... NOT USED
Finite Nucleus Model                        ... NOT USED
CABS basis                                  ... NOT available
Auxiliary Coulomb fitting basis             ... AVAILABLE
   # of basis functions in Aux-J            ...   1345
   # of shells in Aux-J                     ...    439
   Maximum angular momentum in Aux-J        ...      4
Auxiliary J/K fitting basis                 ... NOT available
Auxiliary Correlation fitting basis         ... NOT available
Auxiliary 'external' fitting basis          ... NOT available

Checking pre-screening integrals            ... done (  0.0 sec) Dimension = 193
Check shell pair data                       ... done (  0.0 sec)
Shell pair information
Shell pair cut-off parameter TPreSel        ...   2.5e-12
Total number of shell pairs                 ...     18721
Shell pairs after pre-screening             ...     13443
Total number of primitive shell pairs       ...     70877
Primitive shell pairs kept                  ...     31640
          la=0 lb=0:   4020 shell pairs
          la=1 lb=0:   5003 shell pairs
          la=1 lb=1:   1616 shell pairs
          la=2 lb=0:   1626 shell pairs
          la=2 lb=1:   1028 shell pairs
          la=2 lb=2:    150 shell pairs

Calculating one electron integrals          ... done (  0.0 sec)
Calculating RI/J V-Matrix + Cholesky decomp.... done (  0.1 sec)
Calculating Nuclear repulsion               ... done (  0.0 sec) ENN=   2334.986723824079 Eh

Diagonalization of the overlap matrix:
Smallest eigenvalue                        ... 2.650e-04
Time for diagonalization                   ...    0.026 sec
Threshold for overlap eigenvalues          ... 1.000e-07
Number of eigenvalues below threshold      ... 0
Time for construction of square roots      ...    0.014 sec
Total time needed                          ...    0.041 sec

-------------------
DFT GRID GENERATION
-------------------

General Integration Accuracy     IntAcc      ... 4.388
Radial Grid Type                 RadialGrid  ... OptM3 with GC (2021)
Angular Grid (max. ang.)         AngularGrid ... 4 (Lebedev-302)
Angular grid pruning method      GridPruning ... 4 (adaptive)
Weight generation scheme         WeightScheme... mBecke (2022)
Basis function cutoff            BFCut       ... 1.0000e-11
Integration weight cutoff        WCut        ... 1.0000e-14
Partially contracted basis set               ... off
Rotationally invariant grid construction     ... off
Angular grids for H and He will be reduced by one unit

Total number of grid points                  ...   193959
Total number of batches                      ...     3053
Average number of points per batch           ...       63
Average number of grid points per atom       ...     4973
Initializing property integral containers    ... done (  0.0 sec)

SHARK setup successfully completed in   1.5 seconds

Maximum memory used throughout the entire STARTUP-calculation: 53.5 MB


           ************************************************************
           *        Program running with 6 parallel MPI-processes     *
           *              working on a common directory               *
           ************************************************************
-------------------------------------------------------------------------------
                                 ORCA GUESS
                   Start orbitals & Density for SCF / CASSCF
-------------------------------------------------------------------------------

------------
SCF SETTINGS
------------
Hamiltonian:
 Density Functional     Method          .... DFT(GTOs)
 Exchange Functional    Exchange        .... B88
   X-Alpha parameter    XAlpha          ....  0.666667
   Becke's b parameter  XBeta           ....  0.004200
 Correlation Functional Correlation     .... P86
 LDA part of GGA corr.  LDAOpt          .... PW91-LDA
 Gradients option       PostSCFGGA      .... off
   NL short-range parameter             ....  4.400000
 RI-approximation to the Coulomb term is turned on
   Number of AuxJ basis functions       .... 1345


General Settings:
 Integral files         IntName         .... data/geom_opt_PO_BP86/195868/195868
 Hartree-Fock type      HFTyp           .... RHF
 Total Charge           Charge          ....    0
 Multiplicity           Mult            ....    1
 Number of Electrons    NEL             ....  186
 Basis Dimension        Dim             ....  419
 Nuclear Repulsion      ENuc            ....   2334.9867238241 Eh

Convergence Acceleration:
 AO-DIIS                CNVDIIS         .... on
   Start iteration      DIISMaxIt       ....    12
   Startup error        DIISStart       ....  0.200000
   # of expansion vecs  DIISMaxEq       ....     5
   Bias factor          DIISBfac        ....   1.050
   Max. coefficient     DIISMaxC        ....  10.000
 MO-DIIS                CNVKDIIS        .... off
 Trust-Rad. Augm. Hess. CNVTRAH         .... auto
   Auto Start mean grad. ratio tolernc. ....  1.125000
   Auto Start start iteration           ....    50
   Auto Start num. interpolation iter.  ....    10
   Max. Number of Micro iterations      ....    24
   Max. Number of Macro iterations      .... Maxiter - #DIIS iter
   Number of Davidson start vectors     ....     2
   Converg. threshold    (grad. norm)   ....   1.000e-05
   Grad. Scal. Fac. for Micro threshold ....   0.100
   Minimum threshold for Micro iter.    ....   1.000e-02
   NR start threshold (gradient norm)   ....   1.000e-04
   Initial trust radius                 ....   0.400
   Minimum AH scaling param. (alpha)    ....   1.000
   Maximum AH scaling param. (alpha)    .... 1000.000
   Quad. conv. algorithm                .... NR
   White noise on init. David. guess    .... on
   Maximum white noise                  ....   0.010
   Pseudo random numbers                .... off
   Inactive MOs                         .... canonical
   Orbital update algorithm             .... Taylor
   Preconditioner                       .... Diag
   Full preconditioner red. dimension   ....   250
 SOSCF                  CNVSOSCF        .... on
   Start iteration      SOSCFMaxIt      ....   150
   Startup grad/error   SOSCFStart      ....  0.003300
   Hessian update       SOSCFHessUp     .... L-BFGS
 Level Shifting         CNVShift        .... on
   Level shift para.    LevelShift      ....    0.2500
   Turn off err/grad.   ShiftErr        ....    0.0010
 Zerner damping         CNVZerner       .... off
 Static damping         CNVDamp         .... on
   Fraction old density DampFac         ....    0.7000
   Max. Damping (<1)    DampMax         ....    0.9800
   Min. Damping (>=0)   DampMin         ....    0.0000
   Turn off err/grad.   DampErr         ....    0.1000

SCF Procedure:
 Maximum # iterations   MaxIter         ....   125
 SCF integral mode      SCFMode         .... Direct
   Integral package                     .... SHARK and LIBINT hybrid scheme
 Reset frequency        DirectResetFreq ....    20
 Integral Threshold     Thresh          ....  2.500e-11 Eh
 Primitive CutOff       TCut            ....  2.500e-12 Eh

Convergence Tolerance:
 Convergence Check Mode ConvCheckMode   .... Total+1el-Energy
 Convergence forced     ConvForced      .... 0
 Energy Change          TolE            ....  1.000e-08 Eh
 1-El. energy change                    ....  1.000e-05 Eh
 Orbital Gradient       TolG            ....  1.000e-05
 Orbital Rotation angle TolX            ....  1.000e-05
 DIIS Error             TolErr          ....  5.000e-07

------------------------------
INITIAL GUESS: MODEL POTENTIAL
------------------------------
Loading Hartree-Fock densities                     ... done
Calculating cut-offs                               ... done
Initializing the effective Hamiltonian             ... done
Setting up the integral package (SHARK)            ... done
Starting the Coulomb interaction                   ... done (   0.2 sec)
Making the grid                                    ... done (   0.3 sec)
Mapping shells                                     ... done
Starting the XC term evaluation                    ... done (   0.2 sec)
  promolecular density results
     # of electrons  =    185.991490797
     EX              =   -177.600445865
     EC              =     -7.084472804
     EX+EC           =   -184.684918668
Transforming the Hamiltonian                       ... done (   0.0 sec)
Diagonalizing the Hamiltonian                      ... done (   0.0 sec)
Back transforming the eigenvectors                 ... done (   0.0 sec)
Now organizing SCF variables                       ... done
                      ------------------
                      INITIAL GUESS DONE (   0.7 sec)
                      ------------------
             **** ENERGY FILE WAS UPDATED (data/geom_opt_PO_BP86/195868/195868.en.tmp) ****
Finished Guess after   0.8 sec
Maximum memory used throughout the entire GUESS-calculation: 30.8 MB


           ************************************************************
           *        Program running with 6 parallel MPI-processes     *
           *              working on a common directory               *
           ************************************************************

-------------------------------------------------------------------------------------------
                                      ORCA LEAN-SCF
                              memory conserving SCF solver
-------------------------------------------------------------------------------------------

----------------------------------------D-I-I-S--------------------------------------------
Iteration    Energy (Eh)           Delta-E    RMSDP     MaxDP     DIISErr   Damp  Time(sec)
-------------------------------------------------------------------------------------------
               ***  Starting incremental Fock matrix formation  ***
    1    -1733.7736920115480643     0.00e+00  3.68e-03  2.47e-01  3.35e-01  0.700   1.2
    2    -1734.1286114837675996    -3.55e-01  1.97e-03  9.68e-02  8.13e-02  0.700   1.1
                               ***Turning on AO-DIIS***
    3    -1734.2242228542968405    -9.56e-02  6.41e-04  1.90e-02  3.29e-02  0.700   1.1
    4    -1734.2979099999820392    -7.37e-02  1.14e-03  5.16e-02  2.44e-02  0.000   1.1
    5    -1734.4683510293457402    -1.70e-01  3.11e-04  1.00e-02  7.28e-03  0.000   1.1
    6    -1734.4698314858624144    -1.48e-03  1.12e-04  4.18e-03  5.91e-03  0.000   1.1
                              *** Initializing SOSCF ***
---------------------------------------S-O-S-C-F--------------------------------------
Iteration    Energy (Eh)           Delta-E    RMSDP     MaxDP     MaxGrad    Time(sec)
--------------------------------------------------------------------------------------
    7    -1734.4699563047697666    -1.25e-04  4.29e-05  2.05e-03  2.35e-03     1.2
               *** Restarting incremental Fock matrix formation ***
    8    -1734.4699817656205596    -2.55e-05  3.37e-05  1.35e-03  1.65e-04     1.1
    9    -1734.4699798104174988     1.96e-06  1.74e-05  6.19e-04  2.67e-04     0.9
   10    -1734.4699839775043984    -4.17e-06  1.26e-05  8.83e-04  5.03e-05     1.0
   11    -1734.4699836876202426     2.90e-07  5.96e-06  3.54e-04  7.91e-05     1.0
   12    -1734.4699842930440354    -6.05e-07  6.42e-06  5.33e-04  3.07e-05     0.9
   13    -1734.4699841561305220     1.37e-07  4.14e-06  3.94e-04  4.41e-05     0.9
   14    -1734.4699843815269560    -2.25e-07  2.64e-06  1.26e-04  1.00e-05     0.9
   15    -1734.4699843320904620     4.94e-08  1.80e-06  8.01e-05  1.95e-05     0.9
   16    -1734.4699843886191957    -5.65e-08  8.97e-07  3.65e-05  7.16e-06     0.9
   17    -1734.4699843686425993     2.00e-08  5.93e-07  2.46e-05  1.49e-05     0.9
   18    -1734.4699844027627478    -3.41e-08  2.18e-07  6.81e-06  1.16e-06     0.9
                  *** Gradient check signals convergence ***

               *****************************************************
               *                     SUCCESS                       *
               *           SCF CONVERGED AFTER  18 CYCLES          *
               *****************************************************

             **** ENERGY FILE WAS UPDATED (data/geom_opt_PO_BP86/195868/195868.en.tmp) ****

----------------
TOTAL SCF ENERGY
----------------

Total Energy       :      -1734.46998440276275 Eh          -47197.32774 eV

Components:
Nuclear Repulsion  :       2334.98672382407858 Eh           63538.21898 eV
Electronic Energy  :      -4069.45670822684133 Eh         -110735.54672 eV
One Electron Energy:      -7018.23222519097089 Eh         -190975.80787 eV
Two Electron Energy:       2948.77551696412957 Eh           80240.26115 eV

Virial components:
Potential Energy   :      -3456.77331616020456 Eh          -94063.58403 eV
Kinetic Energy     :       1722.30333175744181 Eh           46866.25629 eV
Virial Ratio       :          2.00706417529420

DFT components:
N(Alpha)           :       92.999915112779 electrons
N(Beta)            :       92.999915112779 electrons
N(Total)           :      185.999830225558 electrons
E(X)               :     -179.640763523272 Eh       
E(C)               :       -7.094308121099 Eh       
E(XC)              :     -186.735071644371 Eh       

---------------
SCF CONVERGENCE
---------------

  Last Energy change         ...    3.4120e-08  Tolerance :   1.0000e-08
  Last MAX-Density change    ...    6.8098e-06  Tolerance :   1.0000e-07
  Last RMS-Density change    ...    2.1844e-07  Tolerance :   5.0000e-09
  Last DIIS Error            ...    2.3518e-03  Tolerance :   5.0000e-07
  Last Orbital Gradient      ...    1.1568e-06  Tolerance :   1.0000e-05
  Last Orbital Rotation      ...    4.7802e-06  Tolerance :   1.0000e-05


----------------
ORBITAL ENERGIES
----------------

  NO   OCC          E(Eh)            E(eV) 
   0   2.0000     -88.324329     -2403.4272 
   1   2.0000     -76.420693     -2079.5128 
   2   2.0000     -18.836490      -512.5670 
   3   2.0000     -18.779968      -511.0289 
   4   2.0000     -18.779713      -511.0220 
   5   2.0000     -18.714430      -509.2455 
   6   2.0000      -9.964389      -271.1448 
   7   2.0000      -9.954800      -270.8839 
   8   2.0000      -9.952260      -270.8148 
   9   2.0000      -9.946428      -270.6561 
  10   2.0000      -9.944946      -270.6157 
  11   2.0000      -9.944566      -270.6054 
  12   2.0000      -9.935736      -270.3651 
  13   2.0000      -9.935224      -270.3512 
  14   2.0000      -9.932714      -270.2829 
  15   2.0000      -9.932544      -270.2783 
  16   2.0000      -9.932525      -270.2777 
  17   2.0000      -9.932178      -270.2683 
  18   2.0000      -9.931813      -270.2584 
  19   2.0000      -9.931668      -270.2544 
  20   2.0000      -9.930667      -270.2272 
  21   2.0000      -9.930416      -270.2204 
  22   2.0000      -9.929929      -270.2071 
  23   2.0000      -9.929851      -270.2050 
  24   2.0000      -7.890498      -214.7114 
  25   2.0000      -6.379785      -173.6028 
  26   2.0000      -5.918930      -161.0623 
  27   2.0000      -5.915584      -160.9712 
  28   2.0000      -5.914489      -160.9414 
  29   2.0000      -4.601031      -125.2004 
  30   2.0000      -4.600761      -125.1931 
  31   2.0000      -4.600711      -125.1917 
  32   2.0000      -1.065825       -29.0026 
  33   2.0000      -0.951437       -25.8899 
  34   2.0000      -0.928020       -25.2527 
  35   2.0000      -0.854033       -23.2394 
  36   2.0000      -0.809853       -22.0372 
  37   2.0000      -0.790153       -21.5012 
  38   2.0000      -0.788456       -21.4550 
  39   2.0000      -0.722399       -19.6575 
  40   2.0000      -0.712938       -19.4000 
  41   2.0000      -0.694644       -18.9022 
  42   2.0000      -0.686350       -18.6765 
  43   2.0000      -0.685123       -18.6431 
  44   2.0000      -0.684347       -18.6220 
  45   2.0000      -0.631326       -17.1792 
  46   2.0000      -0.601640       -16.3715 
  47   2.0000      -0.578128       -15.7317 
  48   2.0000      -0.562337       -15.3020 
  49   2.0000      -0.558515       -15.1980 
  50   2.0000      -0.555004       -15.1024 
  51   2.0000      -0.550854       -14.9895 
  52   2.0000      -0.527314       -14.3489 
  53   2.0000      -0.502663       -13.6782 
  54   2.0000      -0.484609       -13.1869 
  55   2.0000      -0.478863       -13.0305 
  56   2.0000      -0.460444       -12.5293 
  57   2.0000      -0.451205       -12.2779 
  58   2.0000      -0.443461       -12.0672 
  59   2.0000      -0.430574       -11.7165 
  60   2.0000      -0.425281       -11.5725 
  61   2.0000      -0.424075       -11.5397 
  62   2.0000      -0.415429       -11.3044 
  63   2.0000      -0.413623       -11.2552 
  64   2.0000      -0.409559       -11.1447 
  65   2.0000      -0.397168       -10.8075 
  66   2.0000      -0.392023       -10.6675 
  67   2.0000      -0.391301       -10.6478 
  68   2.0000      -0.388202       -10.5635 
  69   2.0000      -0.387545       -10.5456 
  70   2.0000      -0.366206        -9.9650 
  71   2.0000      -0.355236        -9.6665 
  72   2.0000      -0.349332        -9.5058 
  73   2.0000      -0.348847        -9.4926 
  74   2.0000      -0.343833        -9.3562 
  75   2.0000      -0.329210        -8.9583 
  76   2.0000      -0.325497        -8.8572 
  77   2.0000      -0.320669        -8.7258 
  78   2.0000      -0.316448        -8.6110 
  79   2.0000      -0.315405        -8.5826 
  80   2.0000      -0.307763        -8.3747 
  81   2.0000      -0.303725        -8.2648 
  82   2.0000      -0.293349        -7.9824 
  83   2.0000      -0.283913        -7.7257 
  84   2.0000      -0.268633        -7.3099 
  85   2.0000      -0.266255        -7.2452 
  86   2.0000      -0.256995        -6.9932 
  87   2.0000      -0.253177        -6.8893 
  88   2.0000      -0.247962        -6.7474 
  89   2.0000      -0.246387        -6.7045 
  90   2.0000      -0.245045        -6.6680 
  91   2.0000      -0.217725        -5.9246 
  92   2.0000      -0.216232        -5.8840 
  93   0.0000      -0.088317        -2.4032 
  94   0.0000      -0.080569        -2.1924 
  95   0.0000      -0.071468        -1.9448 
  96   0.0000      -0.068282        -1.8581 
  97   0.0000      -0.057566        -1.5665 
  98   0.0000      -0.051863        -1.4113 
  99   0.0000      -0.004719        -0.1284 
 100   0.0000       0.024617         0.6699 
 101   0.0000       0.032968         0.8971 
 102   0.0000       0.037725         1.0265 
 103   0.0000       0.040356         1.0982 
*Only the first 10 virtual orbitals were printed.

                    ********************************
                    * MULLIKEN POPULATION ANALYSIS *
                    ********************************

-----------------------
MULLIKEN ATOMIC CHARGES
-----------------------
   0 C :    0.016168
   1 C :    0.011919
   2 C :    0.013403
   3 C :   -0.113435
   4 C :   -0.009161
   5 C :    0.012623
   6 P :    0.623794
   7 O :   -0.463213
   8 C :   -0.119184
   9 C :    0.013243
  10 C :    0.012391
  11 C :    0.016856
  12 C :    0.015608
  13 C :   -0.005922
  14 C :   -0.126139
  15 C :    0.029351
  16 C :   -0.076592
  17 C :    0.023517
  18 C :    0.004791
  19 C :    0.033426
  20 S :    0.832727
  21 O :   -0.377992
  22 O :   -0.413374
  23 O :   -0.307211
  24 H :    0.004040
  25 H :    0.005400
  26 H :    0.015597
  27 H :    0.006903
  28 H :    0.003156
  29 H :    0.013996
  30 H :    0.004486
  31 H :    0.003731
  32 H :    0.001859
  33 H :    0.005291
  34 H :    0.017057
  35 H :    0.020589
  36 H :    0.016375
  37 H :    0.024049
  38 H :    0.209878
Sum of atomic charges:   -0.0000000

--------------------------------
MULLIKEN REDUCED ORBITAL CHARGES
--------------------------------
  0 C s       :     3.171031  s :     3.171031
      pz      :     0.936576  p :     2.779717
      px      :     0.910760
      py      :     0.932380
      dz2     :     0.007807  d :     0.033085
      dxz     :     0.009980
      dyz     :     0.005599
      dx2y2   :     0.004116
      dxy     :     0.005582

  1 C s       :     3.172087  s :     3.172087
      pz      :     0.937970  p :     2.783232
      px      :     0.873587
      py      :     0.971675
      dz2     :     0.008075  d :     0.032762
      dxz     :     0.009310
      dyz     :     0.005948
      dx2y2   :     0.005311
      dxy     :     0.004118

  2 C s       :     3.238713  s :     3.238713
      pz      :     0.856719  p :     2.715197
      px      :     0.938028
      py      :     0.920450
      dz2     :     0.007439  d :     0.032687
      dxz     :     0.008242
      dyz     :     0.004156
      dx2y2   :     0.006502
      dxy     :     0.006348

  3 C s       :     3.066044  s :     3.066044
      pz      :     0.982985  p :     3.014154
      px      :     1.019189
      py      :     1.011981
      dz2     :     0.007946  d :     0.033237
      dxz     :     0.009555
      dyz     :     0.005855
      dx2y2   :     0.004239
      dxy     :     0.005641

  4 C s       :     3.226861  s :     3.226861
      pz      :     0.931537  p :     2.749351
      px      :     0.857257
      py      :     0.960556
      dz2     :     0.007988  d :     0.032950
      dxz     :     0.009485
      dyz     :     0.006033
      dx2y2   :     0.005478
      dxy     :     0.003964

  5 C s       :     3.171441  s :     3.171441
      pz      :     0.859979  p :     2.783287
      px      :     0.958773
      py      :     0.964535
      dz2     :     0.007572  d :     0.032649
      dxz     :     0.008220
      dyz     :     0.004174
      dx2y2   :     0.006376
      dxy     :     0.006308

  6 P s       :     5.210782  s :     5.210782
      pz      :     2.814678  p :     8.679622
      px      :     2.928975
      py      :     2.935969
      dz2     :     0.095321  d :     0.485801
      dxz     :     0.141910
      dyz     :     0.120479
      dx2y2   :     0.078730
      dxy     :     0.049363

  7 O s       :     3.823693  s :     3.823693
      pz      :     1.341568  p :     4.627797
      px      :     1.646728
      py      :     1.639501
      dz2     :     0.004848  d :     0.011723
      dxz     :     0.003189
      dyz     :     0.003371
      dx2y2   :     0.000137
      dxy     :     0.000177

  8 C s       :     3.069696  s :     3.069696
      pz      :     0.987517  p :     3.016223
      px      :     1.026102
      py      :     1.002604
      dz2     :     0.008834  d :     0.033266
      dxz     :     0.005538
      dyz     :     0.008272
      dx2y2   :     0.006206
      dxy     :     0.004415

  9 C s       :     3.238494  s :     3.238494
      pz      :     0.886614  p :     2.715566
      px      :     0.928298
      py      :     0.900654
      dz2     :     0.006362  d :     0.032696
      dxz     :     0.003673
      dyz     :     0.009705
      dx2y2   :     0.006064
      dxy     :     0.006892

 10 C s       :     3.171642  s :     3.171642
      pz      :     0.910301  p :     2.783201
      px      :     0.965971
      py      :     0.906929
      dz2     :     0.006488  d :     0.032765
      dxz     :     0.003971
      dyz     :     0.010815
      dx2y2   :     0.005493
      dxy     :     0.005997

 11 C s       :     3.170565  s :     3.170565
      pz      :     0.961223  p :     2.779499
      px      :     0.962995
      py      :     0.855281
      dz2     :     0.008890  d :     0.033080
      dxz     :     0.005430
      dyz     :     0.008391
      dx2y2   :     0.006141
      dxy     :     0.004228

 12 C s       :     3.169863  s :     3.169863
      pz      :     0.879739  p :     2.781876
      px      :     0.950049
      py      :     0.952089
      dz2     :     0.006478  d :     0.032653
      dxz     :     0.003768
      dyz     :     0.009505
      dx2y2   :     0.006183
      dxy     :     0.006719

 13 C s       :     3.226193  s :     3.226193
      pz      :     0.916680  p :     2.746794
      px      :     0.957435
      py      :     0.872679
      dz2     :     0.006420  d :     0.032935
      dxz     :     0.003976
      dyz     :     0.010730
      dx2y2   :     0.005490
      dxy     :     0.006320

 14 C s       :     3.079724  s :     3.079724
      pz      :     0.991105  p :     3.013205
      px      :     1.009844
      py      :     1.012256
      dz2     :     0.006535  d :     0.033210
      dxz     :     0.006421
      dyz     :     0.006120
      dx2y2   :     0.007616
      dxy     :     0.006518

 15 C s       :     3.290788  s :     3.290788
      pz      :     0.897088  p :     2.647088
      px      :     0.874985
      py      :     0.875015
      dz2     :     0.005916  d :     0.032773
      dxz     :     0.007372
      dyz     :     0.005299
      dx2y2   :     0.007003
      dxy     :     0.007183

 16 C s       :     2.982965  s :     2.982965
      pz      :     1.007131  p :     3.054796
      px      :     1.018113
      py      :     1.029553
      dz2     :     0.005830  d :     0.038831
      dxz     :     0.008226
      dyz     :     0.007249
      dx2y2   :     0.008152
      dxy     :     0.009374

 17 C s       :     3.241193  s :     3.241193
      pz      :     0.909021  p :     2.702524
      px      :     0.850525
      py      :     0.942977
      dz2     :     0.006346  d :     0.032767
      dxz     :     0.006277
      dyz     :     0.006102
      dx2y2   :     0.007604
      dxy     :     0.006438

 18 C s       :     3.179704  s :     3.179704
      pz      :     0.945209  p :     2.782872
      px      :     0.936687
      py      :     0.900977
      dz2     :     0.005871  d :     0.032633
      dxz     :     0.007477
      dyz     :     0.005117
      dx2y2   :     0.006623
      dxy     :     0.007544

 19 C s       :     3.236544  s :     3.236544
      pz      :     0.880143  p :     2.697481
      px      :     0.889116
      py      :     0.928222
      dz2     :     0.004620  d :     0.032549
      dxz     :     0.006883
      dyz     :     0.005345
      dx2y2   :     0.007657
      dxy     :     0.008045

 20 S s       :     5.300845  s :     5.300845
      pz      :     3.065892  p :     9.080798
      px      :     2.997817
      py      :     3.017089
      dz2     :     0.151553  d :     0.785630
      dxz     :     0.189651
      dyz     :     0.138708
      dx2y2   :     0.168034
      dxy     :     0.137685

 21 O s       :     3.846355  s :     3.846355
      pz      :     1.366190  p :     4.513773
      px      :     1.534838
      py      :     1.612745
      dz2     :     0.005468  d :     0.017864
      dxz     :     0.005437
      dyz     :     0.003936
      dx2y2   :     0.001470
      dxy     :     0.001553

 22 O s       :     3.839096  s :     3.839096
      pz      :     1.659431  p :     4.556555
      px      :     1.255002
      py      :     1.642122
      dz2     :     0.001931  d :     0.017724
      dxz     :     0.004957
      dyz     :     0.000192
      dx2y2   :     0.005633
      dxy     :     0.005010

 23 O s       :     3.742805  s :     3.742805
      pz      :     1.797124  p :     4.551609
      px      :     1.450266
      py      :     1.304218
      dz2     :     0.001914  d :     0.012797
      dxz     :     0.001183
      dyz     :     0.001987
      dx2y2   :     0.004902
      dxy     :     0.002810

 24 H s       :     0.973675  s :     0.973675
      pz      :     0.006211  p :     0.022285
      px      :     0.008726
      py      :     0.007348

 25 H s       :     0.972261  s :     0.972261
      pz      :     0.005842  p :     0.022339
      px      :     0.011593
      py      :     0.004903

 26 H s       :     0.961753  s :     0.961753
      pz      :     0.013105  p :     0.022650
      px      :     0.004008
      py      :     0.005536

 27 H s       :     0.970048  s :     0.970048
      pz      :     0.006012  p :     0.023049
      px      :     0.012062
      py      :     0.004975

 28 H s       :     0.974471  s :     0.974471
      pz      :     0.012375  p :     0.022372
      px      :     0.004181
      py      :     0.005816

 29 H s       :     0.963353  s :     0.963353
      pz      :     0.011359  p :     0.022651
      px      :     0.006392
      py      :     0.004900

 30 H s       :     0.973169  s :     0.973169
      pz      :     0.008521  p :     0.022345
      px      :     0.005679
      py      :     0.008145

 31 H s       :     0.973981  s :     0.973981
      pz      :     0.004230  p :     0.022288
      px      :     0.004792
      py      :     0.013266

 32 H s       :     0.975772  s :     0.975772
      pz      :     0.010850  p :     0.022369
      px      :     0.006881
      py      :     0.004638

 33 H s       :     0.971630  s :     0.971630
      pz      :     0.008595  p :     0.023079
      px      :     0.005962
      py      :     0.008522

 34 H s       :     0.959565  s :     0.959565
      pz      :     0.005876  p :     0.023377
      px      :     0.006372
      py      :     0.011129

 35 H s       :     0.956607  s :     0.956607
      pz      :     0.005337  p :     0.022804
      px      :     0.012876
      py      :     0.004590

 36 H s       :     0.961300  s :     0.961300
      pz      :     0.005888  p :     0.022325
      px      :     0.006055
      py      :     0.010382

 37 H s       :     0.953374  s :     0.953374
      pz      :     0.010189  p :     0.022577
      px      :     0.005945
      py      :     0.006443

 38 H s       :     0.724673  s :     0.724673
      pz      :     0.017824  p :     0.065448
      px      :     0.030698
      py      :     0.016926



                     *******************************
                     * LOEWDIN POPULATION ANALYSIS *
                     *******************************

----------------------
LOEWDIN ATOMIC CHARGES
----------------------
   0 C :   -0.014525
   1 C :   -0.022951
   2 C :   -0.005775
   3 C :   -0.188113
   4 C :   -0.030264
   5 C :   -0.024993
   6 P :    0.884841
   7 O :   -0.494934
   8 C :   -0.189501
   9 C :   -0.006990
  10 C :   -0.023135
  11 C :   -0.013899
  12 C :   -0.024126
  13 C :   -0.028952
  14 C :   -0.177750
  15 C :   -0.021690
  16 C :   -0.183166
  17 C :   -0.008613
  18 C :   -0.015909
  19 C :    0.008323
  20 S :    1.137251
  21 O :   -0.442262
  22 O :   -0.471780
  23 O :   -0.236028
  24 H :    0.033347
  25 H :    0.034795
  26 H :    0.037052
  27 H :    0.031371
  28 H :    0.034195
  29 H :    0.036168
  30 H :    0.034390
  31 H :    0.033251
  32 H :    0.033815
  33 H :    0.031563
  34 H :    0.036425
  35 H :    0.042351
  36 H :    0.040645
  37 H :    0.041108
  38 H :    0.094463

-------------------------------
LOEWDIN REDUCED ORBITAL CHARGES
-------------------------------
  0 C s       :     2.865015  s :     2.865015
      pz      :     1.045816  p :     3.060129
      px      :     1.039763
      py      :     0.974551
      dz2     :     0.021960  d :     0.089381
      dxz     :     0.028478
      dyz     :     0.014309
      dx2y2   :     0.010932
      dxy     :     0.013703

  1 C s       :     2.863586  s :     2.863586
      pz      :     1.046884  p :     3.070454
      px      :     1.032354
      py      :     0.991217
      dz2     :     0.022759  d :     0.088911
      dxz     :     0.026185
      dyz     :     0.016230
      dx2y2   :     0.012783
      dxy     :     0.010954

  2 C s       :     2.867654  s :     2.867654
      pz      :     1.035409  p :     3.049033
      px      :     1.040416
      py      :     0.973208
      dz2     :     0.020305  d :     0.089088
      dxz     :     0.023899
      dyz     :     0.010481
      dx2y2   :     0.017100
      dxy     :     0.017303

  3 C s       :     2.913157  s :     2.913157
      pz      :     1.077255  p :     3.186216
      px      :     1.075731
      py      :     1.033230
      dz2     :     0.022125  d :     0.088739
      dxz     :     0.026912
      dyz     :     0.014764
      dx2y2   :     0.011265
      dxy     :     0.013673

  4 C s       :     2.867316  s :     2.867316
      pz      :     1.042615  p :     3.072728
      px      :     1.039132
      py      :     0.990981
      dz2     :     0.022595  d :     0.090220
      dxz     :     0.026835
      dyz     :     0.016810
      dx2y2   :     0.013302
      dxy     :     0.010678

  5 C s       :     2.864083  s :     2.864083
      pz      :     1.029402  p :     3.072236
      px      :     1.052183
      py      :     0.990651
      dz2     :     0.020073  d :     0.088673
[...]
      py      :     0.994518
      dz2     :     0.018318  d :     0.086551
      dxz     :     0.021807
      dyz     :     0.017799
      dx2y2   :     0.015044
      dxy     :     0.013583

 18 C s       :     2.872316  s :     2.872316
      pz      :     1.023308  p :     3.058327
      px      :     1.040278
      py      :     0.994741
      dz2     :     0.017580  d :     0.085909
      dxz     :     0.024426
      dyz     :     0.014006
      dx2y2   :     0.013619
      dxy     :     0.016278

 19 C s       :     2.877327  s :     2.877327
      pz      :     1.017855  p :     3.034168
      px      :     1.035905
      py      :     0.980408
      dz2     :     0.015471  d :     0.086521
      dxz     :     0.021796
      dyz     :     0.012076
      dx2y2   :     0.017683
      dxy     :     0.019494

 20 S s       :     5.082504  s :     5.082504
      pz      :     2.981771  p :     8.811717
      px      :     2.914353
      py      :     2.915593
      dz2     :     0.169090  d :     0.943929
      dxz     :     0.207981
      dyz     :     0.158135
      dx2y2   :     0.200752
      dxy     :     0.207971

 21 O s       :     3.701202  s :     3.701202
      pz      :     1.582913  p :     4.721448
      px      :     1.487335
      py      :     1.651200
      dz2     :     0.004036  d :     0.028186
      dxz     :     0.011116
      dyz     :     0.002624
      dx2y2   :     0.006046
      dxy     :     0.004364

 22 O s       :     3.704538  s :     3.704538
      pz      :     1.660024  p :     4.738607
      px      :     1.485416
      py      :     1.593167
      dz2     :     0.003690  d :     0.027659
      dxz     :     0.005650
      dyz     :     0.002859
      dx2y2   :     0.006071
      dxy     :     0.009389

 23 O s       :     3.560287  s :     3.560287
      pz      :     1.763822  p :     4.668370
      px      :     1.395782
      py      :     1.508766
      dz2     :     0.003096  d :     0.021545
      dxz     :     0.001248
      dyz     :     0.003672
      dx2y2   :     0.009772
      dxy     :     0.003757

 24 H s       :     0.897634  s :     0.897634
      pz      :     0.019580  p :     0.065897
      px      :     0.025208
      py      :     0.021109

 25 H s       :     0.896841  s :     0.896841
      pz      :     0.017030  p :     0.065970
      px      :     0.032521
      py      :     0.016419

 26 H s       :     0.891230  s :     0.891230
      pz      :     0.043723  p :     0.069356
      px      :     0.011852
      py      :     0.013781

 27 H s       :     0.896454  s :     0.896454
      pz      :     0.017426  p :     0.068778
      px      :     0.034982
      py      :     0.016369

 28 H s       :     0.896205  s :     0.896205
      pz      :     0.039866  p :     0.066153
      px      :     0.012234
      py      :     0.014053

 29 H s       :     0.892015  s :     0.892015
      pz      :     0.037654  p :     0.069279
      px      :     0.015496
      py      :     0.016128

 30 H s       :     0.897135  s :     0.897135
      pz      :     0.027724  p :     0.065953
      px      :     0.014251
      py      :     0.023978

 31 H s       :     0.897562  s :     0.897562
      pz      :     0.011911  p :     0.065890
      px      :     0.013662
      py      :     0.040317

 32 H s       :     0.896295  s :     0.896295
      pz      :     0.035757  p :     0.066120
      px      :     0.016417
      py      :     0.013946

 33 H s       :     0.896697  s :     0.896697
      pz      :     0.028061  p :     0.068826
      px      :     0.015173
      py      :     0.025592

 34 H s       :     0.888535  s :     0.888535
      pz      :     0.020966  p :     0.071586
      px      :     0.021589
      py      :     0.029031

 35 H s       :     0.887591  s :     0.887591
      pz      :     0.017371  p :     0.069843
      px      :     0.038224
      py      :     0.014248

 36 H s       :     0.891317  s :     0.891317
      pz      :     0.019140  p :     0.066300
      px      :     0.020855
      py      :     0.026305

 37 H s       :     0.886146  s :     0.886146
      pz      :     0.036281  p :     0.069746
      px      :     0.017041
      py      :     0.016424

 38 H s       :     0.736978  s :     0.736978
      pz      :     0.047787  p :     0.176570
      px      :     0.092848
      py      :     0.035936



                      *****************************
                      * MAYER POPULATION ANALYSIS *
                      *****************************

  NA   - Mulliken gross atomic population
  ZA   - Total nuclear charge
  QA   - Mulliken gross atomic charge
  VA   - Mayer's total valence
  BVA  - Mayer's bonded valence
  FA   - Mayer's free valence

  ATOM       NA         ZA         QA         VA         BVA        FA
  0 C      5.9885     6.0000     0.0115     3.8265     3.8265    -0.0000
  1 C      5.9986     6.0000     0.0014     3.8356     3.8356    -0.0000
  2 C      5.9879     6.0000     0.0121     3.8850     3.8850    -0.0000
  3 C      6.1233     6.0000    -0.1233     3.7663     3.7663    -0.0000
  4 C      6.0156     6.0000    -0.0156     3.8835     3.8835    -0.0000
  5 C      6.0009     6.0000    -0.0009     3.8709     3.8709    -0.0000
  6 P     14.3720    15.0000     0.6280     4.7088     4.7088    -0.0000
  7 O      8.4499     8.0000    -0.4499     2.1540     2.1540    -0.0000
  8 C      6.1265     6.0000    -0.1265     3.7684     3.7684    -0.0000
  9 C      5.9890     6.0000     0.0110     3.8811     3.8811    -0.0000
 10 C      5.9978     6.0000     0.0022     3.8344     3.8344    -0.0000
 11 C      5.9883     6.0000     0.0117     3.8282     3.8282    -0.0000
 12 C      5.9961     6.0000     0.0039     3.8683     3.8683    -0.0000
 13 C      6.0098     6.0000    -0.0098     3.8831     3.8831    -0.0000
 14 C      6.1327     6.0000    -0.1327     3.7843     3.7843    -0.0000
 15 C      5.9758     6.0000     0.0242     3.8804     3.8804    -0.0000
 16 C      6.1003     6.0000    -0.1003     3.8819     3.8819    -0.0000
 17 C      5.9822     6.0000     0.0178     3.8657     3.8657    -0.0000
 18 C      6.0012     6.0000    -0.0012     3.8280     3.8280    -0.0000
 19 C      5.9653     6.0000     0.0347     3.8580     3.8580    -0.0000
 20 S     15.1534    16.0000     0.8466     5.2788     5.2788    -0.0000
 21 O      8.3884     8.0000    -0.3884     2.0480     2.0480    -0.0000
 22 O      8.4024     8.0000    -0.4024     2.0308     2.0308    -0.0000
 23 O      8.3139     8.0000    -0.3139     2.0691     2.0691    -0.0000
 24 H      0.9872     1.0000     0.0128     0.9792     0.9792    -0.0000
 25 H      0.9863     1.0000     0.0137     0.9801     0.9801    -0.0000
 26 H      0.9762     1.0000     0.0238     1.0118     1.0118    -0.0000
 27 H      0.9848     1.0000     0.0152     0.9994     0.9994    -0.0000
 28 H      0.9876     1.0000     0.0124     0.9796     0.9796    -0.0000
 29 H      0.9777     1.0000     0.0223     1.0115     1.0115    -0.0000
 30 H      0.9869     1.0000     0.0131     0.9801     0.9801    -0.0000
 31 H      0.9872     1.0000     0.0128     0.9792     0.9792    -0.0000
 32 H      0.9882     1.0000     0.0118     0.9797     0.9797    -0.0000
 33 H      0.9874     1.0000     0.0126     1.0002     1.0002    -0.0000
 34 H      0.9754     1.0000     0.0246     1.0361     1.0361    -0.0000
 35 H      0.9735     1.0000     0.0265     1.0121     1.0121    -0.0000
 36 H      0.9760     1.0000     0.0240     0.9816     0.9816    -0.0000
 37 H      0.9678     1.0000     0.0322     1.0145     1.0145    -0.0000
 38 H      0.7982     1.0000     0.2018     1.0143     1.0143    -0.0000

  Mayer bond orders larger than 0.100000
B(  0-C ,  1-C ) :   1.3784 B(  0-C ,  5-C ) :   1.3799 B(  0-C , 24-H ) :   0.9763 
B(  1-C ,  2-C ) :   1.3760 B(  1-C , 25-H ) :   0.9778 B(  2-C ,  3-C ) :   1.3794 
B(  2-C , 26-H ) :   0.9724 B(  3-C ,  4-C ) :   1.3564 B(  3-C ,  6-P ) :   0.8813 
B(  4-C ,  5-C ) :   1.3985 B(  4-C , 27-H ) :   0.9639 B(  5-C , 28-H ) :   0.9751 
B(  6-P ,  7-O ) :   1.8828 B(  6-P ,  8-C ) :   0.8856 B(  6-P , 14-C ) :   0.8617 
B(  8-C ,  9-C ) :   1.3757 B(  8-C , 13-C ) :   1.3618 B(  9-C , 10-C ) :   1.3762 
B(  9-C , 29-H ) :   0.9728 B( 10-C , 11-C ) :   1.3777 B( 10-C , 30-H ) :   0.9777 
B( 11-C , 12-C ) :   1.3814 B( 11-C , 31-H ) :   0.9761 B( 12-C , 13-C ) :   1.3951 
B( 12-C , 32-H ) :   0.9752 B( 13-C , 33-H ) :   0.9622 B( 14-C , 15-C ) :   1.3606 
B( 14-C , 19-C ) :   1.3808 B( 15-C , 16-C ) :   1.3614 B( 15-C , 34-H ) :   0.9563 
B( 16-C , 17-C ) :   1.3877 B( 16-C , 20-S ) :   0.8192 B( 17-C , 18-C ) :   1.3576 
B( 17-C , 35-H ) :   0.9720 B( 18-C , 19-C ) :   1.3673 B( 18-C , 36-H ) :   0.9770 
B( 19-C , 37-H ) :   0.9714 B( 20-S , 21-O ) :   1.7421 B( 20-S , 22-O ) :   1.7013 
B( 20-S , 23-O ) :   0.9260 B( 21-O , 22-O ) :   0.1032 B( 23-O , 38-H ) :   0.9381 


-------
TIMINGS
-------

Total SCF time: 0 days 0 hours 0 min 8 sec 

Total time                  ....       8.933 sec
Sum of individual times     ....       8.815 sec  ( 98.7%)

SCF preparation             ....       0.156 sec  (  1.7%)
Fock matrix formation       ....       7.840 sec  ( 87.8%)
  Startup                   ....       0.039 sec  (  0.5% of F)
  Split-RI-J                ....       2.977 sec  ( 38.0% of F)
  XC integration            ....       4.670 sec  ( 59.6% of F)
    Basis function eval.    ....       1.454 sec  ( 31.1% of XC)
    Density eval.           ....       1.477 sec  ( 31.6% of XC)
    XC-Functional eval.     ....       0.147 sec  (  3.1% of XC)
    XC-Potential eval.      ....       0.859 sec  ( 18.4% of XC)
Diagonalization             ....       0.000 sec  (  0.0%)
Density matrix formation    ....       0.105 sec  (  1.2%)
Total Energy calculation    ....       0.033 sec  (  0.4%)
Population analysis         ....       0.118 sec  (  1.3%)
Orbital Transformation      ....       0.055 sec  (  0.6%)
Orbital Orthonormalization  ....       0.000 sec  (  0.0%)
DIIS solution               ....       0.069 sec  (  0.8%)
SOSCF solution              ....       0.439 sec  (  4.9%)
Finished LeanSCF after   9.0 sec

Maximum memory used throughout the entire LEANSCF-calculation: 44.7 MB


-------------------------------------------------------------------------------
                          DFT DISPERSION CORRECTION                            
                                                                               
                              DFTD3 V3.1  Rev 1                                
                          USING Becke-Johnson damping                          
-------------------------------------------------------------------------------
The BP86 functional is recognized
Active option DFTDOPT                   ...         4   

molecular C6(AA) [au] = 23562.066293 


            DFT-D V3
 parameters
 s6 scaling factor         :     1.0000 
 a1 scaling factor         :     0.3946 
 s8 scaling factor         :     3.2822 
 a2 scaling factor         :     4.8516 
 ad hoc parameters k1-k3   :    16.0000     1.3333    -4.0000 

 Edisp/kcal,au: -62.470009857592  -0.099552286899 
 E6   /kcal   : -22.505344361 
 E8   /kcal   : -39.964665497 
 % E8         :  63.974162303 

-------------------------   ----------------
Dispersion correction           -0.099552287
-------------------------   ----------------


-------------------------   --------------------
FINAL SINGLE POINT ENERGY     -1734.583976598630
-------------------------   --------------------

                                *** OPTIMIZATION RUN DONE ***



           ************************************************************
           *        Program running with 6 parallel MPI-processes     *
           *              working on a common directory               *
           ************************************************************

------------------------------------------------------------------------------
                              ORCA PROPERTY CALCULATIONS
------------------------------------------------------------------------------

GBWName                                 ... data/geom_opt_PO_BP86/195868/195868.gbw
Number of atoms                         ...     39
Number of basis functions               ...    419
Max core memory                         ...   1024 MB

Electric properties:
Dipole moment                           ... YES
Quadrupole moment                       ...  NO
Static polarizability (Dipole/Dipole)   ...  NO
Static polarizability (Dipole/Quad.)    ...  NO
Static polarizability (Quad./Quad.)     ...  NO
Static polarizability (Velocity)        ...  NO

Atomic electric properties:
Dipole moment                           ...  NO
Quadrupole moment                       ...  NO
Static polarizability                   ...  NO

Choice of electric origin               ... Center of mass
Position of electric origin             ...     0.806571    -0.016977     0.487493

General magnetic properties:
Magnetizability                         ...  NO

EPR properties:
g-Tensor (aka g-matrix)                 ...  NO
Zero-Field splitting spin-orbit         ...  NO
Zero-field splitting spin-spin          ...  NO
Hyperfine couplings                     ...  NO (   0 nuclei)
Quadrupole couplings                    ...  NO (   0 nuclei)
Contact density                         ...  NO (   0 nuclei)

NMR properties:
Chemical shifts                         ...  NO (   0 nuclei)
Spin-rotation constants                 ...  NO (   0 nuclei)
Spin-spin couplings                     ...  NO (   0 nuclei,    0 pairs)

Choice of magnetic origin               ... GIAO
Position of magnetic origin             ...     0.000000     0.000000     0.000000

Properties with geometric perturbations:
SCF Hessian                             ...  NO
IR spectrum                             ...  NO
VCD spectrum                            ...  NO
X-ray spectroscopy properties:
SCF XES/XAS/RIXS spectra                ...  NO


-------------
DIPOLE MOMENT
-------------

Method             : SCF
Type of density    : Electron Density
Multiplicity       :   1
Irrep              :   0
Energy             : -1734.4844243117304359 Eh
Relativity type    : 
Basis              : AO
                                X                 Y                 Z
Electronic contribution:      9.652031086      -0.889286035       1.851947090
Nuclear contribution   :     -9.661066611       1.048383581      -2.054930950
                        -----------------------------------------
Total Dipole Moment    :     -0.009035525       0.159097546      -0.202983859
                        -----------------------------------------
Magnitude (a.u.)       :      0.258062235
Magnitude (Debye)      :      0.655942072



--------------------
Rotational spectrum 
--------------------
 
Rotational constants in cm-1:             0.008620             0.005150             0.004373 
Rotational constants in MHz :           258.431614           154.390423           131.101014 

Dipole components along the rotational axes: 
x,y,z [a.u.] :     0.075948     0.201862    -0.141702 
x,y,z [Debye]:     0.193045     0.513093    -0.360179 

 

Dipole moment calculation done in   0.0 sec 

Maximum memory used throughout the entire PROP-calculation: 23.4 MB

--------------------------------
SUGGESTED CITATIONS FOR THIS RUN
--------------------------------

Below you find a list of papers that are relevant to this ORCA run
We neither can nor want to force you to cite these papers, but we appreciate if you do
You receive ORCA, which is the product of decades of hard work by many enthusiastic individuals, for free
The only thing we kindly ask in return is that you cite our papers,
We deeply appreciate it, if you show your appreciation for ORCA by not just citing the generic ORCA reference.

Please note that relegating all ORCA citations to the supporting information does *not* help us.
SI sections are not indexed - citations you put there will not count into any citation statistics
But we need these citations in order to attract the funding resources that allow us to do what we are doing

Therefore, if you are a happy ORCA user, please consider citing a few of the papers listed below in the main body of your paper

In addition to the list printed below, the program has created the file data/geom_opt_PO_BP86/195868/195868.bibtex that contains the list in bibtex format
You can import this file easily into all common literature databanks and citation aid programs


List of essential papers. We consider these as the minimum necessary citations

  1. Neese,F.
     Software update: the ORCA program system, version 5.0
     WIRES Comput. Molec. Sci., 2022 12(1)e1606
     doi.org/10.1002/wcms.1606

List of papers to cite with high priority. The work reported in these papers was absolutely
necessary for this run to complete.
Our perspective: the developers of density functionals and basis sets usually get cited in chemistry papers
Good! But without the algorithms to do something with them, the functionals or basis sets would not do anything.
Hence, in our opinion, the algorithm design and method developments papers are equally worthy of getting cited

  1. Neese,F.
     An improvement of the resolution of the identity approximation for the formation of the Coulomb matrix
     J. Comp. Chem., 2003 24(14)1740-1747
     doi.org/10.1002/jcc.10318
  2. Neese,F.
     The SHARK Integral Generation and Digestion System
     J. Comp. Chem., 2022  1-16
     doi.org/10.1002/jcc.26942
  3. Grimme,S.; Antony,J.; Ehrlich,S.; Krieg,H.
     A consistent and accurate ab initio parametrization of density functional dispersion correction (DFT-D) for the 94 elements H-Pu
     J. Chem. Phys., 2010 132 154104-XXXX
     doi.org/10.1063/1.3382344
  4. Grimme,S.; Ehrlich,S.; Goerigk,L.
     Effect of the damping function in dispersion corrected density functional theory
     J. Comput. Chem., 2011 32(7)1456-1465
     doi.org/10.1002/jcc.21759

List of suggested additional citations. These are papers that are important in the 'surrounding' of 
of this run, or papers that preceded the highly important papers. If you like your results we are grateful for a citation.

  1. Neese,F.
     The ORCA program system
     WIRES Comput. Molec. Sci., 2012 2(1)73-78
     doi.org/10.1002/wcms.81
  2. Neese,F.
     Software update: the ORCA program system, version 4.0
     WIRES Comput. Molec. Sci., 2018 8(1)1-6
     doi.org/10.1002/wcms.1327
  3. Neese,F.; Wennmohs,F.; Becker,U.; Riplinger,C.
     The ORCA quantum chemistry program package
     J. Chem. Phys., 2020 152 Art. No. L224108
     doi.org/10.1063/5.0004608

List of optional additional citations

  1. Neese,F.
     Approximate second-order SCF convergence for spin unrestricted wavefunctions
     Chem. Phys. Lett., 2000 325(1-3)93-98
     doi.org/10.1016/s0009-2614(00)00662-x

Timings for individual modules:

Sum of individual times          ...      308.322 sec (=   5.139 min)
Startup calculation              ...       24.336 sec (=   0.406 min)   7.9 %
SCF iterations                   ...      190.054 sec (=   3.168 min)  61.6 %
Property calculations            ...        0.199 sec (=   0.003 min)   0.1 %
SCF Gradient evaluation          ...       93.443 sec (=   1.557 min)  30.3 %
Geometry relaxation              ...        0.290 sec (=   0.005 min)   0.1 %
                             ****ORCA TERMINATED NORMALLY****
TOTAL RUN TIME: 0 days 0 hours 5 minutes 11 seconds 298 msec
