
                                 *****************
                                 * O   R   C   A *
                                 *****************

                                            #,                                       
                                            ###                                      
                                            ####                                     
                                            #####                                    
                                            ######                                   
                                           ########,                                 
                                     ,,################,,,,,                         
                               ,,#################################,,                 
                          ,,##########################################,,             
                       ,#########################################, ''#####,          
                    ,#############################################,,   '####,        
                  ,##################################################,,,,####,       
                ,###########''''           ''''###############################       
              ,#####''   ,,,,##########,,,,          '''####'''          '####       
            ,##' ,,,,###########################,,,                        '##       
           ' ,,###''''                  '''############,,,                           
         ,,##''                                '''############,,,,        ,,,,,,###''
      ,#''                                            '''#######################'''  
     '                                                          ''''####''''         
             ,#######,   #######,   ,#######,      ##                                
            ,#'     '#,  ##    ##  ,#'     '#,    #''#        ,####,   ,####,        
            ##       ##  ##   ,#'  ##            #'  '#       #'       #'  '#        
            ##       ##  #######   ##           ,######,      #####,   #    #        
            '#,     ,#'  ##    ##  '#,     ,#' ,#      #,     #,   #   #,  ,#        
             '#######'   ##     ##  '#######'  #'      '#     '####' # '####'        



                #########################################################
                #                        -***-                          #
                #          Department of theory and spectroscopy        #
                #                                                       #
                #                      Frank Neese                      #
                #                                                       #
                #     Directorship, Architecture, Infrastructure        #
                #                    SHARK, DRIVERS                     #
                #        Core code/Algorithms in most modules           #
                #                                                       #
                #        Max Planck Institute fuer Kohlenforschung      #
                #                Kaiser Wilhelm Platz 1                 #
                #                 D-45470 Muelheim/Ruhr                 #
                #                      Germany                          #
                #                                                       #
                #                  All rights reserved                  #
                #                        -***-                          #
                #########################################################


                         Program Version 6.0.0  -   RELEASE   -


 With contributions from (in alphabetic order):
   Daniel Aravena         : Magnetic Suceptibility
   Michael Atanasov       : Ab Initio Ligand Field Theory (pilot matlab implementation)
   Alexander A. Auer      : GIAO ZORA, VPT2 properties, NMR spectrum
   Ute Becker             : All parallelization in ORCA, NUMFREQ, NUMCALC
   Giovanni Bistoni       : ED, misc. LED, open-shell LED, HFLD
   Martin Brehm           : Molecular dynamics
   Dmytro Bykov           : pre 5.0 version of the SCF Hessian
   Marcos Casanova-Páez   : Triplet and SCS-CIS(D). UHF-(DLPNO)-IP/EA/STEOM-CCSD. UHF-CVS-IP/STEOM-CCSD
   Vijay G. Chilkuri      : MRCI spin determinant printing, contributions to CSF-ICE
   Pauline Colinet        : FMM embedding
   Dipayan Datta          : RHF DLPNO-CCSD density
   Achintya Kumar Dutta   : EOM-CC, STEOM-CC
   Nicolas Foglia         : Exact transition moments, OPA infrastructure, MCD improvements
   Dmitry Ganyushin       : Spin-Orbit,Spin-Spin,Magnetic field MRCI
   Miquel Garcia          : C-PCM and meta-GGA Hessian, CCSD/C-PCM, Gaussian charge scheme
   Tiago L. C. Gouveia    : GS-ROHF, GS-ROCIS
   Yang Guo               : DLPNO-NEVPT2, F12-NEVPT2, CIM, IAO-localization
   Andreas Hansen         : Spin unrestricted coupled pair/coupled cluster methods
   Ingolf Harden          : AUTO-CI MPn and infrastructure 
   Benjamin Helmich-Paris : MC-RPA, TRAH-(SCF,CASSCF), AVAS, COSX integrals, SCF dyn. polar.
   Lee Huntington         : MR-EOM, pCC
   Robert Izsak           : Overlap fitted RIJCOSX, COSX-SCS-MP3, EOM
   Riya Kayal             : Wick's Theorem for AUTO-CI, AUTO-CI UHF-CCSDT
   Emily Kempfer          : AUTO-CI, RHF CISDT and CCSDT
   Christian Kollmar      : KDIIS, OOCD, Brueckner-CCSD(T), CCSD density, CASPT2, CASPT2-K, improved NEVPT2
   Axel Koslowski         : Symmetry handling
   Simone Kossmann        : Meta GGA functionals, TD-DFT gradient, OOMP2, (MP2 Hessian; deprecated post 5.0)
   Lucas Lang             : DCDCAS
   Marvin Lechner         : AUTO-CI (C++ implementation), FIC-MRCC
   Spencer Leger          : CASSCF response
   Dagmar Lenk            : GEPOL surface, SMD, ORCA-2-JSON
   Dimitrios Liakos       : Extrapolation schemes; Compound Job, initial MDCI parallelization
   Dimitrios Manganas     : Further ROCIS development; embedding schemes. LFT, Crystal Embedding
   Dimitrios Pantazis     : SARC Basis sets
   Anastasios Papadopoulos: AUTO-CI, single reference methods and gradients
   Taras Petrenko         : pre 6.0 DFT Hessian and TD-DFT gradient, (ASA, deprecated), ECA, 1-Electron XAS/XES, NRVS
   Peter Pinski           : DLPNO-MP2, DLPNO-MP2 Gradient
   Christoph Reimann      : Effective Core Potentials
   Marius Retegan         : Local ZFS, SOC
   Christoph Riplinger    : Optimizer, TS searches, QM/MM, DLPNO-CCSD(T), (RO)-DLPNO pert. Triples
   Michael Roemelt        : Original ROCIS implementation
   Masaaki Saitow         : Open-shell DLPNO-CCSD energy and density
   Barbara Sandhoefer     : DKH picture change effects
   Kantharuban Sivalingam : CASSCF convergence/infrastructure, NEVPT2 and variants, FIC-MRCI
   Bernardo de Souza      : ESD, SOC TD-DFT
   Georgi Stoychev        : AutoAux, RI-MP2 NMR, DLPNO-MP2 response, X2C
   Van Anh Tran           : RI-MP2 g-tensors
   Willem Van den Heuvel  : Paramagnetic NMR
   Zikuan Wang            : NOTCH, Electric field optimization 
   Frank Wennmohs         : Technical directorship and infrastructure
   Hang Xu                : AUTO-CI-Response properties 


 We gratefully acknowledge several colleagues who have allowed us to
 interface, adapt or use parts of their codes:
   Stefan Grimme, W. Hujo, H. Kruse, P. Pracht,  : VdW corrections, initial TS optimization,
                  C. Bannwarth, S. Ehlert,         DFT functionals, gCP, sTDA/sTD-DF
                  L. Wittmann, M. Mueller
   Ed Valeev, F. Pavosevic, A. Kumar             : LibInt (2-el integral package), F12 methods
   Garnet Chan, S. Sharma, J. Yang, R. Olivares  : DMRG
   Ulf Ekstrom                                   : XCFun DFT Library
   Mihaly Kallay                                 : mrcc  (arbitrary order and MRCC methods)
   Frank Weinhold                                : gennbo (NPA and NBO analysis)
   Simon Mueller                                 : openCOSMO-RS
   Christopher J. Cramer and Donald G. Truhlar   : smd solvation model
   Lars Goerigk                                  : TD-DFT with DH, B97 family of functionals
   V. Asgeirsson, H. Jonsson                     : NEB implementation
   FAccTs GmbH                                   : IRC, NEB, NEB-TS, DLPNO-Multilevel, CI-OPT
                                                   MM, QMMM, 2- and 3-layer-ONIOM, Crystal-QMMM,
                                                   LR-CPCM, SF, NACMEs, symmetry and pop. for TD-DFT,
                                                   nearIR, NL-DFT gradient (VV10), updates on ESD,
                                                   ML-optimized integration grids, MBIS, APM,
                                                   GOAT, DOCKER, SOLVATOR, interface openCOSMO-RS
   S Lehtola, MJT Oliveira, MAL Marques          : LibXC Library
   Liviu Ungur et al                             : ANISO software


 Your calculation uses the libint2 library for the computation of 2-el integrals
 For citations please refer to: http://libint.valeyev.net

 Your ORCA version has been built with support for libXC version: 6.2.2
 For citations please refer to: https://libxc.gitlab.io

 This ORCA versions uses:
   CBLAS   interface :  Fast vector & matrix operations
   LAPACKE interface :  Fast linear algebra routines
   Shared memory     :  Shared parallel matrices


Your calculation utilizes the atom-pairwise dispersion correction
with the Becke-Johnson damping scheme (D3BJ)


Warning: RI is on but no J-basis has been assigned. Assigning Def2/J (nothing to worry about!)
================================================================================

----- Orbital basis set information -----
Your calculation utilizes the basis: def2-SVP
   F. Weigend and R. Ahlrichs, Phys. Chem. Chem. Phys. 7, 3297 (2005).

----- AuxJ basis set information -----
Your calculation utilizes the auxiliary basis: def2/J
   F. Weigend, Phys. Chem. Chem. Phys. 8, 1057 (2006).

================================================================================
                                        WARNINGS
                       Please study these warnings very carefully!
================================================================================


WARNING: Geometry Optimization
  ===> : Switching off AutoStart
         For restart on a previous wavefunction, please use MOREAD

================================================================================
                                       INPUT FILE
================================================================================
NAME = data/geom_opt_PO_BP86/68983/68983.inp
|  1> ! RI BP86 def2-SVP D3BJ TIGHTSCF Opt
|  2> %pal
|  3> nprocs 6
|  4> end
|  5> 
|  6> * xyz 0 1
|  7> C      1.407606   -0.697950   -0.432551
|  8> P      0.158379    0.024045    0.611240
|  9> O      0.564964    0.085773    2.055084
| 10> C     -1.312846   -0.943131    0.344008
| 11> C     -0.184483    1.627459   -0.083638
| 12> H      2.332168   -0.116045   -0.382753
| 13> H      1.076904   -0.726160   -1.474688
| 14> H      1.627563   -1.721248   -0.115709
| 15> H     -1.577903   -0.965424   -0.716867
| 16> H     -1.161335   -1.972597    0.680388
| 17> H     -2.155513   -0.520497    0.898266
| 18> H      0.700024    2.267870   -0.025060
| 19> H     -0.476767    1.543138   -1.134193
| 20> H     -0.998761    2.114767    0.459862
| 21> **                         ****END OF INPUT****
================================================================================

                       *****************************
                       * Geometry Optimization Run *
                       *****************************

Geometry optimization settings:
Update method            Update   .... BFGS
Choice of coordinates    CoordSys .... (2022) Redundant Internals
Initial Hessian          InHess   .... Almloef's Model
Max. no of cycles        MaxIter  .... 50

Convergence Tolerances:
Energy Change            TolE     ....  5.0000e-06 Eh
Max. Gradient            TolMAXG  ....  3.0000e-04 Eh/bohr
RMS Gradient             TolRMSG  ....  1.0000e-04 Eh/bohr
Max. Displacement        TolMAXD  ....  4.0000e-03 bohr
RMS Displacement         TolRMSD  ....  2.0000e-03 bohr
Strict Convergence                .... False

------------------------------------------------------------------------------
                        ORCA OPTIMIZATION COORDINATE SETUP
------------------------------------------------------------------------------

The optimization will be done in redundant internal coordinates (2022)
Making redundant internal coordinates   ...  (2022 redundants) done
Evaluating the initial hessian          ...  (Almloef) done
Evaluating the coordinates              ...  done
Calculating the B-matrix                .... done
Calculating the G-matrix                .... done
Diagonalizing the G-matrix              .... done
The first mode is                       ....   19
The number of degrees of freedom        ....   36

    -----------------------------------------------------------------
                    Redundant Internal Coordinates


    -----------------------------------------------------------------
         Definition                    Initial Value    Approx d2E/dq
    -----------------------------------------------------------------
      1. B(P   1,C   0)                  1.7808         0.499681   
      2. B(O   2,P   1)                  1.5013         1.249820   
      3. B(C   3,P   1)                  1.7808         0.499681   
      4. B(C   4,P   1)                  1.7808         0.499680   
      5. B(H   5,C   0)                  1.0936         0.355401   
      6. B(H   6,C   0)                  1.0937         0.355221   
      7. B(H   7,C   0)                  1.0936         0.355400   
      8. B(H   8,C   3)                  1.0937         0.355222   
      9. B(H   9,C   3)                  1.0936         0.355401   
     10. B(H  10,C   3)                  1.0936         0.355400   
     11. B(H  11,C   4)                  1.0936         0.355399   
     12. B(H  12,C   4)                  1.0937         0.355223   
     13. B(H  13,C   4)                  1.0936         0.355399   
     14. A(P   1,C   0,H   7)          110.5269         0.360875   
     15. A(H   5,C   0,H   6)          108.2250         0.289620   
     16. A(P   1,C   0,H   5)          110.5270         0.360876   
     17. A(H   6,C   0,H   7)          108.2250         0.289620   
     18. A(H   5,C   0,H   7)          108.3411         0.289643   
     19. A(P   1,C   0,H   6)          110.9061         0.360844   
     20. A(O   2,P   1,C   3)          112.9791         0.539281   
     21. A(C   3,P   1,C   4)          105.7468         0.457397   
     22. A(O   2,P   1,C   4)          112.9791         0.539281   
     23. A(C   0,P   1,O   2)          112.9791         0.539281   
     24. A(C   0,P   1,C   4)          105.7468         0.457397   
     25. A(C   0,P   1,C   3)          105.7468         0.457397   
     26. A(H   8,C   3,H   9)          108.2250         0.289620   
     27. A(P   1,C   3,H   9)          110.5270         0.360876   
     28. A(P   1,C   3,H   8)          110.9062         0.360844   
     29. A(H   9,C   3,H  10)          108.3410         0.289643   
     30. A(H   8,C   3,H  10)          108.2249         0.289620   
     31. A(P   1,C   3,H  10)          110.5269         0.360875   
     32. A(H  12,C   4,H  13)          108.2250         0.289620   
     33. A(H  11,C   4,H  13)          108.3410         0.289642   
     34. A(P   1,C   4,H  13)          110.5269         0.360875   
     35. A(H  11,C   4,H  12)          108.2250         0.289620   
     36. A(P   1,C   4,H  12)          110.9062         0.360845   
     37. A(P   1,C   4,H  11)          110.5269         0.360875   
     38. D(C   3,P   1,C   0,H   6)     55.9340         0.005202   
     39. D(O   2,P   1,C   0,H   5)    -59.9662         0.005202   
     40. D(C   3,P   1,C   0,H   7)    -64.0998         0.005202   
     41. D(O   2,P   1,C   0,H   7)     59.9662         0.005202   
     42. D(O   2,P   1,C   0,H   6)    179.9999         0.005202   
     43. D(C   3,P   1,C   0,H   5)    175.9678         0.005202   
     44. D(H   8,C   3,P   1,C   0)    -55.9341         0.005202   
     45. D(H   9,C   3,P   1,C   4)    175.9679         0.005202   
     46. D(H   9,C   3,P   1,O   2)    -59.9662         0.005202   
     47. D(H   9,C   3,P   1,C   0)     64.0998         0.005202   
     48. D(H   8,C   3,P   1,C   4)     55.9340         0.005202   
     49. D(H   8,C   3,P   1,O   2)    180.0000         0.005202   
     50. D(H  11,C   4,P   1,C   3)   -175.9679         0.005202   
     51. D(H  11,C   4,P   1,O   2)     59.9662         0.005202   
     52. D(H  11,C   4,P   1,C   0)    -64.0998         0.005202   
     53. D(H  12,C   4,P   1,C   3)    -55.9340         0.005202   
     54. D(H  12,C   4,P   1,O   2)   -180.0000         0.005202   
     55. D(H  12,C   4,P   1,C   0)     55.9341         0.005202   
    -----------------------------------------------------------------

Number of atoms                         .... 14
Number of degrees of freedom            .... 55


         *************************************************************
         *                GEOMETRY OPTIMIZATION CYCLE   1            *
         *************************************************************
---------------------------------
CARTESIAN COORDINATES (ANGSTROEM)
---------------------------------
  C      1.407606   -0.697950   -0.432551
  P      0.158379    0.024045    0.611240
  O      0.564964    0.085773    2.055084
  C     -1.312846   -0.943131    0.344008
  C     -0.184483    1.627459   -0.083638
  H      2.332168   -0.116045   -0.382753
  H      1.076904   -0.726160   -1.474688
  H      1.627563   -1.721248   -0.115709
  H     -1.577903   -0.965424   -0.716867
  H     -1.161335   -1.972597    0.680388
  H     -2.155513   -0.520497    0.898266
  H      0.700024    2.267870   -0.025060
  H     -0.476767    1.543138   -1.134193
  H     -0.998761    2.114767    0.459862

----------------------------
CARTESIAN COORDINATES (A.U.)
----------------------------
  NO LB      ZA    FRAG     MASS         X           Y           Z
   0 C     6.0000    0    12.011    2.659990   -1.318934   -0.817403
   1 P    15.0000    0    30.974    0.299293    0.045438    1.155076
   2 O     8.0000    0    15.999    1.067627    0.162087    3.883546
   3 C     6.0000    0    12.011   -2.480919   -1.782259    0.650081
   4 C     6.0000    0    12.011   -0.348622    3.075452   -0.158053
   5 H     1.0000    0     1.008    4.407159   -0.219293   -0.723298
   6 H     1.0000    0     1.008    2.035054   -1.372244   -2.786756
   7 H     1.0000    0     1.008    3.075648   -3.252687   -0.218658
   8 H     1.0000    0     1.008   -2.981805   -1.824387   -1.354682
   9 H     1.0000    0     1.008   -2.194605   -3.727668    1.285747
  10 H     1.0000    0     1.008   -4.073329   -0.983597    1.697477
  11 H     1.0000    0     1.008    1.322854    4.285653   -0.047357
  12 H     1.0000    0     1.008   -0.900959    2.916108   -2.143314
  13 H     1.0000    0     1.008   -1.887385    3.996330    0.869013

--------------------------------
INTERNAL COORDINATES (ANGSTROEM)
--------------------------------
 C      0   0   0     0.000000000000     0.00000000     0.00000000
 P      1   0   0     1.780826922875     0.00000000     0.00000000
 O      2   1   0     1.501268531791   112.97910096     0.00000000
 C      2   1   3     1.780827155404   105.74684834   235.93405674
 C      2   1   3     1.780827403575   105.74681897   124.06595521
 H      1   2   3     1.093575860045   110.52696680   300.03375220
 H      1   2   3     1.093713465069   110.90614359   179.99993241
 H      1   2   3     1.093576120632   110.52692480    59.96618549
 H      4   2   1     1.093712922445   110.90617220   304.06594534
 H      4   2   1     1.093575481015   110.52696918    64.09980008
 H      4   2   1     1.093576289707   110.52693084   184.03218704
 H      5   2   1     1.093576821286   110.52690922   295.90022889
 H      5   2   1     1.093711925382   110.90617886    55.93406975
 H      5   2   1     1.093576699710   110.52690217   175.96789335

---------------------------
INTERNAL COORDINATES (A.U.)
---------------------------
 C      0   0   0     0.000000000000     0.00000000     0.00000000
 P      1   0   0     3.365275176147     0.00000000     0.00000000
 O      2   1   0     2.836986378558   112.97910096     0.00000000
 C      2   1   3     3.365275615564   105.74684834   235.93405674
 C      2   1   3     3.365276084539   105.74681897   124.06595521
 H      1   2   3     2.066558882152   110.52696680   300.03375220
 H      1   2   3     2.066818917962   110.90614359   179.99993241
 H      1   2   3     2.066559374591   110.52692480    59.96618549
 H      4   2   1     2.066817892552   110.90617220   304.06594534
 H      4   2   1     2.066558165889   110.52696918    64.09980008
 H      4   2   1     2.066559694096   110.52693084   184.03218704
 H      5   2   1     2.066560698635   110.52690922   295.90022889
 H      5   2   1     2.066816008375   110.90617886    55.93406975
 H      5   2   1     2.066560468889   110.52690217   175.96789335

---------------------
BASIS SET INFORMATION
---------------------
There are 4 groups of distinct atoms

 Group   1 Type C   : 7s4p1d contracted to 3s2p1d pattern {511/31/1}
 Group   2 Type P   : 10s7p1d contracted to 4s3p1d pattern {5311/511/1}
 Group   3 Type O   : 7s4p1d contracted to 3s2p1d pattern {511/31/1}
 Group   4 Type H   : 4s1p contracted to 2s1p pattern {31/1}

Atom   0C    basis set group =>   1
Atom   1P    basis set group =>   2
Atom   2O    basis set group =>   3
Atom   3C    basis set group =>   1
Atom   4C    basis set group =>   1
Atom   5H    basis set group =>   4
Atom   6H    basis set group =>   4
Atom   7H    basis set group =>   4
Atom   8H    basis set group =>   4
Atom   9H    basis set group =>   4
Atom  10H    basis set group =>   4
Atom  11H    basis set group =>   4
Atom  12H    basis set group =>   4
Atom  13H    basis set group =>   4
---------------------------------
AUXILIARY/J BASIS SET INFORMATION
---------------------------------
There are 4 groups of distinct atoms

 Group   1 Type C   : 12s5p4d2f1g contracted to 6s4p3d1f1g pattern {711111/2111/211/2/1}
 Group   2 Type P   : 14s5p5d2f1g contracted to 8s4p3d1f1g pattern {71111111/2111/311/2/1}
 Group   3 Type O   : 12s5p4d2f1g contracted to 6s4p3d1f1g pattern {711111/2111/211/2/1}
 Group   4 Type H   : 5s2p1d contracted to 3s1p1d pattern {311/2/1}

Atom   0C    basis set group =>   1
Atom   1P    basis set group =>   2
Atom   2O    basis set group =>   3
Atom   3C    basis set group =>   1
Atom   4C    basis set group =>   1
Atom   5H    basis set group =>   4
Atom   6H    basis set group =>   4
Atom   7H    basis set group =>   4
Atom   8H    basis set group =>   4
Atom   9H    basis set group =>   4
Atom  10H    basis set group =>   4
Atom  11H    basis set group =>   4
Atom  12H    basis set group =>   4
Atom  13H    basis set group =>   4


           ************************************************************
           *        Program running with 6 parallel MPI-processes     *
           *              working on a common directory               *
           ************************************************************
------------------------------------------------------------------------------
                             ORCA STARTUP CALCULATIONS
                           -- RI-GTO INTEGRALS CHOSEN --
------------------------------------------------------------------------------
------------------------------------------------------------------------------
                   ___                                                        
                  /   \      - P O W E R E D   B Y -                         
                 /     \                                                     
                 |  |  |   _    _      __       _____    __    __             
                 |  |  |  | |  | |    /  \     |  _  \  |  |  /  |          
                  \  \/   | |  | |   /    \    | | | |  |  | /  /          
                 / \  \   | |__| |  /  /\  \   | |_| |  |  |/  /          
                |  |  |   |  __  | /  /__\  \  |    /   |      \           
                |  |  |   | |  | | |   __   |  |    \   |  |\   \          
                \     /   | |  | | |  |  |  |  | |\  \  |  | \   \       
                 \___/    |_|  |_| |__|  |__|  |_| \__\ |__|  \__/        
                                                                              
                      - O R C A' S   B I G   F R I E N D -                    
                                      &                                       
                       - I N T E G R A L  F E E D E R -                       
                                                                              
 v1 FN, 2020, v2 2021, v3 2022-2024                                           
------------------------------------------------------------------------------


----------------------
SHARK INTEGRAL PACKAGE
----------------------

Number of atoms                             ...     14
Number of basis functions                   ...    119
Number of shells                            ...     59
Maximum angular momentum                    ...      2
Integral batch strategy                     ... SHARK/LIBINT Hybrid
RI-J (if used) integral strategy            ... SPLIT-RIJ (Revised 2003 algorithm where possible)
Printlevel                                  ...      1
Contraction scheme used                     ... SEGMENTED contraction
Prescreening option                         ... SCHWARTZ
   Thresh                                   ... 2.500e-11
   Tcut                                     ... 2.500e-12
   Tpresel                                  ... 2.500e-12 
Coulomb Range Separation                    ... NOT USED
Exchange Range Separation                   ... NOT USED
Multipole approximations                    ... NOT USED
Finite Nucleus Model                        ... NOT USED
CABS basis                                  ... NOT available
Auxiliary Coulomb fitting basis             ... AVAILABLE
   # of basis functions in Aux-J            ...    346
   # of shells in Aux-J                     ...    122
   Maximum angular momentum in Aux-J        ...      4
Auxiliary J/K fitting basis                 ... NOT available
Auxiliary Correlation fitting basis         ... NOT available
Auxiliary 'external' fitting basis          ... NOT available

Checking pre-screening integrals            ... done (  0.0 sec) Dimension = 59
Check shell pair data                       ... done (  0.0 sec)
Shell pair information
Shell pair cut-off parameter TPreSel        ...   2.5e-12
Total number of shell pairs                 ...      1770
Shell pairs after pre-screening             ...      1748
Total number of primitive shell pairs       ...      6318
Primitive shell pairs kept                  ...      4849
          la=0 lb=0:    585 shell pairs
          la=1 lb=0:    671 shell pairs
          la=1 lb=1:    207 shell pairs
          la=2 lb=0:    170 shell pairs
          la=2 lb=1:    100 shell pairs
          la=2 lb=2:     15 shell pairs

Calculating one electron integrals          ... done (  0.0 sec)
Calculating RI/J V-Matrix + Cholesky decomp.... done (  0.0 sec)
Calculating Nuclear repulsion               ... done (  0.0 sec) ENN=    262.471420385108 Eh

Diagonalization of the overlap matrix:
Smallest eigenvalue                        ... 2.648e-03
Time for diagonalization                   ...    0.002 sec
Threshold for overlap eigenvalues          ... 1.000e-07
Number of eigenvalues below threshold      ... 0
Time for construction of square roots      ...    0.002 sec
Total time needed                          ...    0.004 sec

-------------------
DFT GRID GENERATION
-------------------

General Integration Accuracy     IntAcc      ... 4.388
Radial Grid Type                 RadialGrid  ... OptM3 with GC (2021)
Angular Grid (max. ang.)         AngularGrid ... 4 (Lebedev-302)
Angular grid pruning method      GridPruning ... 4 (adaptive)
Weight generation scheme         WeightScheme... mBecke (2022)
Basis function cutoff            BFCut       ... 1.0000e-11
Integration weight cutoff        WCut        ... 1.0000e-14
Partially contracted basis set               ... off
Rotationally invariant grid construction     ... off
Angular grids for H and He will be reduced by one unit

Total number of grid points                  ...    60512
Total number of batches                      ...      952
Average number of points per batch           ...       63
Average number of grid points per atom       ...     4322
Initializing property integral containers    ... done (  0.0 sec)

SHARK setup successfully completed in   0.4 seconds

Maximum memory used throughout the entire STARTUP-calculation: 17.8 MB


           ************************************************************
           *        Program running with 6 parallel MPI-processes     *
           *              working on a common directory               *
           ************************************************************
-------------------------------------------------------------------------------
                                 ORCA GUESS
                   Start orbitals & Density for SCF / CASSCF
-------------------------------------------------------------------------------

------------
SCF SETTINGS
------------
Hamiltonian:
 Density Functional     Method          .... DFT(GTOs)
 Exchange Functional    Exchange        .... B88
   X-Alpha parameter    XAlpha          ....  0.666667
   Becke's b parameter  XBeta           ....  0.004200
 Correlation Functional Correlation     .... P86
 LDA part of GGA corr.  LDAOpt          .... PW91-LDA
 Gradients option       PostSCFGGA      .... off
   NL short-range parameter             ....  4.400000
 RI-approximation to the Coulomb term is turned on
   Number of AuxJ basis functions       .... 346


General Settings:
 Integral files         IntName         .... data/geom_opt_PO_BP86/68983/68983
 Hartree-Fock type      HFTyp           .... RHF
 Total Charge           Charge          ....    0
 Multiplicity           Mult            ....    1
 Number of Electrons    NEL             ....   50
 Basis Dimension        Dim             ....  119
 Nuclear Repulsion      ENuc            ....    262.4714203851 Eh

Convergence Acceleration:
 AO-DIIS                CNVDIIS         .... on
   Start iteration      DIISMaxIt       ....    12
   Startup error        DIISStart       ....  0.200000
   # of expansion vecs  DIISMaxEq       ....     5
   Bias factor          DIISBfac        ....   1.050
   Max. coefficient     DIISMaxC        ....  10.000
 MO-DIIS                CNVKDIIS        .... off
 Trust-Rad. Augm. Hess. CNVTRAH         .... auto
   Auto Start mean grad. ratio tolernc. ....  1.125000
   Auto Start start iteration           ....    50
   Auto Start num. interpolation iter.  ....    10
   Max. Number of Micro iterations      ....    24
   Max. Number of Macro iterations      .... Maxiter - #DIIS iter
   Number of Davidson start vectors     ....     2
   Converg. threshold    (grad. norm)   ....   1.000e-05
   Grad. Scal. Fac. for Micro threshold ....   0.100
   Minimum threshold for Micro iter.    ....   1.000e-02
   NR start threshold (gradient norm)   ....   1.000e-04
   Initial trust radius                 ....   0.400
   Minimum AH scaling param. (alpha)    ....   1.000
   Maximum AH scaling param. (alpha)    .... 1000.000
   Quad. conv. algorithm                .... NR
   White noise on init. David. guess    .... on
   Maximum white noise                  ....   0.010
   Pseudo random numbers                .... off
   Inactive MOs                         .... canonical
   Orbital update algorithm             .... Taylor
   Preconditioner                       .... Diag
   Full preconditioner red. dimension   ....   250
 SOSCF                  CNVSOSCF        .... on
   Start iteration      SOSCFMaxIt      ....   150
   Startup grad/error   SOSCFStart      ....  0.003300
   Hessian update       SOSCFHessUp     .... L-BFGS
 Level Shifting         CNVShift        .... on
   Level shift para.    LevelShift      ....    0.2500
   Turn off err/grad.   ShiftErr        ....    0.0010
 Zerner damping         CNVZerner       .... off
 Static damping         CNVDamp         .... on
   Fraction old density DampFac         ....    0.7000
   Max. Damping (<1)    DampMax         ....    0.9800
   Min. Damping (>=0)   DampMin         ....    0.0000
   Turn off err/grad.   DampErr         ....    0.1000

SCF Procedure:
 Maximum # iterations   MaxIter         ....   125
 SCF integral mode      SCFMode         .... Direct
   Integral package                     .... SHARK and LIBINT hybrid scheme
 Reset frequency        DirectResetFreq ....    20
 Integral Threshold     Thresh          ....  2.500e-11 Eh
 Primitive CutOff       TCut            ....  2.500e-12 Eh

Convergence Tolerance:
 Convergence Check Mode ConvCheckMode   .... Total+1el-Energy
 Convergence forced     ConvForced      .... 0
 Energy Change          TolE            ....  1.000e-08 Eh
 1-El. energy change                    ....  1.000e-05 Eh
 Orbital Gradient       TolG            ....  1.000e-05
 Orbital Rotation angle TolX            ....  1.000e-05
 DIIS Error             TolErr          ....  5.000e-07

------------------------------
INITIAL GUESS: MODEL POTENTIAL
------------------------------
Loading Hartree-Fock densities                     ... done
Calculating cut-offs                               ... done
Initializing the effective Hamiltonian             ... done
Setting up the integral package (SHARK)            ... done
Starting the Coulomb interaction                   ... done (   0.1 sec)
Making the grid                                    ... done (   0.1 sec)
Mapping shells                                     ... done
Starting the XC term evaluation                    ... done (   0.0 sec)
  promolecular density results
     # of electrons  =     49.996791274
     EX              =    -48.986527293
     EC              =     -1.898628739
     EX+EC           =    -50.885156032
Transforming the Hamiltonian                       ... done (   0.0 sec)
Diagonalizing the Hamiltonian                      ... done (   0.0 sec)
Back transforming the eigenvectors                 ... done (   0.0 sec)
Now organizing SCF variables                       ... done
                      ------------------
                      INITIAL GUESS DONE (   0.3 sec)
                      ------------------
             **** ENERGY FILE WAS UPDATED (data/geom_opt_PO_BP86/68983/68983.en.tmp) ****
Finished Guess after   0.5 sec
Maximum memory used throughout the entire GUESS-calculation: 9.6 MB


           ************************************************************
           *        Program running with 6 parallel MPI-processes     *
           *              working on a common directory               *
           ************************************************************

-------------------------------------------------------------------------------------------
                                      ORCA LEAN-SCF
                              memory conserving SCF solver
-------------------------------------------------------------------------------------------

----------------------------------------D-I-I-S--------------------------------------------
Iteration    Energy (Eh)           Delta-E    RMSDP     MaxDP     DIISErr   Damp  Time(sec)
-------------------------------------------------------------------------------------------
               ***  Starting incremental Fock matrix formation  ***
    1    -535.8331726866706504     0.00e+00  9.06e-03  1.52e-01  3.45e-01  0.700   0.2
    2    -535.9818353970479166    -1.49e-01  5.35e-03  9.27e-02  8.99e-02  0.700   0.2
                               ***Turning on AO-DIIS***
    3    -536.0237996230455337    -4.20e-02  1.42e-03  2.62e-02  2.95e-02  0.700   0.2
    4    -536.0534429435979291    -2.96e-02  2.50e-03  4.42e-02  1.41e-02  0.000   0.1
    5    -536.1211041045255570    -6.77e-02  7.62e-04  1.27e-02  1.23e-02  0.000   0.2
                              *** Initializing SOSCF ***
---------------------------------------S-O-S-C-F--------------------------------------
Iteration    Energy (Eh)           Delta-E    RMSDP     MaxDP     MaxGrad    Time(sec)
--------------------------------------------------------------------------------------
    6    -536.1221023318130392    -9.98e-04  2.48e-04  3.17e-03  2.87e-03     0.1
               *** Restarting incremental Fock matrix formation ***
    7    -536.1221805107809359    -7.82e-05  1.84e-04  2.21e-03  4.86e-04     0.1
    8    -536.1221717331977743     8.78e-06  1.23e-04  1.92e-03  9.07e-04     0.1
    9    -536.1221866765733921    -1.49e-05  1.00e-04  1.91e-03  3.29e-04     0.1
   10    -536.1221850265624198     1.65e-06  4.96e-05  8.94e-04  3.59e-04     0.2
   11    -536.1221880169277938    -2.99e-06  3.97e-06  6.28e-05  1.14e-05     0.1
   12    -536.1221880149573735     1.97e-09  1.15e-06  2.21e-05  6.23e-06     0.1
                 **** Energy Check signals convergence ****

               *****************************************************
               *                     SUCCESS                       *
               *           SCF CONVERGED AFTER  12 CYCLES          *
               *****************************************************

             **** ENERGY FILE WAS UPDATED (data/geom_opt_PO_BP86/68983/68983.en.tmp) ****

----------------
TOTAL SCF ENERGY
----------------

Total Energy       :       -536.12218801495737 Eh          -14588.62641 eV

Components:
Nuclear Repulsion  :        262.47142038510839 Eh            7142.21045 eV
Electronic Energy  :       -798.59360840006570 Eh          -21730.83686 eV
One Electron Energy:      -1256.54839855862565 Eh          -34192.42023 eV
Two Electron Energy:        457.95479015855994 Eh           12461.58337 eV

Virial components:
Potential Energy   :      -1069.17952477939752 Eh          -29093.85397 eV
Kinetic Energy     :        533.05733676444004 Eh           14505.22756 eV
Virial Ratio       :          2.00574957146096

DFT components:
N(Alpha)           :       24.999985760945 electrons
N(Beta)            :       24.999985760945 electrons
N(Total)           :       49.999971521891 electrons
E(X)               :      -49.710168908417 Eh       
E(C)               :       -1.906107933288 Eh       
E(XC)              :      -51.616276841705 Eh       

---------------
SCF CONVERGENCE
---------------

  Last Energy change         ...   -1.9704e-09  Tolerance :   1.0000e-08
  Last MAX-Density change    ...    2.2121e-05  Tolerance :   1.0000e-07
  Last RMS-Density change    ...    1.1479e-06  Tolerance :   5.0000e-09
  Last DIIS Error            ...    2.8738e-03  Tolerance :   5.0000e-07
  Last Orbital Gradient      ...    6.2314e-06  Tolerance :   1.0000e-05
  Last Orbital Rotation      ...    5.3752e-06  Tolerance :   1.0000e-05


----------------
ORBITAL ENERGIES
----------------

  NO   OCC          E(Eh)            E(eV) 
   0   2.0000     -76.396853     -2078.8641 
   1   2.0000     -18.691041      -508.6091 
   2   2.0000      -9.915336      -269.8100 
   3   2.0000      -9.915331      -269.8099 
   4   2.0000      -9.915276      -269.8084 
   5   2.0000      -6.359690      -173.0560 
   6   2.0000      -4.580674      -124.6465 
   7   2.0000      -4.580672      -124.6464 
   8   2.0000      -4.580330      -124.6371 
   9   2.0000      -0.838300       -22.8113 
  10   2.0000      -0.697389       -18.9769 
  11   2.0000      -0.641297       -17.4506 
  12   2.0000      -0.641293       -17.4505 
  13   2.0000      -0.479451       -13.0465 
  14   2.0000      -0.405849       -11.0437 
  15   2.0000      -0.405846       -11.0436 
  16   2.0000      -0.403229       -10.9724 
  17   2.0000      -0.375447       -10.2164 
  18   2.0000      -0.375442       -10.2163 
  19   2.0000      -0.358907        -9.7663 
  20   2.0000      -0.328681        -8.9439 
  21   2.0000      -0.328680        -8.9438 
  22   2.0000      -0.285084        -7.7575 
  23   2.0000      -0.201350        -5.4790 
  24   2.0000      -0.201350        -5.4790 
  25   0.0000       0.020162         0.5486 
  26   0.0000       0.045253         1.2314 
  27   0.0000       0.065695         1.7877 
  28   0.0000       0.065699         1.7878 
  29   0.0000       0.080878         2.2008 
  30   0.0000       0.080883         2.2009 
  31   0.0000       0.106531         2.8989 
  32   0.0000       0.114485         3.1153 
  33   0.0000       0.114492         3.1155 
  34   0.0000       0.129265         3.5175 
  35   0.0000       0.137110         3.7310 
*Only the first 10 virtual orbitals were printed.

                    ********************************
                    * MULLIKEN POPULATION ANALYSIS *
                    ********************************

-----------------------
MULLIKEN ATOMIC CHARGES
-----------------------
   0 C :   -0.153822
   1 P :    0.377117
   2 O :   -0.471369
   3 C :   -0.153933
   4 C :   -0.153864
   5 H :    0.072347
   6 H :    0.040564
   7 H :    0.072352
   8 H :    0.040596
   9 H :    0.072373
  10 H :    0.072355
  11 H :    0.072358
  12 H :    0.040568
  13 H :    0.072359
Sum of atomic charges:   -0.0000000

--------------------------------
MULLIKEN REDUCED ORBITAL CHARGES
--------------------------------
  0 C s       :     3.043213  s :     3.043213
      pz      :     1.011473  p :     3.092081
      px      :     1.031147
      py      :     1.049461
      dz2     :     0.005415  d :     0.018528
      dxz     :     0.003382
      dyz     :     0.002099
      dx2y2   :     0.003483
      dxy     :     0.004149

  1 P s       :     5.307782  s :     5.307782
      pz      :     2.863739  p :     8.797667
      px      :     2.962777
      py      :     2.971152
      dz2     :     0.107890  d :     0.517434
      dxz     :     0.134880
      dyz     :     0.139274
      dx2y2   :     0.058515
      dxy     :     0.076873

  2 O s       :     3.816784  s :     3.816784
      pz      :     1.361263  p :     4.642360
      px      :     1.629271
      py      :     1.651827
      dz2     :     0.004786  d :     0.012224
      dxz     :     0.003604
      dyz     :     0.003268
      dx2y2   :     0.000294
      dxy     :     0.000272

  3 C s       :     3.043258  s :     3.043258
      pz      :     1.003161  p :     3.092147
      px      :     1.041989
      py      :     1.046996
      dz2     :     0.005441  d :     0.018528
      dxz     :     0.003340
      dyz     :     0.002141
      dx2y2   :     0.003770
      dxy     :     0.003836

  4 C s       :     3.043245  s :     3.043245
      pz      :     1.008700  p :     3.092091
      px      :     1.049202
      py      :     1.034188
      dz2     :     0.005250  d :     0.018528
      dxz     :     0.003218
      dyz     :     0.002540
      dx2y2   :     0.002742
      dxy     :     0.004779

  5 H s       :     0.903676  s :     0.903676
      pz      :     0.005500  p :     0.023977
      px      :     0.011059
      py      :     0.007418

  6 H s       :     0.935299  s :     0.935299
      pz      :     0.012653  p :     0.024138
      px      :     0.006081
      py      :     0.005404

  7 H s       :     0.903672  s :     0.903672
      pz      :     0.006172  p :     0.023976
      px      :     0.005543
      py      :     0.012262

  8 H s       :     0.935267  s :     0.935267
      pz      :     0.012677  p :     0.024137
      px      :     0.006032
      py      :     0.005429

  9 H s       :     0.903651  s :     0.903651
      pz      :     0.006288  p :     0.023976
      px      :     0.005325
      py      :     0.012364

 10 H s       :     0.903669  s :     0.903669
      pz      :     0.007616  p :     0.023976
      px      :     0.010021
      py      :     0.006339

 11 H s       :     0.903665  s :     0.903665
      pz      :     0.005514  p :     0.023977
      px      :     0.010467
      py      :     0.007996

 12 H s       :     0.935294  s :     0.935294
      pz      :     0.012654  p :     0.024138
      px      :     0.005940
      py      :     0.005543

 13 H s       :     0.903664  s :     0.903664
      pz      :     0.007513  p :     0.023977
      px      :     0.009648
      py      :     0.006815



                     *******************************
                     * LOEWDIN POPULATION ANALYSIS *
                     *******************************

----------------------
LOEWDIN ATOMIC CHARGES
----------------------
   0 C :   -0.225142
   1 P :    0.828196
   2 O :   -0.513566
   3 C :   -0.225157
   4 C :   -0.225140
   5 H :    0.044392
   6 H :    0.031479
   7 H :    0.044395
   8 H :    0.031484
   9 H :    0.044399
  10 H :    0.044395
  11 H :    0.044393
  12 H :    0.031478
  13 H :    0.044394

-------------------------------
LOEWDIN REDUCED ORBITAL CHARGES
-------------------------------
  0 C s       :     2.891518  s :     2.891518
      pz      :     1.087551  p :     3.281235
      px      :     1.099129
      py      :     1.094555
      dz2     :     0.015126  d :     0.052389
      dxz     :     0.009884
      dyz     :     0.005697
      dx2y2   :     0.009732
      dxy     :     0.011949

  1 P s       :     4.919580  s :     4.919580
      pz      :     2.793598  p :     8.532406
      px      :     2.866340
      py      :     2.872468
      dz2     :     0.153532  d :     0.719818
      dxz     :     0.187624
      dyz     :     0.190781
      dx2y2   :     0.078677
      dxy     :     0.109204

  2 O s       :     3.655738  s :     3.655738
      pz      :     1.498239  p :     4.838898
      px      :     1.663380
      py      :     1.677280
      dz2     :     0.009361  d :     0.018930
      dxz     :     0.005126
      dyz     :     0.003761
      dx2y2   :     0.000364
      dxy     :     0.000318

  3 C s       :     2.891520  s :     2.891520
      pz      :     1.079161  p :     3.281248
      px      :     1.104884
      py      :     1.097203
      dz2     :     0.015440  d :     0.052388
      dxz     :     0.009216
      dyz     :     0.005660
      dx2y2   :     0.010587
      dxy     :     0.011485

  4 C s       :     2.891521  s :     2.891521
      pz      :     1.082834  p :     3.281229
      px      :     1.091153
      py      :     1.107241
      dz2     :     0.014775  d :     0.052390
      dxz     :     0.008716
      dyz     :     0.007230
      dx2y2   :     0.008126
      dxy     :     0.013543

  5 H s       :     0.885279  s :     0.885279
      pz      :     0.013650  p :     0.070329
      px      :     0.035786
      py      :     0.020893

  6 H s       :     0.896787  s :     0.896787
      pz      :     0.040766  p :     0.071734
      px      :     0.016869
      py      :     0.014099

  7 H s       :     0.885276  s :     0.885276
      pz      :     0.015893  p :     0.070329
      px      :     0.015942
      py      :     0.038494

  8 H s       :     0.896782  s :     0.896782
      pz      :     0.038996  p :     0.071735
      px      :     0.018177
      py      :     0.014561

  9 H s       :     0.885271  s :     0.885271
      pz      :     0.015606  p :     0.070330
      px      :     0.015275
      py      :     0.039449

 10 H s       :     0.885275  s :     0.885275
      pz      :     0.020265  p :     0.070329
      px      :     0.032489
      py      :     0.017576

 11 H s       :     0.885278  s :     0.885278
      pz      :     0.013166  p :     0.070329
      px      :     0.031128
      py      :     0.026035

 12 H s       :     0.896787  s :     0.896787
      pz      :     0.039808  p :     0.071735
      px      :     0.015667
      py      :     0.016260

 13 H s       :     0.885277  s :     0.885277
      pz      :     0.020069  p :     0.070329
      px      :     0.028499
      py      :     0.021761



                      *****************************
                      * MAYER POPULATION ANALYSIS *
                      *****************************

  NA   - Mulliken gross atomic population
  ZA   - Total nuclear charge
  QA   - Mulliken gross atomic charge
  VA   - Mayer's total valence
  BVA  - Mayer's bonded valence
  FA   - Mayer's free valence

  ATOM       NA         ZA         QA         VA         BVA        FA
  0 C      6.1538     6.0000    -0.1538     3.8322     3.8322    -0.0000
  1 P     14.6229    15.0000     0.3771     5.0831     5.0831    -0.0000
  2 O      8.4714     8.0000    -0.4714     2.0996     2.0996    -0.0000
  3 C      6.1539     6.0000    -0.1539     3.8322     3.8322    -0.0000
  4 C      6.1539     6.0000    -0.1539     3.8322     3.8322    -0.0000
  5 H      0.9277     1.0000     0.0723     0.9997     0.9997    -0.0000
  6 H      0.9594     1.0000     0.0406     0.9922     0.9922    -0.0000
  7 H      0.9276     1.0000     0.0724     0.9997     0.9997    -0.0000
  8 H      0.9594     1.0000     0.0406     0.9922     0.9922    -0.0000
  9 H      0.9276     1.0000     0.0724     0.9997     0.9997    -0.0000
 10 H      0.9276     1.0000     0.0724     0.9997     0.9997    -0.0000
 11 H      0.9276     1.0000     0.0724     0.9997     0.9997    -0.0000
 12 H      0.9594     1.0000     0.0406     0.9922     0.9922    -0.0000
 13 H      0.9276     1.0000     0.0724     0.9997     0.9997    -0.0000

  Mayer bond orders larger than 0.100000
B(  0-C ,  1-P ) :   0.9668 B(  0-C ,  5-H ) :   0.9535 B(  0-C ,  6-H ) :   0.9349 
B(  0-C ,  7-H ) :   0.9535 B(  1-P ,  2-O ) :   1.9575 B(  1-P ,  3-C ) :   0.9668 
B(  1-P ,  4-C ) :   0.9667 B(  3-C ,  8-H ) :   0.9350 B(  3-C ,  9-H ) :   0.9535 
B(  3-C , 10-H ) :   0.9535 B(  4-C , 11-H ) :   0.9535 B(  4-C , 12-H ) :   0.9350 
B(  4-C , 13-H ) :   0.9535 

-------
TIMINGS
-------

Total SCF time: 0 days 0 hours 0 min 1 sec 

Total time                  ....       1.886 sec
Sum of individual times     ....       1.853 sec  ( 98.3%)

SCF preparation             ....       0.064 sec  (  3.4%)
Fock matrix formation       ....       1.563 sec  ( 82.9%)
  Startup                   ....       0.029 sec  (  1.9% of F)
  Split-RI-J                ....       0.374 sec  ( 23.9% of F)
  XC integration            ....       1.057 sec  ( 67.6% of F)
    Basis function eval.    ....       0.266 sec  ( 25.2% of XC)
    Density eval.           ....       0.197 sec  ( 18.6% of XC)
    XC-Functional eval.     ....       0.051 sec  (  4.8% of XC)
    XC-Potential eval.      ....       0.215 sec  ( 20.3% of XC)
Diagonalization             ....       0.000 sec  (  0.0%)
Density matrix formation    ....       0.051 sec  (  2.7%)
Total Energy calculation    ....       0.020 sec  (  1.1%)
Population analysis         ....       0.021 sec  (  1.1%)
Orbital Transformation      ....       0.014 sec  (  0.7%)
Orbital Orthonormalization  ....       0.000 sec  (  0.0%)
DIIS solution               ....       0.078 sec  (  4.1%)
SOSCF solution              ....       0.042 sec  (  2.2%)
Finished LeanSCF after   1.9 sec

Maximum memory used throughout the entire LEANSCF-calculation: 11.7 MB


-------------------------------------------------------------------------------
                          DFT DISPERSION CORRECTION                            
                                                                               
                              DFTD3 V3.1  Rev 1                                
                          USING Becke-Johnson damping                          
-------------------------------------------------------------------------------
The BP86 functional is recognized
Active option DFTDOPT                   ...         4   

molecular C6(AA) [au] = 1958.459062 


            DFT-D V3
 parameters
 s6 scaling factor         :     1.0000 
 a1 scaling factor         :     0.3946 
 s8 scaling factor         :     3.2822 
 a2 scaling factor         :     4.8516 
 ad hoc parameters k1-k3   :    16.0000     1.3333    -4.0000 

 Edisp/kcal,au: -11.995386408786  -0.019115862987 
 E6   /kcal   :  -4.425264225 
 E8   /kcal   :  -7.570122183 
 % E8         :  63.108614642 

-------------------------   ----------------
Dispersion correction           -0.019115863
-------------------------   ----------------


-------------------------   --------------------
FINAL SINGLE POINT ENERGY      -536.141303877944
-------------------------   --------------------



           ************************************************************
           *        Program running with 6 parallel MPI-processes     *
           *              working on a common directory               *
           ************************************************************
------------------------------------------------------------------------------
                         ORCA SCF GRADIENT CALCULATION
------------------------------------------------------------------------------

Nuc. rep. gradient        (SHARK) ... done (  0.0 sec)
HCore & Overlap gradient  (SHARK) ... done (  0.0 sec)
Split-RIJ-J gradient      (SHARK) ... done (  0.1 sec)
XC gradient                       ... done (  0.6 sec)
Dispersion correction             ... done (  0.1 sec)

-------------------
DISPERSION GRADIENT
-------------------

   1   C   :    0.000366447   -0.000183423   -0.000135673
   2   P   :    0.000029145    0.000004425    0.000103499
   3   O   :    0.000126778    0.000019247    0.000450208
   4   C   :   -0.000346920   -0.000247715    0.000067960
   5   C   :   -0.000051036    0.000426355   -0.000044179
   6   H   :    0.000231184   -0.000066658   -0.000073371
   7   H   :    0.000169397   -0.000104339   -0.000180222
   8   H   :    0.000197354   -0.000143728   -0.000060549
   9   H   :   -0.000218703   -0.000139316   -0.000069438
  10   H   :   -0.000172843   -0.000177092    0.000045124
  11   H   :   -0.000220576   -0.000107373    0.000055585
  12   H   :    0.000014534    0.000249782   -0.000025891
  13   H   :   -0.000057731    0.000227404   -0.000130446
  14   H   :   -0.000067029    0.000242431   -0.000002608

Difference to translation invariance:
           :   -0.0000000000    0.0000000000    0.0000000000

Difference to rotation invariance:
           :    0.0000000000    0.0000000000    0.0000000000

Norm of the Dispersion gradient    ...    0.0011770877
RMS gradient                       ...    0.0001816286
MAX gradient                       ...    0.0004502076

------------------
CARTESIAN GRADIENT
------------------

   1   C   :   -0.006123464    0.005160807    0.014868065
   2   P   :   -0.007138377   -0.001075131   -0.025466587
   3   O   :   -0.004945121   -0.000766715   -0.017547176
   4   C   :    0.012029350    0.006778143    0.009687659
   5   C   :    0.004498964   -0.010339172    0.012530779
   6   H   :   -0.007148353   -0.005457167   -0.002515508
   7   H   :    0.001703142    0.001102262    0.011129683
   8   H   :   -0.001247688    0.007937596   -0.004746834
   9   H   :    0.004213146    0.001327875    0.010422420
  10   H   :   -0.002736670    0.007815267   -0.004322444
  11   H   :    0.005556890   -0.004313717   -0.006146330
  12   H   :   -0.008016314   -0.004197224   -0.002321570
  13   H   :    0.003178799   -0.001055603    0.010795368
  14   H   :    0.006175697   -0.002917219   -0.006367526

Difference to translation invariance:
           :    0.0000000000   -0.0000000000   -0.0000000000

Difference to rotation invariance:
           :    0.0000116912    0.0000819843    0.0000663312

Norm of the Cartesian gradient     ...    0.0528641585
RMS gradient                       ...    0.0081571168
MAX gradient                       ...    0.0254665866

-------
TIMINGS
-------

Total SCF gradient time     ....        0.820 sec

One electron gradient       ....       0.032 sec  (  3.9%)
RI-J Coulomb gradient       ....       0.108 sec  ( 13.2%)
XC gradient                 ....       0.620 sec  ( 75.6%)

Maximum memory used throughout the entire SCFGRAD-calculation: 27.4 MB
------------------------------------------------------------------------------
                         ORCA GEOMETRY RELAXATION STEP
------------------------------------------------------------------------------

Reading the OPT-File                    .... done
Getting information on internals        .... done
Copying old internal coords+grads       .... done
Making the new internal coordinates     .... (2022 redundants) done
Validating the new internal coordinates .... (2022 redundants) done
Calculating the B-matrix                .... done
Calculating the G,G- and P matrices     .... done
Transforming gradient to internals      .... done
Projecting the internal gradient        .... done
Number of atoms                         ....  14
Number of internal coordinates          ....  55
Current Energy                          ....  -536.141303878 Eh
Current gradient norm                   ....     0.052864159 Eh/bohr
Maximum allowed component of the step   ....  0.300
Current trust radius                    ....  0.300
Evaluating the initial hessian          ....  (Almloef) done
Projecting the Hessian                  .... done
Forming the augmented Hessian           .... done
Diagonalizing the augmented Hessian     .... done
Last element of RFO vector              ....  0.991586064
Lowest eigenvalues of augmented Hessian:
 -0.006814773  0.005201845  0.005201852  0.005201863  0.103928177
Length of the computed step             ....  0.130547554
The final length of the internal step   ....  0.130547554
Converting the step to Cartesian space:
 Initial RMS(Int)=    0.0176030285
Transforming coordinates:
 Iter   0:  RMS(Cart)=    0.0262212378 RMS(Int)=    0.8466767971
done
Storing new coordinates                 .... done

                                .--------------------.
          ----------------------|Geometry convergence|-------------------------
          Item                value                   Tolerance       Converged
          ---------------------------------------------------------------------
          RMS gradient        0.0075087116            0.0001000000      NO
          MAX gradient        0.0235190027            0.0003000000      NO
          RMS step            0.0176030285            0.0020000000      NO
          MAX step            0.0464347210            0.0040000000      NO
          ........................................................
          Max(Bonds)      0.0246      Max(Angles)    0.86
          Max(Dihed)        0.87      Max(Improp)    0.00
          ---------------------------------------------------------------------

The optimization has not yet converged - more geometry cycles are needed


    ---------------------------------------------------------------------------
                         Redundant Internal Coordinates
                            (Angstroem and degrees)

        Definition                    Value    dE/dq     Step     New-Value
    ----------------------------------------------------------------------------
     1. B(P   1,C   0)                1.7808 -0.023519  0.0246    1.8054   
     2. B(O   2,P   1)                1.5013 -0.018247  0.0077    1.5090   
     3. B(C   3,P   1)                1.7808 -0.023497  0.0245    1.8054   
     4. B(C   4,P   1)                1.7808 -0.023500  0.0246    1.8054   
     5. B(H   5,C   0)                1.0936 -0.009062  0.0132    1.1068   
     6. B(H   6,C   0)                1.0937 -0.011150  0.0163    1.1100   
     7. B(H   7,C   0)                1.0936 -0.009052  0.0132    1.1068   
     8. B(H   8,C   3)                1.0937 -0.011156  0.0163    1.1100   
     9. B(H   9,C   3)                1.0936 -0.009067  0.0132    1.1068   
    10. B(H  10,C   3)                1.0936 -0.009064  0.0132    1.1068   
    11. B(H  11,C   4)                1.0936 -0.009065  0.0132    1.1068   
    12. B(H  12,C   4)                1.0937 -0.011138  0.0163    1.1100   
    13. B(H  13,C   4)                1.0936 -0.009064  0.0132    1.1068   
    14. A(P   1,C   0,H   7)          110.53  0.003247   -0.60    109.93   
    15. A(H   5,C   0,H   6)          108.22 -0.000451    0.27    108.50   
    16. A(P   1,C   0,H   5)          110.53  0.003223   -0.60    109.93   
    17. A(H   6,C   0,H   7)          108.22 -0.000456    0.27    108.50   
    18. A(H   5,C   0,H   7)          108.34 -0.001199   -0.18    108.16   
    19. A(P   1,C   0,H   6)          110.91 -0.004447    0.85    111.75   
    20. A(O   2,P   1,C   3)          112.98 -0.001470    0.55    113.53   
    21. A(C   3,P   1,C   4)          105.75  0.003526   -0.64    105.11   
    22. A(O   2,P   1,C   4)          112.98 -0.003103    0.57    113.55   
    23. A(C   0,P   1,O   2)          112.98 -0.001674    0.56    113.54   
    24. A(C   0,P   1,C   4)          105.75  0.001416   -0.62    105.13   
    25. A(C   0,P   1,C   3)          105.75  0.002056   -0.63    105.11   
    26. A(H   8,C   3,H   9)          108.22 -0.000267    0.26    108.49   
    27. A(P   1,C   3,H   9)          110.53  0.004148   -0.61    109.92   
    28. A(P   1,C   3,H   8)          110.91 -0.005257    0.86    111.76   
    29. A(H   9,C   3,H  10)          108.34  0.000414   -0.21    108.13   
    30. A(H   8,C   3,H  10)          108.22 -0.002242    0.31    108.53   
    31. A(P   1,C   3,H  10)          110.53  0.003129   -0.60    109.93   
    32. A(H  12,C   4,H  13)          108.23 -0.002217    0.30    108.53   
    33. A(H  11,C   4,H  13)          108.34  0.000404   -0.21    108.14   
    34. A(P   1,C   4,H  13)          110.53  0.003125   -0.59    109.93   
    35. A(H  11,C   4,H  12)          108.23 -0.000262    0.26    108.49   
    36. A(P   1,C   4,H  12)          110.91 -0.005275    0.86    111.76   
    37. A(P   1,C   4,H  11)          110.53  0.004150   -0.61    109.92   
    38. D(C   3,P   1,C   0,H   6)     55.93  0.000724   -0.29     55.65   
    39. D(O   2,P   1,C   0,H   5)    -59.97 -0.002075    0.82    -59.15   
    40. D(C   3,P   1,C   0,H   7)    -64.10  0.002066   -0.79    -64.89   
    41. D(O   2,P   1,C   0,H   7)     59.97  0.000618   -0.19     59.78   
    42. D(O   2,P   1,C   0,H   6)    180.00 -0.000724    0.31    180.31   
    43. D(C   3,P   1,C   0,H   5)    175.97 -0.000627    0.22    176.18   
    44. D(H   8,C   3,P   1,C   0)    -55.93 -0.001309    0.36    -55.57   
    45. D(H   9,C   3,P   1,C   4)    175.97  0.001562   -0.37    175.60   
    46. D(H   9,C   3,P   1,O   2)    -59.97 -0.000774    0.25    -59.72   
    47. D(H   9,C   3,P   1,C   0)     64.10 -0.002351    0.85     64.95   
    48. D(H   8,C   3,P   1,C   4)     55.93  0.002603   -0.86     55.08   
    49. D(H   8,C   3,P   1,O   2)    180.00  0.000268   -0.24    179.76   
    50. D(H  11,C   4,P   1,C   3)   -175.97 -0.001369    0.37   -175.60   
    51. D(H  11,C   4,P   1,O   2)     59.97 -0.000058   -0.23     59.73   
    52. D(H  11,C   4,P   1,C   0)    -64.10  0.002993   -0.87    -64.97   
    53. D(H  12,C   4,P   1,C   3)    -55.93 -0.002414    0.86    -55.07   
    54. D(H  12,C   4,P   1,O   2)   -180.00 -0.001103    0.26   -179.74   
    55. D(H  12,C   4,P   1,C   0)     55.93  0.001948   -0.37     55.56   
    ----------------------------------------------------------------------------

Geometry step timings:
Preparation and reading OPT file:      0.000 s ( 0.000 %)
Internal coordinates            :      0.000 s ( 0.000 %)
B/P matrices and projection     :      0.001 s (33.333 %)
Hessian update/contruction      :      0.001 s (33.333 %)
Making the step                 :      0.000 s ( 0.000 %)
Converting the step to Cartesian:      0.000 s ( 0.000 %)
Storing new data                :      0.001 s (33.333 %)
Checking convergence            :      0.000 s ( 0.000 %)
Final printing                  :      0.000 s ( 0.000 %)
Total time                      :      0.003 s

Time for energy+gradient        :      4.022 s
Time for complete geometry iter :      4.144 s

         *************************************************************
         *                GEOMETRY OPTIMIZATION CYCLE   2            *
         *************************************************************
---------------------------------
CARTESIAN COORDINATES (ANGSTROEM)
---------------------------------
  C      1.420141   -0.704672   -0.440646
  P      0.163633    0.025437    0.630613
  O      0.571548    0.088367    2.082020
  C     -1.326341   -0.952431    0.342282
  C     -0.188226    1.642667   -0.090609
  H      2.356736   -0.118296   -0.377455
  H      1.092076   -0.731216   -1.500737
  H      1.638627   -1.739560   -0.114640
  H     -1.601795   -0.975479   -0.732769
  H     -1.167266   -1.992342    0.686283
  H     -2.173449   -0.526551    0.913317
  H      0.709507    2.286991   -0.027586
  H     -0.489239    1.561520   -1.155920
  H     -1.005950    2.135564    0.469236

----------------------------
CARTESIAN COORDINATES (A.U.)
----------------------------
  NO LB      ZA    FRAG     MASS         X           Y           Z
   0 C     6.0000    0    12.011    2.683677   -1.331638   -0.832700
   1 P    15.0000    0    30.974    0.309222    0.048069    1.191685
   2 O     8.0000    0    15.999    1.080069    0.166989    3.934447
   3 C     6.0000    0    12.011   -2.506422   -1.799834    0.646820
   4 C     6.0000    0    12.011   -0.355695    3.104190   -0.171227
   5 H     1.0000    0     1.008    4.453585   -0.223546   -0.713287
   6 H     1.0000    0     1.008    2.063724   -1.381798   -2.835982
   7 H     1.0000    0     1.008    3.096556   -3.287292   -0.216638
   8 H     1.0000    0     1.008   -3.026954   -1.843388   -1.384734
   9 H     1.0000    0     1.008   -2.205814   -3.764980    1.296887
  10 H     1.0000    0     1.008   -4.107223   -0.995037    1.725920
  11 H     1.0000    0     1.008    1.340775    4.321787   -0.052131
  12 H     1.0000    0     1.008   -0.924529    2.950845   -2.184372
  13 H     1.0000    0     1.008   -1.900971    4.035631    0.886728

--------------------------------
INTERNAL COORDINATES (ANGSTROEM)
--------------------------------
 C      0   0   0     0.000000000000     0.00000000     0.00000000
 P      1   0   0     1.805399118906     0.00000000     0.00000000
 O      2   1   0     1.508952371945   113.54433854     0.00000000
 C      2   1   3     1.805376598610   105.10441128   235.33620207
 C      2   1   3     1.805380250964   105.12105233   124.69702695
 H      1   2   3     1.106815407633   109.92636017   300.84583586
 H      1   2   3     1.110011105075   111.75594015   180.31165622
 H      1   2   3     1.106800942638   109.92200655    59.78089222
 H      4   2   1     1.110019067083   111.76012975   304.42955160
 H      4   2   1     1.106822384997   109.91631811    64.95018467
 H      4   2   1     1.106818066693   109.92782460   183.85760253
 H      5   2   1     1.106820263355   109.91629313   295.03956036
 H      5   2   1     1.109991213585   111.76312029    55.56185584
 H      5   2   1     1.106818904927   109.92812267   176.12980925

---------------------------
INTERNAL COORDINATES (A.U.)
---------------------------
 C      0   0   0     0.000000000000     0.00000000     0.00000000
 P      1   0   0     3.411709897156     0.00000000     0.00000000
 O      2   1   0     2.851506732107   113.54433854     0.00000000
 C      2   1   3     3.411667339963   105.10441128   235.33620207
 C      2   1   3     3.411674241911   105.12105233   124.69702695
 H      1   2   3     2.091578001230   109.92636017   300.84583586
 H      1   2   3     2.097616994203   111.75594015   180.31165622
 H      1   2   3     2.091550666352   109.92200655    59.78089222
 H      4   2   1     2.097632040219   111.76012975   304.42955160
 H      4   2   1     2.091591186538   109.91631811    64.95018467
 H      4   2   1     2.091583026127   109.92782460   183.85760253
 H      5   2   1     2.091587177216   109.91629313   295.03956036
 H      5   2   1     2.097579404735   111.76312029    55.56185584
 H      5   2   1     2.091584610159   109.92812267   176.12980925



           ************************************************************
           *        Program running with 6 parallel MPI-processes     *
           *              working on a common directory               *
           ************************************************************
------------------------------------------------------------------------------
                   ___                                                        
                  /   \      - P O W E R E D   B Y -                         
                 /     \                                                     
                 |  |  |   _    _      __       _____    __    __             
                 |  |  |  | |  | |    /  \     |  _  \  |  |  /  |          
                  \  \/   | |  | |   /    \    | | | |  |  | /  /          
                 / \  \   | |__| |  /  /\  \   | |_| |  |  |/  /          
                |  |  |   |  __  | /  /__\  \  |    /   |      \           
                |  |  |   | |  | | |   __   |  |    \   |  |\   \          
                \     /   | |  | | |  |  |  |  | |\  \  |  | \   \       
                 \___/    |_|  |_| |__|  |__|  |_| \__\ |__|  \__/        
                                                                              
                      - O R C A' S   B I G   F R I E N D -                    
                                      &                                       
                       - I N T E G R A L  F E E D E R -                       
                                                                              
 v1 FN, 2020, v2 2021, v3 2022-2024                                           
------------------------------------------------------------------------------


----------------------
SHARK INTEGRAL PACKAGE
----------------------

Number of atoms                             ...     14
Number of basis functions                   ...    119
Number of shells                            ...     59
Maximum angular momentum                    ...      2
Integral batch strategy                     ... SHARK/LIBINT Hybrid
RI-J (if used) integral strategy            ... SPLIT-RIJ (Revised 2003 algorithm where possible)
Printlevel                                  ...      1
Contraction scheme used                     ... SEGMENTED contraction
Prescreening option                         ... SCHWARTZ
   Thresh                                   ... 2.500e-11
   Tcut                                     ... 2.500e-12
   Tpresel                                  ... 2.500e-12 
Coulomb Range Separation                    ... NOT USED
Exchange Range Separation                   ... NOT USED
Multipole approximations                    ... NOT USED
Finite Nucleus Model                        ... NOT USED
CABS basis                                  ... NOT available
Auxiliary Coulomb fitting basis             ... AVAILABLE
   # of basis functions in Aux-J            ...    346
   # of shells in Aux-J                     ...    122
   Maximum angular momentum in Aux-J        ...      4
Auxiliary J/K fitting basis                 ... NOT available
Auxiliary Correlation fitting basis         ... NOT available
Auxiliary 'external' fitting basis          ... NOT available

Checking pre-screening integrals            ... done (  0.0 sec) Dimension = 59
Check shell pair data                       ... done (  0.0 sec)
Shell pair information
Shell pair cut-off parameter TPreSel        ...   2.5e-12
Total number of shell pairs                 ...      1770
Shell pairs after pre-screening             ...      1748
Total number of primitive shell pairs       ...      6318
Primitive shell pairs kept                  ...      4816
          la=0 lb=0:    585 shell pairs
          la=1 lb=0:    671 shell pairs
          la=1 lb=1:    207 shell pairs
          la=2 lb=0:    170 shell pairs
          la=2 lb=1:    100 shell pairs
          la=2 lb=2:     15 shell pairs

Calculating one electron integrals          ... done (  0.0 sec)
Calculating RI/J V-Matrix + Cholesky decomp.... done (  0.0 sec)
Calculating Nuclear repulsion               ... done (  0.0 sec) ENN=    259.507181041268 Eh

Diagonalization of the overlap matrix:
Smallest eigenvalue                        ... 2.827e-03
Time for diagonalization                   ...    0.002 sec
Threshold for overlap eigenvalues          ... 1.000e-07
Number of eigenvalues below threshold      ... 0
Time for construction of square roots      ...    0.001 sec
Total time needed                          ...    0.003 sec

-------------------
DFT GRID GENERATION
-------------------

General Integration Accuracy     IntAcc      ... 4.388
Radial Grid Type                 RadialGrid  ... OptM3 with GC (2021)
Angular Grid (max. ang.)         AngularGrid ... 4 (Lebedev-302)
Angular grid pruning method      GridPruning ... 4 (adaptive)
Weight generation scheme         WeightScheme... mBecke (2022)
Basis function cutoff            BFCut       ... 1.0000e-11
Integration weight cutoff        WCut        ... 1.0000e-14
Partially contracted basis set               ... off
Rotationally invariant grid construction     ... off
Angular grids for H and He will be reduced by one unit

Total number of grid points                  ...    60566
Total number of batches                      ...      954
Average number of points per batch           ...       63
Average number of grid points per atom       ...     4326
Initializing property integral containers    ... done (  0.0 sec)

SHARK setup successfully completed in   0.3 seconds

Maximum memory used throughout the entire STARTUP-calculation: 17.9 MB


           ************************************************************
           *        Program running with 6 parallel MPI-processes     *
           *              working on a common directory               *
           ************************************************************
Occupation numbers will be reassigned to an Aufbau configuration
             **** ENERGY FILE WAS UPDATED (data/geom_opt_PO_BP86/68983/68983.en.tmp) ****
Finished Guess after   0.1 sec
Maximum memory used throughout the entire GUESS-calculation: 7.6 MB


           ************************************************************
           *        Program running with 6 parallel MPI-processes     *
           *              working on a common directory               *
           ************************************************************
----------------------------------------D-I-I-S--------------------------------------------
Iteration    Energy (Eh)           Delta-E    RMSDP     MaxDP     DIISErr   Damp  Time(sec)
-------------------------------------------------------------------------------------------
               ***  Starting incremental Fock matrix formation  ***
    1    -536.1262909122353904     0.00e+00  3.32e-04  8.59e-03  6.23e-03  0.700   0.1
    2    -536.1265063073687998    -2.15e-04  2.99e-04  8.16e-03  3.68e-03  0.700   0.1
                               ***Turning on AO-DIIS***
                              *** Initializing SOSCF ***
---------------------------------------S-O-S-C-F--------------------------------------
Iteration    Energy (Eh)           Delta-E    RMSDP     MaxDP     MaxGrad    Time(sec)
--------------------------------------------------------------------------------------
    3    -536.1266418265440734    -1.36e-04  7.03e-04  2.03e-02  2.26e-03     0.1
               *** Restarting incremental Fock matrix formation ***
    4    -536.1269404603517614    -2.99e-04  3.18e-04  4.99e-03  1.03e-03     0.1
    5    -536.1268766637780345     6.38e-05  2.35e-04  3.65e-03  2.63e-03     0.2
    6    -536.1269510803275580    -7.44e-05  1.99e-05  2.99e-04  6.24e-05     0.1
    7    -536.1269510162912866     6.40e-08  9.86e-06  1.55e-04  8.25e-05     0.1
    8    -536.1269511999396400    -1.84e-07  2.02e-06  3.34e-05  1.09e-05     0.1
    9    -536.1269511985444751     1.40e-09  8.62e-07  1.22e-05  6.16e-06     0.1
                 **** Energy Check signals convergence ****

               *****************************************************
               *                     SUCCESS                       *
               *           SCF CONVERGED AFTER   9 CYCLES          *
               *****************************************************

             **** ENERGY FILE WAS UPDATED (data/geom_opt_PO_BP86/68983/68983.en.tmp) ****

----------------
TOTAL SCF ENERGY
----------------

Total Energy       :       -536.12695119854448 Eh          -14588.75602 eV

Components:
Nuclear Repulsion  :        259.50718104126827 Eh            7061.54940 eV
Electronic Energy  :       -795.63413223981274 Eh          -21650.30542 eV
One Electron Energy:      -1250.65517057000966 Eh          -34032.05735 eV
Two Electron Energy:        455.02103833019697 Eh           12381.75193 eV

Virial components:
Potential Energy   :      -1068.90627191110525 Eh          -29086.41838 eV
Kinetic Energy     :        532.77932071256066 Eh           14497.66236 eV
Virial Ratio       :          2.00628333412323

DFT components:
N(Alpha)           :       24.999986612067 electrons
N(Beta)            :       24.999986612067 electrons
N(Total)           :       49.999973224135 electrons
E(X)               :      -49.638980049881 Eh       
E(C)               :       -1.901400054867 Eh       
E(XC)              :      -51.540380104748 Eh       

---------------
SCF CONVERGENCE
---------------

  Last Energy change         ...   -1.3952e-09  Tolerance :   1.0000e-08
  Last MAX-Density change    ...    1.2228e-05  Tolerance :   1.0000e-07
  Last RMS-Density change    ...    8.6157e-07  Tolerance :   5.0000e-09
  Last DIIS Error            ...    2.2600e-03  Tolerance :   5.0000e-07
[...]
-----------------------
   0 C :   -0.191153
   1 P :    0.421494
   2 O :   -0.466780
   3 C :   -0.191240
   4 C :   -0.191160
   5 H :    0.076838
   6 H :    0.052604
   7 H :    0.076805
   8 H :    0.052648
   9 H :    0.076862
  10 H :    0.076826
  11 H :    0.076838
  12 H :    0.052592
  13 H :    0.076826
Sum of atomic charges:   -0.0000000

--------------------------------
MULLIKEN REDUCED ORBITAL CHARGES
--------------------------------
  0 C s       :     3.089214  s :     3.089214
      pz      :     1.005241  p :     3.084193
      px      :     1.032093
      py      :     1.046859
      dz2     :     0.005064  d :     0.017746
      dxz     :     0.003173
      dyz     :     0.002258
      dx2y2   :     0.003253
      dxy     :     0.003998

  1 P s       :     5.336482  s :     5.336482
      pz      :     2.848234  p :     8.763975
      px      :     2.953427
      py      :     2.962314
      dz2     :     0.099403  d :     0.478050
      dxz     :     0.127075
      dyz     :     0.132064
      dx2y2   :     0.051049
      dxy     :     0.068459

  2 O s       :     3.829701  s :     3.829701
      pz      :     1.348240  p :     4.625056
      px      :     1.626669
      py      :     1.650147
      dz2     :     0.004714  d :     0.012022
      dxz     :     0.003545
      dyz     :     0.003211
      dx2y2   :     0.000286
      dxy     :     0.000266

  3 C s       :     3.089246  s :     3.089246
      pz      :     1.003607  p :     3.084248
      px      :     1.036372
      py      :     1.044270
      dz2     :     0.004866  d :     0.017746
      dxz     :     0.003395
      dyz     :     0.002311
      dx2y2   :     0.003498
      dxy     :     0.003677

  4 C s       :     3.089220  s :     3.089220
      pz      :     1.005509  p :     3.084194
      px      :     1.046478
      py      :     1.032208
      dz2     :     0.004823  d :     0.017746
      dxz     :     0.003289
      dyz     :     0.002524
      dx2y2   :     0.002543
      dxy     :     0.004567

  5 H s       :     0.900179  s :     0.900179
      pz      :     0.005131  p :     0.022983
      px      :     0.010623
      py      :     0.007229

  6 H s       :     0.924650  s :     0.924650
      pz      :     0.012166  p :     0.022746
      px      :     0.005605
      py      :     0.004975

  7 H s       :     0.900210  s :     0.900210
      pz      :     0.005878  p :     0.022984
      px      :     0.005330
      py      :     0.011776

  8 H s       :     0.924606  s :     0.924606
      pz      :     0.012277  p :     0.022746
      px      :     0.005493
      py      :     0.004976

  9 H s       :     0.900156  s :     0.900156
      pz      :     0.005968  p :     0.022983
      px      :     0.005174
      py      :     0.011840

 10 H s       :     0.900191  s :     0.900191
      pz      :     0.007311  p :     0.022983
      px      :     0.009486
      py      :     0.006186

 11 H s       :     0.900179  s :     0.900179
      pz      :     0.005143  p :     0.022983
      px      :     0.010210
      py      :     0.007631

 12 H s       :     0.924661  s :     0.924661
      pz      :     0.012212  p :     0.022747
      px      :     0.005536
      py      :     0.004999

 13 H s       :     0.900190  s :     0.900190
      pz      :     0.007242  p :     0.022984
      px      :     0.009227
      py      :     0.006514



                     *******************************
                     * LOEWDIN POPULATION ANALYSIS *
                     *******************************

----------------------
LOEWDIN ATOMIC CHARGES
----------------------
   0 C :   -0.235533
   1 P :    0.845168
   2 O :   -0.506014
   3 C :   -0.235534
   4 C :   -0.235528
   5 H :    0.043999
   6 H :    0.034478
   7 H :    0.043987
   8 H :    0.034496
   9 H :    0.044009
  10 H :    0.043997
  11 H :    0.044000
  12 H :    0.034476
  13 H :    0.043998

-------------------------------
LOEWDIN REDUCED ORBITAL CHARGES
-------------------------------
  0 C s       :     2.914338  s :     2.914338
      pz      :     1.081170  p :     3.272119
      px      :     1.098324
      py      :     1.092624
      dz2     :     0.014031  d :     0.049077
      dxz     :     0.009084
      dyz     :     0.005929
      dx2y2   :     0.008859
      dxy     :     0.011174

  1 P s       :     4.964056  s :     4.964056
      pz      :     2.788006  p :     8.527687
      px      :     2.866534
      py      :     2.873147
      dz2     :     0.141636  d :     0.663089
      dxz     :     0.176622
      dyz     :     0.180766
      dx2y2   :     0.067665
      dxy     :     0.096399

  2 O s       :     3.668330  s :     3.668330
      pz      :     1.485441  p :     4.819081
      px      :     1.659480
      py      :     1.674160
      dz2     :     0.009223  d :     0.018602
      dxz     :     0.005037
      dyz     :     0.003683
      dx2y2   :     0.000350
      dxy     :     0.000309

  3 C s       :     2.914333  s :     2.914333
      pz      :     1.077257  p :     3.272123
      px      :     1.099955
      py      :     1.094910
      dz2     :     0.013871  d :     0.049078
      dxz     :     0.009093
      dyz     :     0.005962
      dx2y2   :     0.009484
      dxy     :     0.010667

  4 C s       :     2.914335  s :     2.914335
      pz      :     1.078595  p :     3.272115
      px      :     1.089272
      py      :     1.104248
      dz2     :     0.013533  d :     0.049079
      dxz     :     0.008777
      dyz     :     0.006913
      dx2y2   :     0.007368
      dxy     :     0.012488

  5 H s       :     0.887851  s :     0.887851
      pz      :     0.012637  p :     0.068150
      px      :     0.035082
      py      :     0.020431

  6 H s       :     0.896866  s :     0.896866
      pz      :     0.040109  p :     0.068655
      px      :     0.015637
      py      :     0.012909

  7 H s       :     0.887862  s :     0.887862
      pz      :     0.015300  p :     0.068151
      px      :     0.015236
      py      :     0.037614

  8 H s       :     0.896849  s :     0.896849
      pz      :     0.038551  p :     0.068655
      px      :     0.016784
      py      :     0.013319

  9 H s       :     0.887841  s :     0.887841
      pz      :     0.015047  p :     0.068149
      px      :     0.014653
      py      :     0.038449

 10 H s       :     0.887856  s :     0.887856
      pz      :     0.019984  p :     0.068147
      px      :     0.031072
      py      :     0.017092

 11 H s       :     0.887852  s :     0.887852
      pz      :     0.012198  p :     0.068148
      px      :     0.030917
      py      :     0.025033

 12 H s       :     0.896868  s :     0.896868
      pz      :     0.039251  p :     0.068655
      px      :     0.014588
      py      :     0.014817

 13 H s       :     0.887854  s :     0.887854
      pz      :     0.019834  p :     0.068149
      px      :     0.027489
      py      :     0.020825



                      *****************************
                      * MAYER POPULATION ANALYSIS *
                      *****************************

  NA   - Mulliken gross atomic population
  ZA   - Total nuclear charge
  QA   - Mulliken gross atomic charge
  VA   - Mayer's total valence
  BVA  - Mayer's bonded valence
  FA   - Mayer's free valence

  ATOM       NA         ZA         QA         VA         BVA        FA
  0 C      6.1912     6.0000    -0.1912     3.8408     3.8408    -0.0000
  1 P     14.5785    15.0000     0.4215     4.9279     4.9279    -0.0000
  2 O      8.4668     8.0000    -0.4668     2.1013     2.1013    -0.0000
  3 C      6.1912     6.0000    -0.1912     3.8408     3.8408    -0.0000
  4 C      6.1912     6.0000    -0.1912     3.8408     3.8408    -0.0000
  5 H      0.9232     1.0000     0.0768     0.9950     0.9950    -0.0000
  6 H      0.9474     1.0000     0.0526     0.9895     0.9895    -0.0000
  7 H      0.9232     1.0000     0.0768     0.9950     0.9950     0.0000
  8 H      0.9474     1.0000     0.0526     0.9895     0.9895    -0.0000
  9 H      0.9231     1.0000     0.0769     0.9950     0.9950    -0.0000
 10 H      0.9232     1.0000     0.0768     0.9950     0.9950    -0.0000
 11 H      0.9232     1.0000     0.0768     0.9950     0.9950    -0.0000
 12 H      0.9474     1.0000     0.0526     0.9895     0.9895    -0.0000
 13 H      0.9232     1.0000     0.0768     0.9950     0.9950    -0.0000

  Mayer bond orders larger than 0.100000
B(  0-C ,  1-P ) :   0.9384 B(  0-C ,  5-H ) :   0.9559 B(  0-C ,  6-H ) :   0.9422 
B(  0-C ,  7-H ) :   0.9559 B(  1-P ,  2-O ) :   1.9271 B(  1-P ,  3-C ) :   0.9383 
B(  1-P ,  4-C ) :   0.9383 B(  3-C ,  8-H ) :   0.9422 B(  3-C ,  9-H ) :   0.9559 
B(  3-C , 10-H ) :   0.9559 B(  4-C , 11-H ) :   0.9559 B(  4-C , 12-H ) :   0.9422 
B(  4-C , 13-H ) :   0.9559 

-------
TIMINGS
-------

Total SCF time: 0 days 0 hours 0 min 0 sec 

Total time                  ....       0.707 sec
Sum of individual times     ....       0.676 sec  ( 95.6%)

SCF preparation             ....       0.072 sec  ( 10.2%)
Fock matrix formation       ....       0.501 sec  ( 70.9%)
  Startup                   ....       0.010 sec  (  2.0% of F)
  Split-RI-J                ....       0.120 sec  ( 24.0% of F)
  XC integration            ....       0.339 sec  ( 67.7% of F)
    Basis function eval.    ....       0.089 sec  ( 26.3% of XC)
    Density eval.           ....       0.059 sec  ( 17.4% of XC)
    XC-Functional eval.     ....       0.016 sec  (  4.7% of XC)
    XC-Potential eval.      ....       0.074 sec  ( 21.8% of XC)
Diagonalization             ....       0.000 sec  (  0.0%)
Density matrix formation    ....       0.015 sec  (  2.1%)
Total Energy calculation    ....       0.009 sec  (  1.3%)
Population analysis         ....       0.034 sec  (  4.8%)
Orbital Transformation      ....       0.007 sec  (  1.0%)
Orbital Orthonormalization  ....       0.000 sec  (  0.0%)
DIIS solution               ....       0.010 sec  (  1.4%)
SOSCF solution              ....       0.028 sec  (  4.0%)
Finished LeanSCF after   0.7 sec

Maximum memory used throughout the entire LEANSCF-calculation: 12.2 MB


-------------------------------------------------------------------------------
                          DFT DISPERSION CORRECTION                            
                                                                               
                              DFTD3 V3.1  Rev 1                                
                          USING Becke-Johnson damping                          
-------------------------------------------------------------------------------
The BP86 functional is recognized
Active option DFTDOPT                   ...         4   

molecular C6(AA) [au] = 1959.868351 


            DFT-D V3
 parameters
 s6 scaling factor         :     1.0000 
 a1 scaling factor         :     0.3946 
 s8 scaling factor         :     3.2822 
 a2 scaling factor         :     4.8516 
 ad hoc parameters k1-k3   :    16.0000     1.3333    -4.0000 

 Edisp/kcal,au: -11.785098927104  -0.018780748590 
 E6   /kcal   :  -4.340455049 
 E8   /kcal   :  -7.444643878 
 % E8         :  63.169973575 

-------------------------   ----------------
Dispersion correction           -0.018780749
-------------------------   ----------------


-------------------------   --------------------
FINAL SINGLE POINT ENERGY      -536.147476682870
-------------------------   --------------------

                                *** OPTIMIZATION RUN DONE ***



           ************************************************************
           *        Program running with 6 parallel MPI-processes     *
           *              working on a common directory               *
           ************************************************************

------------------------------------------------------------------------------
                              ORCA PROPERTY CALCULATIONS
------------------------------------------------------------------------------

GBWName                                 ... data/geom_opt_PO_BP86/68983/68983.gbw
Number of atoms                         ...     14
Number of basis functions               ...    119
Max core memory                         ...   1024 MB

Electric properties:
Dipole moment                           ... YES
Quadrupole moment                       ...  NO
Static polarizability (Dipole/Dipole)   ...  NO
Static polarizability (Dipole/Quad.)    ...  NO
Static polarizability (Quad./Quad.)     ...  NO
Static polarizability (Velocity)        ...  NO

Atomic electric properties:
Dipole moment                           ...  NO
Quadrupole moment                       ...  NO
Static polarizability                   ...  NO

Choice of electric origin               ... Center of mass
Position of electric origin             ...     0.257703     0.039193     1.007190

General magnetic properties:
Magnetizability                         ...  NO

EPR properties:
g-Tensor (aka g-matrix)                 ...  NO
Zero-Field splitting spin-orbit         ...  NO
Zero-field splitting spin-spin          ...  NO
Hyperfine couplings                     ...  NO (   0 nuclei)
Quadrupole couplings                    ...  NO (   0 nuclei)
Contact density                         ...  NO (   0 nuclei)

NMR properties:
Chemical shifts                         ...  NO (   0 nuclei)
Spin-rotation constants                 ...  NO (   0 nuclei)
Spin-spin couplings                     ...  NO (   0 nuclei,    0 pairs)

Choice of magnetic origin               ... GIAO
Position of magnetic origin             ...     0.000000     0.000000     0.000000

Properties with geometric perturbations:
SCF Hessian                             ...  NO
IR spectrum                             ...  NO
VCD spectrum                            ...  NO
X-ray spectroscopy properties:
SCF XES/XAS/RIXS spectra                ...  NO


-------------
DIPOLE MOMENT
-------------

Method             : SCF
Type of density    : Electron Density
Multiplicity       :   1
Irrep              :   0
Energy             :  -536.1286959342801310 Eh
Relativity type    : 
Basis              : AO
                                X                 Y                 Z
Electronic contribution:      1.359292677       0.206639586       4.826699974
Nuclear contribution   :     -1.775159533      -0.269961967      -6.302468783
                        -----------------------------------------
Total Dipole Moment    :     -0.415866856      -0.063322381      -1.475768808
                        -----------------------------------------
Magnitude (a.u.)       :      1.534551577
Magnitude (Debye)      :      3.900520128



--------------------
Rotational spectrum 
--------------------
 
Rotational constants in cm-1:             0.120929             0.120921             0.116661 
Rotational constants in MHz :          3625.356486          3625.122244          3497.414770 

Dipole components along the rotational axes: 
x,y,z [a.u.] :     0.001579    -0.001343    -1.534550 
x,y,z [Debye]:     0.004015    -0.003413    -3.900517 

 

Dipole moment calculation done in   0.0 sec 

Maximum memory used throughout the entire PROP-calculation: 6.2 MB

--------------------------------
SUGGESTED CITATIONS FOR THIS RUN
--------------------------------

Below you find a list of papers that are relevant to this ORCA run
We neither can nor want to force you to cite these papers, but we appreciate if you do
You receive ORCA, which is the product of decades of hard work by many enthusiastic individuals, for free
The only thing we kindly ask in return is that you cite our papers,
We deeply appreciate it, if you show your appreciation for ORCA by not just citing the generic ORCA reference.

Please note that relegating all ORCA citations to the supporting information does *not* help us.
SI sections are not indexed - citations you put there will not count into any citation statistics
But we need these citations in order to attract the funding resources that allow us to do what we are doing

Therefore, if you are a happy ORCA user, please consider citing a few of the papers listed below in the main body of your paper

In addition to the list printed below, the program has created the file data/geom_opt_PO_BP86/68983/68983.bibtex that contains the list in bibtex format
You can import this file easily into all common literature databanks and citation aid programs


List of essential papers. We consider these as the minimum necessary citations

  1. Neese,F.
     Software update: the ORCA program system, version 5.0
     WIRES Comput. Molec. Sci., 2022 12(1)e1606
     doi.org/10.1002/wcms.1606

List of papers to cite with high priority. The work reported in these papers was absolutely
necessary for this run to complete.
Our perspective: the developers of density functionals and basis sets usually get cited in chemistry papers
Good! But without the algorithms to do something with them, the functionals or basis sets would not do anything.
Hence, in our opinion, the algorithm design and method developments papers are equally worthy of getting cited

  1. Neese,F.
     An improvement of the resolution of the identity approximation for the formation of the Coulomb matrix
     J. Comp. Chem., 2003 24(14)1740-1747
     doi.org/10.1002/jcc.10318
  2. Neese,F.
     The SHARK Integral Generation and Digestion System
     J. Comp. Chem., 2022  1-16
     doi.org/10.1002/jcc.26942
  3. Grimme,S.; Antony,J.; Ehrlich,S.; Krieg,H.
     A consistent and accurate ab initio parametrization of density functional dispersion correction (DFT-D) for the 94 elements H-Pu
     J. Chem. Phys., 2010 132 154104-XXXX
     doi.org/10.1063/1.3382344
  4. Grimme,S.; Ehrlich,S.; Goerigk,L.
     Effect of the damping function in dispersion corrected density functional theory
     J. Comput. Chem., 2011 32(7)1456-1465
     doi.org/10.1002/jcc.21759

List of suggested additional citations. These are papers that are important in the 'surrounding' of 
of this run, or papers that preceded the highly important papers. If you like your results we are grateful for a citation.

  1. Neese,F.
     The ORCA program system
     WIRES Comput. Molec. Sci., 2012 2(1)73-78
     doi.org/10.1002/wcms.81
  2. Neese,F.
     Software update: the ORCA program system, version 4.0
     WIRES Comput. Molec. Sci., 2018 8(1)1-6
     doi.org/10.1002/wcms.1327
  3. Neese,F.; Wennmohs,F.; Becker,U.; Riplinger,C.
     The ORCA quantum chemistry program package
     J. Chem. Phys., 2020 152 Art. No. L224108
     doi.org/10.1063/5.0004608

List of optional additional citations

  1. Neese,F.
     Approximate second-order SCF convergence for spin unrestricted wavefunctions
     Chem. Phys. Lett., 2000 325(1-3)93-98
     doi.org/10.1016/s0009-2614(00)00662-x

Timings for individual modules:

Sum of individual times          ...       19.311 sec (=   0.322 min)
Startup calculation              ...        2.948 sec (=   0.049 min)  15.3 %
SCF iterations                   ...        9.856 sec (=   0.164 min)  51.0 %
Property calculations            ...        0.126 sec (=   0.002 min)   0.7 %
SCF Gradient evaluation          ...        6.345 sec (=   0.106 min)  32.9 %
Geometry relaxation              ...        0.036 sec (=   0.001 min)   0.2 %
                             ****ORCA TERMINATED NORMALLY****
TOTAL RUN TIME: 0 days 0 hours 0 minutes 20 seconds 598 msec
