
                                 *****************
                                 * O   R   C   A *
                                 *****************

                                            #,                                       
                                            ###                                      
                                            ####                                     
                                            #####                                    
                                            ######                                   
                                           ########,                                 
                                     ,,################,,,,,                         
                               ,,#################################,,                 
                          ,,##########################################,,             
                       ,#########################################, ''#####,          
                    ,#############################################,,   '####,        
                  ,##################################################,,,,####,       
                ,###########''''           ''''###############################       
              ,#####''   ,,,,##########,,,,          '''####'''          '####       
            ,##' ,,,,###########################,,,                        '##       
           ' ,,###''''                  '''############,,,                           
         ,,##''                                '''############,,,,        ,,,,,,###''
      ,#''                                            '''#######################'''  
     '                                                          ''''####''''         
             ,#######,   #######,   ,#######,      ##                                
            ,#'     '#,  ##    ##  ,#'     '#,    #''#        ,####,   ,####,        
            ##       ##  ##   ,#'  ##            #'  '#       #'       #'  '#        
            ##       ##  #######   ##           ,######,      #####,   #    #        
            '#,     ,#'  ##    ##  '#,     ,#' ,#      #,     #,   #   #,  ,#        
             '#######'   ##     ##  '#######'  #'      '#     '####' # '####'        



                #########################################################
                #                        -***-                          #
                #          Department of theory and spectroscopy        #
                #                                                       #
                #                      Frank Neese                      #
                #                                                       #
                #     Directorship, Architecture, Infrastructure        #
                #                    SHARK, DRIVERS                     #
                #        Core code/Algorithms in most modules           #
                #                                                       #
                #        Max Planck Institute fuer Kohlenforschung      #
                #                Kaiser Wilhelm Platz 1                 #
                #                 D-45470 Muelheim/Ruhr                 #
                #                      Germany                          #
                #                                                       #
                #                  All rights reserved                  #
                #                        -***-                          #
                #########################################################


                         Program Version 6.0.0  -   RELEASE   -


 With contributions from (in alphabetic order):
   Daniel Aravena         : Magnetic Suceptibility
   Michael Atanasov       : Ab Initio Ligand Field Theory (pilot matlab implementation)
   Alexander A. Auer      : GIAO ZORA, VPT2 properties, NMR spectrum
   Ute Becker             : All parallelization in ORCA, NUMFREQ, NUMCALC
   Giovanni Bistoni       : ED, misc. LED, open-shell LED, HFLD
   Martin Brehm           : Molecular dynamics
   Dmytro Bykov           : pre 5.0 version of the SCF Hessian
   Marcos Casanova-Páez   : Triplet and SCS-CIS(D). UHF-(DLPNO)-IP/EA/STEOM-CCSD. UHF-CVS-IP/STEOM-CCSD
   Vijay G. Chilkuri      : MRCI spin determinant printing, contributions to CSF-ICE
   Pauline Colinet        : FMM embedding
   Dipayan Datta          : RHF DLPNO-CCSD density
   Achintya Kumar Dutta   : EOM-CC, STEOM-CC
   Nicolas Foglia         : Exact transition moments, OPA infrastructure, MCD improvements
   Dmitry Ganyushin       : Spin-Orbit,Spin-Spin,Magnetic field MRCI
   Miquel Garcia          : C-PCM and meta-GGA Hessian, CCSD/C-PCM, Gaussian charge scheme
   Tiago L. C. Gouveia    : GS-ROHF, GS-ROCIS
   Yang Guo               : DLPNO-NEVPT2, F12-NEVPT2, CIM, IAO-localization
   Andreas Hansen         : Spin unrestricted coupled pair/coupled cluster methods
   Ingolf Harden          : AUTO-CI MPn and infrastructure 
   Benjamin Helmich-Paris : MC-RPA, TRAH-(SCF,CASSCF), AVAS, COSX integrals, SCF dyn. polar.
   Lee Huntington         : MR-EOM, pCC
   Robert Izsak           : Overlap fitted RIJCOSX, COSX-SCS-MP3, EOM
   Riya Kayal             : Wick's Theorem for AUTO-CI, AUTO-CI UHF-CCSDT
   Emily Kempfer          : AUTO-CI, RHF CISDT and CCSDT
   Christian Kollmar      : KDIIS, OOCD, Brueckner-CCSD(T), CCSD density, CASPT2, CASPT2-K, improved NEVPT2
   Axel Koslowski         : Symmetry handling
   Simone Kossmann        : Meta GGA functionals, TD-DFT gradient, OOMP2, (MP2 Hessian; deprecated post 5.0)
   Lucas Lang             : DCDCAS
   Marvin Lechner         : AUTO-CI (C++ implementation), FIC-MRCC
   Spencer Leger          : CASSCF response
   Dagmar Lenk            : GEPOL surface, SMD, ORCA-2-JSON
   Dimitrios Liakos       : Extrapolation schemes; Compound Job, initial MDCI parallelization
   Dimitrios Manganas     : Further ROCIS development; embedding schemes. LFT, Crystal Embedding
   Dimitrios Pantazis     : SARC Basis sets
   Anastasios Papadopoulos: AUTO-CI, single reference methods and gradients
   Taras Petrenko         : pre 6.0 DFT Hessian and TD-DFT gradient, (ASA, deprecated), ECA, 1-Electron XAS/XES, NRVS
   Peter Pinski           : DLPNO-MP2, DLPNO-MP2 Gradient
   Christoph Reimann      : Effective Core Potentials
   Marius Retegan         : Local ZFS, SOC
   Christoph Riplinger    : Optimizer, TS searches, QM/MM, DLPNO-CCSD(T), (RO)-DLPNO pert. Triples
   Michael Roemelt        : Original ROCIS implementation
   Masaaki Saitow         : Open-shell DLPNO-CCSD energy and density
   Barbara Sandhoefer     : DKH picture change effects
   Kantharuban Sivalingam : CASSCF convergence/infrastructure, NEVPT2 and variants, FIC-MRCI
   Bernardo de Souza      : ESD, SOC TD-DFT
   Georgi Stoychev        : AutoAux, RI-MP2 NMR, DLPNO-MP2 response, X2C
   Van Anh Tran           : RI-MP2 g-tensors
   Willem Van den Heuvel  : Paramagnetic NMR
   Zikuan Wang            : NOTCH, Electric field optimization 
   Frank Wennmohs         : Technical directorship and infrastructure
   Hang Xu                : AUTO-CI-Response properties 


 We gratefully acknowledge several colleagues who have allowed us to
 interface, adapt or use parts of their codes:
   Stefan Grimme, W. Hujo, H. Kruse, P. Pracht,  : VdW corrections, initial TS optimization,
                  C. Bannwarth, S. Ehlert,         DFT functionals, gCP, sTDA/sTD-DF
                  L. Wittmann, M. Mueller
   Ed Valeev, F. Pavosevic, A. Kumar             : LibInt (2-el integral package), F12 methods
   Garnet Chan, S. Sharma, J. Yang, R. Olivares  : DMRG
   Ulf Ekstrom                                   : XCFun DFT Library
   Mihaly Kallay                                 : mrcc  (arbitrary order and MRCC methods)
   Frank Weinhold                                : gennbo (NPA and NBO analysis)
   Simon Mueller                                 : openCOSMO-RS
   Christopher J. Cramer and Donald G. Truhlar   : smd solvation model
   Lars Goerigk                                  : TD-DFT with DH, B97 family of functionals
   V. Asgeirsson, H. Jonsson                     : NEB implementation
   FAccTs GmbH                                   : IRC, NEB, NEB-TS, DLPNO-Multilevel, CI-OPT
                                                   MM, QMMM, 2- and 3-layer-ONIOM, Crystal-QMMM,
                                                   LR-CPCM, SF, NACMEs, symmetry and pop. for TD-DFT,
                                                   nearIR, NL-DFT gradient (VV10), updates on ESD,
                                                   ML-optimized integration grids, MBIS, APM,
                                                   GOAT, DOCKER, SOLVATOR, interface openCOSMO-RS
   S Lehtola, MJT Oliveira, MAL Marques          : LibXC Library
   Liviu Ungur et al                             : ANISO software


 Your calculation uses the libint2 library for the computation of 2-el integrals
 For citations please refer to: http://libint.valeyev.net

 Your ORCA version has been built with support for libXC version: 6.2.2
 For citations please refer to: https://libxc.gitlab.io

 This ORCA versions uses:
   CBLAS   interface :  Fast vector & matrix operations
   LAPACKE interface :  Fast linear algebra routines
   Shared memory     :  Shared parallel matrices


Your calculation utilizes the atom-pairwise dispersion correction
with the Becke-Johnson damping scheme (D3BJ)


Warning: RI is on but no J-basis has been assigned. Assigning Def2/J (nothing to worry about!)
================================================================================

----- Orbital basis set information -----
Your calculation utilizes the basis: def2-SVP
   F. Weigend and R. Ahlrichs, Phys. Chem. Chem. Phys. 7, 3297 (2005).

----- AuxJ basis set information -----
Your calculation utilizes the auxiliary basis: def2/J
   F. Weigend, Phys. Chem. Chem. Phys. 8, 1057 (2006).

================================================================================
                                        WARNINGS
                       Please study these warnings very carefully!
================================================================================


WARNING: Geometry Optimization
  ===> : Switching off AutoStart
         For restart on a previous wavefunction, please use MOREAD

================================================================================
                                       INPUT FILE
================================================================================
NAME = data/geom_opt_PO_BP86/20851/20851.inp
|  1> ! RI BP86 def2-SVP D3BJ TIGHTSCF Opt
|  2> %pal
|  3> nprocs 6
|  4> end
|  5> 
|  6> * xyz 0 1
|  7> C     -3.549565    7.158404    0.977452
|  8> C     -2.342711    6.316346    1.361899
|  9> C     -2.704178    4.896877    1.805936
| 10> C     -3.427036    4.041238    0.760729
| 11> C     -2.690958    3.861407   -0.570834
| 12> C     -1.287603    3.254677   -0.476259
| 13> C     -1.276667    1.845562    0.115951
| 14> C      0.118962    1.229956    0.071226
| 15> P      0.194727   -0.438052    0.735811
| 16> O     -0.446497   -0.544017    2.091514
| 17> C      1.938155   -0.872800    0.787822
| 18> C      2.684759   -0.794665   -0.539366
| 19> C      4.101210   -1.374696   -0.481581
| 20> C      5.051723   -0.574939    0.412105
| 21> C      6.459521   -1.176369    0.489062
| 22> C      7.221476   -1.265932   -0.837117
| 23> C      7.397169    0.055523   -1.589258
| 24> C      8.168550    1.103217   -0.801062
| 25> C     -0.603961   -1.490891   -0.480642
| 26> C     -0.545753   -2.977730   -0.147056
| 27> C     -1.160764   -3.873299   -1.225501
| 28> C     -2.640245   -3.626077   -1.534808
| 29> C     -3.556103   -3.825300   -0.324488
| 30> C     -5.028818   -3.688407   -0.720476
| 31> C     -5.988007   -3.782255    0.468298
| 32> C     -5.997363   -5.149909    1.134047
| 33> H     -4.284389    7.185339    1.788389
| 34> H     -3.238139    8.186915    0.768132
| 35> H     -4.039434    6.771573    0.078792
| 36> H     -1.821975    6.813371    2.189515
| 37> H     -1.635509    6.287752    0.525784
| 38> H     -1.788264    4.385752    2.125148
| 39> H     -3.340286    4.957994    2.698230
| 40> H     -4.412425    4.476970    0.555361
| 41> H     -3.630344    3.056868    1.199368
| 42> H     -2.619145    4.829469   -1.080545
| 43> H     -3.307086    3.226427   -1.220191
| 44> H     -0.629896    3.908727    0.107113
| 45> H     -0.866623    3.219532   -1.489074
| 46> H     -1.620831    1.865234    1.155397
| 47> H     -1.974732    1.206682   -0.435742
| 48> H      0.810258    1.856357    0.646541
| 49> H      0.481875    1.214577   -0.962208
| 50> H      2.409962   -0.202472    1.514177
| 51> H      2.018714   -1.885880    1.196660
| 52> H      2.723908    0.245727   -0.881402
| 53> H      2.125808   -1.349333   -1.300418
| 54> H      4.491442   -1.394896   -1.505203
| 55> H      4.056817   -2.415527   -0.139007
| 56> H      4.654568   -0.541209    1.432780
| 57> H      5.102666    0.463249    0.066197
| 58> H      6.388893   -2.186388    0.913109
| 59> H      7.048768   -0.591739    1.205900
| 60> H      8.212968   -1.690838   -0.634408
| 61> H      6.720436   -1.982122   -1.499091
| 62> H      7.940287   -0.148410   -2.520440
| 63> H      6.423059    0.461102   -1.883563
| 64> H      7.613852    1.428819    0.083408
| 65> H      9.139941    0.715152   -0.477620
| 66> H      8.347040    1.985556   -1.423942
| 67> H     -1.648894   -1.170874   -0.543846
| 68> H     -0.160001   -1.310121   -1.465016
| 69> H     -1.024916   -3.157623    0.821802
| 70> H      0.502657   -3.272844   -0.020081
| 71> H     -1.033199   -4.919108   -0.919946
| 72> H     -0.588975   -3.752958   -2.154112
| 73> H     -2.940596   -4.321883   -2.328658
| 74> H     -2.776630   -2.618192   -1.943657
| 75> H     -3.322737   -3.084770    0.448366
| 76> H     -3.372763   -4.816764    0.104137
| 77> H     -5.179740   -2.716495   -1.206975
| 78> H     -5.286065   -4.455523   -1.460851
| 79> H     -5.738111   -3.015863    1.211118
| 80> H     -7.001813   -3.561235    0.114042
| 81> H     -6.768932   -5.183820    1.910138
| 82> H     -5.038092   -5.370626    1.611533
| 83> H     -6.213399   -5.939499    0.407553
| 84> **                         ****END OF INPUT****
================================================================================

                       *****************************
                       * Geometry Optimization Run *
                       *****************************

Geometry optimization settings:
Update method            Update   .... BFGS
Choice of coordinates    CoordSys .... (2022) Redundant Internals
Initial Hessian          InHess   .... Almloef's Model
Max. no of cycles        MaxIter  .... 231

Convergence Tolerances:
Energy Change            TolE     ....  5.0000e-06 Eh
Max. Gradient            TolMAXG  ....  3.0000e-04 Eh/bohr
RMS Gradient             TolRMSG  ....  1.0000e-04 Eh/bohr
Max. Displacement        TolMAXD  ....  4.0000e-03 bohr
RMS Displacement         TolRMSD  ....  2.0000e-03 bohr
Strict Convergence                .... False

------------------------------------------------------------------------------
                        ORCA OPTIMIZATION COORDINATE SETUP
------------------------------------------------------------------------------

The optimization will be done in redundant internal coordinates (2022)
Making redundant internal coordinates   ...  (2022 redundants) done
Evaluating the initial hessian          ...  (Almloef) done
Evaluating the coordinates              ...  done
Calculating the B-matrix                .... done
Calculating the G-matrix                .... done
Diagonalizing the G-matrix              .... done
Small eigenvalue found = 4.691e-04
Small eigenvalue found = 8.849e-04
Small eigenvalue found = 9.604e-04
Small eigenvalue found = 2.171e-03
Small eigenvalue found = 2.856e-03
Small eigenvalue found = 3.787e-03
Small eigenvalue found = 4.148e-03
Small eigenvalue found = 5.276e-03
Small eigenvalue found = 6.031e-03
Small eigenvalue found = 8.774e-03
Small eigenvalue found = 1.204e-02
Small eigenvalue found = 1.313e-02
Small eigenvalue found = 1.414e-02
Small eigenvalue found = 1.946e-02
Small eigenvalue found = 2.634e-02
The first mode is                       ....  145
The number of degrees of freedom        ....  225

    -----------------------------------------------------------------
                    Redundant Internal Coordinates


    -----------------------------------------------------------------
         Definition                    Initial Value    Approx d2E/dq
    -----------------------------------------------------------------
      1. B(C   1,C   0)                  1.5210         0.386171   
      2. B(C   2,C   1)                  1.5306         0.372760   
      3. B(C   3,C   2)                  1.5320         0.370806   
      4. B(C   4,C   3)                  1.5321         0.370757   
      5. B(C   5,C   4)                  1.5318         0.371086   
      6. B(C   6,C   5)                  1.5285         0.375582   
      7. B(C   7,C   6)                  1.5260         0.379070   
      8. B(P   8,C   7)                  1.7971         0.470639   
      9. B(O   9,P   8)                  1.5034         1.239897   
     10. B(C  10,P   8)                  1.7976         0.469876   
     11. B(C  11,C  10)                  1.5248         0.380809   
     12. B(C  12,C  11)                  1.5317         0.371247   
     13. B(C  13,C  12)                  1.5303         0.373189   
     14. B(C  14,C  13)                  1.5328         0.369725   
     15. B(C  15,C  14)                  1.5321         0.370696   
     16. B(C  16,C  15)                  1.5306         0.372711   
     17. B(C  17,C  16)                  1.5212         0.385898   
     18. B(C  18,P   8)                  1.7961         0.472342   
     19. B(C  19,C  18)                  1.5249         0.380622   
     20. B(C  20,C  19)                  1.5308         0.372489   
     21. B(C  21,C  20)                  1.5316         0.371450   
     22. B(C  22,C  21)                  1.5308         0.372473   
     23. B(C  23,C  22)                  1.5312         0.371993   
     24. B(C  24,C  23)                  1.5304         0.373066   
     25. B(C  25,C  24)                  1.5211         0.385971   
     26. B(H  26,C   0)                  1.0947         0.353970   
     27. B(H  27,C   0)                  1.0948         0.353777   
     28. B(H  28,C   0)                  1.0942         0.354631   
     29. B(H  29,C   1)                  1.0969         0.351111   
     30. B(H  30,C   1)                  1.0955         0.352944   
     31. B(H  31,C   2)                  1.0964         0.351761   
     32. B(H  32,C   2)                  1.0975         0.350284   
     33. B(H  33,C   3)                  1.0968         0.351181   
     34. B(H  34,C   3)                  1.0967         0.351362   
     35. B(H  35,C   4)                  1.0964         0.351724   
     36. B(H  36,C   4)                  1.0975         0.350331   
     37. B(H  37,C   5)                  1.0958         0.352565   
     38. B(H  38,C   5)                  1.0974         0.350462   
     39. B(H  39,C   6)                  1.0951         0.353393   
     40. B(H  40,C   6)                  1.0954         0.353070   
     41. B(H  41,C   7)                  1.0960         0.352226   
     42. B(H  42,C   7)                  1.0954         0.353011   
     43. B(H  43,C  10)                  1.0952         0.353245   
     44. B(H  44,C  10)                  1.0954         0.352987   
     45. B(H  45,C  11)                  1.0959         0.352414   
     46. B(H  46,C  11)                  1.0951         0.353393   
     47. B(H  47,C  12)                  1.0957         0.352678   
     48. B(H  48,C  12)                  1.0967         0.351400   
     49. B(H  49,C  13)                  1.0957         0.352586   
     50. B(H  50,C  13)                  1.0955         0.352920   
     51. B(H  51,C  14)                  1.0977         0.350058   
     52. B(H  52,C  14)                  1.0968         0.351280   
     53. B(H  53,C  15)                  1.0976         0.350205   
     54. B(H  54,C  15)                  1.0964         0.351682   
     55. B(H  55,C  16)                  1.0971         0.350807   
     56. B(H  56,C  16)                  1.0954         0.352968   
     57. B(H  57,C  17)                  1.0936         0.355349   
     58. B(H  58,C  17)                  1.0949         0.353674   
     59. B(H  59,C  17)                  1.0947         0.353940   
     60. B(H  60,C  18)                  1.0947         0.353982   
     61. B(H  61,C  18)                  1.0949         0.353697   
     62. B(H  62,C  19)                  1.0957         0.352587   
     63. B(H  63,C  19)                  1.0965         0.351564   
     64. B(H  64,C  20)                  1.0970         0.350991   
     65. B(H  65,C  20)                  1.0972         0.350762   
     66. B(H  66,C  21)                  1.0975         0.350286   
     67. B(H  67,C  21)                  1.0962         0.352029   
     68. B(H  68,C  22)                  1.0955         0.352881   
     69. B(H  69,C  22)                  1.0956         0.352771   
     70. B(H  70,C  23)                  1.0973         0.350569   
     71. B(H  71,C  23)                  1.0967         0.351317   
     72. B(H  72,C  24)                  1.0962         0.352031   
     73. B(H  73,C  24)                  1.0964         0.351699   
     74. B(H  74,C  25)                  1.0949         0.353688   
     75. B(H  75,C  25)                  1.0940         0.354803   
     76. B(H  76,C  25)                  1.0945         0.354204   
     77. A(C   1,C   0,H  27)          110.0426         0.325143   
     78. A(H  27,C   0,H  28)          107.6048         0.289337   
     79. A(H  26,C   0,H  27)          108.0270         0.289252   
     80. A(C   1,C   0,H  28)          111.5379         0.325272   
     81. A(H  26,C   0,H  28)          108.4574         0.289361   
     82. A(C   1,C   0,H  26)          111.0395         0.325172   
     83. A(C   2,C   1,H  30)          110.4676         0.323136   
     84. A(C   0,C   1,H  30)          109.4980         0.325017   
     85. A(C   2,C   1,H  29)          108.2674         0.322861   
     86. A(H  29,C   1,H  30)          106.3338         0.288778   
     87. A(C   0,C   1,C   2)          113.5392         0.365282   
     88. A(C   0,C   1,H  29)          108.4542         0.324739   
     89. A(C   1,C   2,H  31)          108.6341         0.322959   
     90. A(C   1,C   2,H  32)          108.7290         0.322736   
     91. A(C   3,C   2,H  31)          109.4165         0.322681   
     92. A(C   3,C   2,H  32)          108.1979         0.322458   
     93. A(C   1,C   2,C   3)          115.5602         0.362755   
     94. A(H  31,C   2,H  32)          105.8689         0.288520   
     95. A(C   4,C   3,H  33)          108.3929         0.322586   
     96. A(C   2,C   3,C   4)          115.5831         0.362421   
     97. A(C   4,C   3,H  34)          109.3498         0.322613   
     98. A(C   2,C   3,H  34)          108.4151         0.322620   
     99. A(C   2,C   3,H  33)          109.2543         0.322593   
    100. A(H  33,C   3,H  34)          105.3622         0.288584   
    101. A(H  35,C   4,H  36)          105.8163         0.288521   
    102. A(C   3,C   4,H  36)          108.2059         0.322458   
    103. A(C   5,C   4,H  35)          108.5672         0.322715   
    104. A(C   3,C   4,H  35)          109.3831         0.322668   
    105. A(C   5,C   4,H  36)          108.7647         0.322505   
    106. A(C   3,C   4,C   5)          115.6574         0.362468   
    107. A(C   6,C   5,H  37)          109.8584         0.323479   
    108. A(H  37,C   5,H  38)          106.2732         0.288646   
    109. A(C   4,C   5,H  37)          110.2638         0.322841   
    110. A(C   6,C   5,H  38)          108.9843         0.323162   
    111. A(C   4,C   5,H  38)          107.8877         0.322525   
    112. A(C   4,C   5,C   6)          113.3042         0.363269   
    113. A(C   7,C   6,H  40)          109.4378         0.324047   
    114. A(C   5,C   6,H  40)          109.7545         0.323556   
    115. A(C   7,C   6,H  39)          108.8131         0.324095   
    116. A(C   5,C   6,C   7)          111.5353         0.364594   
    117. A(H  39,C   6,H  40)          106.7533         0.289087   
    118. A(C   5,C   6,H  39)          110.4219         0.323604   
    119. A(H  41,C   7,H  42)          107.1140         0.288930   
    120. A(P   8,C   7,H  42)          108.7768         0.356806   
    121. A(P   8,C   7,H  41)          108.0445         0.356672   
    122. A(C   6,C   7,H  42)          109.6520         0.324038   
    123. A(C   6,C   7,H  41)          109.3234         0.323919   
    124. A(C   6,C   7,P   8)          113.7120         0.403675   
    125. A(C   7,P   8,C  10)          106.0256         0.447414   
    126. A(O   9,P   8,C  18)          112.3176         0.532782   
    127. A(O   9,P   8,C  10)          111.7478         0.532256   
    128. A(C  10,P   8,C  18)          108.0053         0.447707   
    129. A(C   7,P   8,O   9)          112.3896         0.532419   
    130. A(C   7,P   8,C  18)          105.9532         0.447839   
    131. A(P   8,C  10,C  11)          115.9331         0.403885   
    132. A(H  43,C  10,H  44)          106.6683         0.289058   
    133. A(C  11,C  10,H  44)          109.6479         0.324278   
    134. A(P   8,C  10,H  44)          107.8061         0.356704   
    135. A(C  11,C  10,H  43)          109.5702         0.324317   
    136. A(P   8,C  10,H  43)          106.7965         0.356748   
    137. A(C  10,C  11,C  12)          113.6133         0.364156   
    138. A(H  45,C  11,H  46)          106.3904         0.289003   
    139. A(C  12,C  11,H  46)          107.8434         0.322988   
    140. A(C  10,C  11,H  46)          109.2094         0.324339   
    141. A(C  12,C  11,H  45)          109.7704         0.322842   
    142. A(C  10,C  11,H  45)          109.7434         0.324191   
    143. A(C  11,C  12,C  13)          113.4859         0.362900   
    144. A(H  47,C  12,H  48)          106.7837         0.288781   
    145. A(C  13,C  12,H  48)          109.7995         0.322965   
    146. A(C  11,C  12,H  48)          109.4970         0.322689   
    147. A(C  13,C  12,H  47)          109.5124         0.323157   
    148. A(C  11,C  12,H  47)          107.5235         0.322881   
    149. A(C  12,C  13,C  14)          113.2494         0.362645   
    150. A(C  14,C  13,H  50)          110.1812         0.322700   
    151. A(H  49,C  13,H  50)          106.3682         0.288965   
    152. A(C  12,C  13,H  50)          109.8628         0.323194   
    153. A(C  14,C  13,H  49)          107.3497         0.322650   
    154. A(C  12,C  13,H  49)          109.5694         0.323144   
    155. A(C  13,C  14,C  15)          115.8643         0.362230   
    156. A(H  51,C  14,H  52)          105.8165         0.288429   
    157. A(C  15,C  14,H  52)          109.2516         0.322592   
    158. A(C  15,C  14,H  51)          108.2156         0.322408   
    159. A(C  13,C  14,H  51)          108.7433         0.322270   
    160. A(C  13,C  14,H  52)          108.4880         0.322454   
    161. A(H  53,C  15,H  54)          105.7495         0.288500   
    162. A(C  16,C  15,H  54)          108.6452         0.322940   
    163. A(C  14,C  15,H  54)          109.4827         0.322653   
    164. A(C  16,C  15,H  53)          108.7408         0.322717   
    165. A(C  14,C  15,H  53)          108.1811         0.322430   
    166. A(C  14,C  15,C  16)          115.5922         0.362728   
    167. A(H  55,C  16,H  56)          106.3200         0.288742   
    168. A(C  17,C  16,H  56)          109.5809         0.324983   
    169. A(C  15,C  16,H  56)          110.4624         0.323133   
    170. A(C  17,C  16,H  55)          108.4679         0.324655   
    171. A(C  15,C  16,H  55)          108.2652         0.322808   
    172. A(C  15,C  16,C  17)          113.4664         0.365230   
    173. A(H  58,C  17,H  59)          108.0052         0.289235   
    174. A(H  57,C  17,H  59)          107.6324         0.289449   
    175. A(C  16,C  17,H  59)          110.0592         0.325130   
    176. A(H  57,C  17,H  58)          108.4580         0.289415   
    177. A(C  16,C  17,H  58)          111.0296         0.325090   
    178. A(C  16,C  17,H  57)          111.5253         0.325342   
    179. A(H  60,C  18,H  61)          106.6717         0.289243   
    180. A(C  19,C  18,H  61)          110.0099         0.324359   
    181. A(P   8,C  18,H  61)          109.3790         0.357143   
    182. A(C  19,C  18,H  60)          109.5185         0.324402   
    183. A(P   8,C  18,H  60)          106.9902         0.357192   
    184. A(P   8,C  18,C  19)          113.9790         0.404223   
    185. A(H  62,C  19,H  63)          105.7555         0.288791   
    186. A(C  20,C  19,H  63)          107.9541         0.322890   
    187. A(C  18,C  19,H  63)          108.9197         0.324037   
    188. A(C  20,C  19,H  62)          110.5599         0.323044   
    189. A(C  18,C  19,H  62)          109.6827         0.324191   
    190. A(C  18,C  19,C  20)          113.6394         0.364333   
    191. A(H  64,C  20,H  65)          106.2434         0.288482   
    192. A(C  19,C  20,H  65)          108.8280         0.322769   
    193. A(C  21,C  20,H  64)          108.8129         0.322656   
    194. A(C  19,C  20,H  64)          108.3484         0.322804   
    195. A(C  21,C  20,H  65)          108.3488         0.322622   
    196. A(C  19,C  20,C  21)          115.8453         0.362817   
    197. A(C  20,C  21,H  67)          110.1167         0.322812   
    198. A(C  22,C  21,H  66)          109.0047         0.322695   
    199. A(C  20,C  21,H  66)          107.9447         0.322550   
    200. A(C  20,C  21,C  22)          113.4071         0.362814   
    201. A(H  66,C  21,H  67)          106.2059         0.288554   
    202. A(C  22,C  21,H  67)          109.8840         0.322958   
    203. A(C  21,C  22,C  23)          111.0596         0.362905   
    204. A(H  68,C  22,H  69)          107.4619         0.288983   
    205. A(C  23,C  22,H  69)          110.0623         0.323001   
    206. A(C  21,C  22,H  69)          109.0852         0.323070   
    207. A(C  23,C  22,H  68)          109.0810         0.323018   
    208. A(C  21,C  22,H  68)          110.0206         0.323086   
    209. A(C  22,C  23,C  24)          113.3577         0.363004   
    210. A(H  70,C  23,H  71)          106.7365         0.288500   
    211. A(C  24,C  23,H  71)          109.5413         0.322935   
    212. A(C  22,C  23,H  71)          109.7345         0.322783   
    213. A(C  24,C  23,H  70)          108.2104         0.322822   
    214. A(C  22,C  23,H  70)          109.0347         0.322670   
    215. A(C  23,C  24,C  25)          113.5138         0.365301   
    216. A(H  72,C  24,H  73)          106.7865         0.288737   
    217. A(C  25,C  24,H  73)          108.4798         0.324801   
    218. A(C  23,C  24,H  73)          108.4331         0.322993   
    219. A(C  25,C  24,H  72)          109.4773         0.324851   
    220. A(C  23,C  24,H  72)          109.9153         0.323043   
    221. A(H  75,C  25,H  76)          108.4953         0.289413   
    222. A(H  74,C  25,H  76)          108.0026         0.289271   
    223. A(C  24,C  25,H  76)          111.0596         0.325180   
    224. A(H  74,C  25,H  75)          107.5947         0.289347   
    225. A(C  24,C  25,H  75)          111.5319         0.325270   
    226. A(C  24,C  25,H  74)          110.0242         0.325102   
    227. D(C   2,C   1,C   0,H  27)    174.2929         0.011867   
    228. D(H  29,C   1,C   0,H  28)    173.2548         0.011867   
    229. D(C   2,C   1,C   0,H  26)     54.7370         0.011867   
    230. D(C   2,C   1,C   0,H  28)    -66.3602         0.011867   
    231. D(H  29,C   1,C   0,H  26)    -65.6481         0.011867   
    232. D(H  29,C   1,C   0,H  27)     53.9078         0.011867   
    233. D(H  31,C   2,C   1,H  30)     60.2151         0.011098   
    234. D(C   3,C   2,C   1,H  29)   -179.2227         0.011098   
    235. D(C   3,C   2,C   1,C   0)     60.2867         0.011098   
    236. D(H  31,C   2,C   1,H  29)    -55.8452         0.011098   
    237. D(C   3,C   2,C   1,H  30)    -63.1624         0.011098   
    238. D(H  31,C   2,C   1,C   0)   -176.3358         0.011098   
    239. D(C   4,C   3,C   2,H  32)    179.1420         0.010989   
    240. D(C   4,C   3,C   2,H  31)    -65.9561         0.010989   
    241. D(H  33,C   3,C   2,C   1)    -65.5243         0.010989   
    242. D(C   4,C   3,C   2,C   1)     57.0087         0.010989   
    243. D(H  33,C   3,C   2,H  31)    171.5109         0.010989   
    244. D(H  33,C   3,C   2,H  32)     56.6090         0.010989   
    245. D(H  35,C   4,C   3,C   2)    -65.6968         0.010986   
    246. D(H  35,C   4,C   3,H  33)     57.2926         0.010986   
    247. D(C   5,C   4,C   3,C   2)     57.2234         0.010986   
    248. D(H  35,C   4,C   3,H  34)    171.6651         0.010986   
    249. D(C   5,C   4,C   3,H  34)    -65.4147         0.010986   
    250. D(C   5,C   4,C   3,H  33)   -179.7872         0.010986   
    251. D(H  37,C   5,C   4,H  36)    175.8430         0.011004   
    252. D(C   6,C   5,C   4,H  36)    -60.5629         0.011004   
    253. D(C   6,C   5,C   4,C   3)     61.3927         0.011004   
    254. D(C   6,C   5,C   4,H  35)   -175.2573         0.011004   
    255. D(H  37,C   5,C   4,C   3)    -62.2014         0.011004   
    256. D(H  37,C   5,C   4,H  35)     61.1487         0.011004   
    257. D(C   7,C   6,C   5,C   4)    174.6681         0.011257   
    258. D(H  39,C   6,C   5,H  38)    175.6671         0.011257   
    259. D(H  39,C   6,C   5,H  37)     59.6064         0.011257   
    260. D(H  39,C   6,C   5,C   4)    -64.2097         0.011257   
    261. D(C   7,C   6,C   5,H  38)     54.5449         0.011257   
    262. D(C   7,C   6,C   5,H  37)    -61.5158         0.011257   
    263. D(H  41,C   7,C   6,H  40)   -178.4775         0.011455   
    264. D(H  41,C   7,C   6,H  39)    -62.1723         0.011455   
    265. D(H  41,C   7,C   6,C   5)     59.8825         0.011455   
    266. D(P   8,C   7,C   6,H  39)     58.6600         0.011455   
    267. D(P   8,C   7,C   6,H  40)    -57.6452         0.011455   
    268. D(P   8,C   7,C   6,C   5)   -179.2852         0.011455   
    269. D(C  10,P   8,C   7,H  42)     64.8814         0.004769   
    270. D(C  10,P   8,C   7,H  41)    -51.0727         0.004769   
    271. D(C  10,P   8,C   7,C   6)   -172.6194         0.004769   
    272. D(O   9,P   8,C   7,H  41)     71.2888         0.004769   
    273. D(O   9,P   8,C   7,C   6)    -50.2579         0.004769   
    274. D(O   9,P   8,C   7,H  42)   -172.7571         0.004769   
    275. D(H  43,C  10,P   8,C  18)    178.5109         0.004758   
    276. D(H  43,C  10,P   8,O   9)    -57.4645         0.004758   
    277. D(H  43,C  10,P   8,C   7)     65.3044         0.004758   
    278. D(C  11,C  10,P   8,O   9)   -179.8662         0.004758   
    279. D(C  11,C  10,P   8,C  18)     56.1092         0.004758   
    280. D(C  11,C  10,P   8,C   7)    -57.0973         0.004758   
    281. D(H  45,C  11,C  10,H  44)   -172.2309         0.011555   
    282. D(H  45,C  11,C  10,H  43)    -55.4771         0.011555   
    283. D(H  45,C  11,C  10,P   8)     65.4472         0.011555   
    284. D(C  12,C  11,C  10,H  44)    -48.9242         0.011555   
    285. D(C  12,C  11,C  10,H  43)     67.8296         0.011555   
    286. D(C  12,C  11,C  10,P   8)   -171.2462         0.011555   
    287. D(C  13,C  12,C  11,H  45)     56.9365         0.011013   
    288. D(C  13,C  12,C  11,H  46)    172.4491         0.011013   
    289. D(C  13,C  12,C  11,C  10)    -66.3555         0.011013   
    290. D(H  47,C  12,C  11,H  46)     51.1770         0.011013   
    291. D(H  47,C  12,C  11,H  45)    -64.3356         0.011013   
    292. D(H  47,C  12,C  11,C  10)    172.3724         0.011013   
    293. D(H  49,C  13,C  12,H  48)    -63.9092         0.011122   
    294. D(H  49,C  13,C  12,H  47)    179.1431         0.011122   
    295. D(H  49,C  13,C  12,C  11)     58.9926         0.011122   
    296. D(C  14,C  13,C  12,H  48)     55.9042         0.011122   
    297. D(C  14,C  13,C  12,H  47)    -61.0434         0.011122   
    298. D(C  14,C  13,C  12,C  11)    178.8060         0.011122   
    299. D(H  51,C  14,C  13,H  50)    175.5223         0.010929   
    300. D(H  51,C  14,C  13,H  49)     60.0939         0.010929   
    301. D(H  51,C  14,C  13,C  12)    -60.9804         0.010929   
    302. D(C  15,C  14,C  13,H  50)    -62.3808         0.010929   
    303. D(C  15,C  14,C  13,H  49)   -177.8093         0.010929   
    304. D(C  15,C  14,C  13,C  12)     61.1164         0.010929   
    305. D(H  53,C  15,C  14,H  52)     55.9231         0.010983   
    306. D(H  53,C  15,C  14,H  51)    -58.8398         0.010983   
    307. D(H  53,C  15,C  14,C  13)    178.7837         0.010983   
    308. D(C  16,C  15,C  14,H  52)    -66.2347         0.010983   
    309. D(C  16,C  15,C  14,H  51)    179.0024         0.010983   
    310. D(C  16,C  15,C  14,C  13)     56.6259         0.010983   
    311. D(H  55,C  16,C  15,H  54)    -55.6395         0.011095   
    312. D(H  55,C  16,C  15,H  53)     59.0048         0.011095   
    313. D(H  55,C  16,C  15,C  14)   -179.1363         0.011095   
    314. D(C  17,C  16,C  15,H  54)   -176.0994         0.011095   
    315. D(C  17,C  16,C  15,H  53)    -61.4552         0.011095   
    316. D(C  17,C  16,C  15,C  14)     60.4037         0.011095   
    317. D(H  58,C  17,C  16,H  56)    178.8898         0.011851   
    318. D(H  58,C  17,C  16,H  55)    -65.4369         0.011851   
    319. D(H  58,C  17,C  16,C  15)     54.9083         0.011851   
    320. D(H  57,C  17,C  16,H  56)     57.8073         0.011851   
    321. D(H  57,C  17,C  16,H  55)    173.4806         0.011851   
    322. D(H  57,C  17,C  16,C  15)    -66.1741         0.011851   
    323. D(H  60,C  18,P   8,C  10)   -176.5485         0.004794   
    324. D(H  60,C  18,P   8,O   9)     59.7706         0.004794   
    325. D(H  60,C  18,P   8,C   7)    -63.2937         0.004794   
    326. D(C  19,C  18,P   8,C  10)     62.2357         0.004794   
    327. D(C  19,C  18,P   8,O   9)    -61.4452         0.004794   
    328. D(C  19,C  18,P   8,C   7)    175.4905         0.004794   
    329. D(H  62,C  19,C  18,H  61)   -177.8888         0.011544   
    330. D(H  62,C  19,C  18,H  60)    -60.9510         0.011544   
    331. D(H  62,C  19,C  18,P   8)     58.8493         0.011544   
    332. D(C  20,C  19,C  18,H  61)    -53.5757         0.011544   
    333. D(C  20,C  19,C  18,H  60)     63.3621         0.011544   
    334. D(C  20,C  19,C  18,P   8)   -176.8375         0.011544   
    335. D(H  64,C  20,C  19,H  63)     56.5995         0.011083   
    336. D(H  64,C  20,C  19,H  62)    -58.6390         0.011083   
    337. D(H  64,C  20,C  19,C  18)    177.5230         0.011083   
    338. D(C  21,C  20,C  19,H  63)    179.1583         0.011083   
    339. D(C  21,C  20,C  19,H  62)     63.9198         0.011083   
    340. D(C  21,C  20,C  19,C  18)    -59.9183         0.011083   
    341. D(H  66,C  21,C  20,H  65)     56.6036         0.011025   
    342. D(H  66,C  21,C  20,H  64)    -58.5044         0.011025   
    343. D(H  66,C  21,C  20,C  19)    179.1825         0.011025   
    344. D(C  22,C  21,C  20,H  65)    177.4796         0.011025   
    345. D(C  22,C  21,C  20,H  64)     62.3717         0.011025   
    346. D(C  22,C  21,C  20,C  19)    -59.9414         0.011025   
    347. D(H  68,C  22,C  21,H  67)    -59.5077         0.011082   
    348. D(H  68,C  22,C  21,H  66)   -175.5135         0.011082   
    349. D(H  68,C  22,C  21,C  20)     64.2098         0.011082   
    350. D(C  23,C  22,C  21,H  67)     61.3654         0.011082   
    351. D(C  23,C  22,C  21,H  66)    -54.6403         0.011082   
    352. D(C  23,C  22,C  21,C  20)   -174.9170         0.011082   
    353. D(C  24,C  23,C  22,C  21)   -176.0208         0.011055   
    354. D(H  70,C  23,C  22,H  69)   -176.3239         0.011055   
    355. D(H  70,C  23,C  22,H  68)     66.0076         0.011055   
    356. D(H  70,C  23,C  22,C  21)    -55.4176         0.011055   
    357. D(C  24,C  23,C  22,H  69)     63.0730         0.011055   
    358. D(C  24,C  23,C  22,H  68)    -54.5955         0.011055   
    359. D(H  72,C  24,C  23,H  71)   -179.8334         0.011115   
    360. D(H  72,C  24,C  23,H  70)    -63.8285         0.011115   
    361. D(H  72,C  24,C  23,C  22)     57.2399         0.011115   
    362. D(C  25,C  24,C  23,H  71)     57.1834         0.011115   
    363. D(C  25,C  24,C  23,H  70)    173.1884         0.011115   
    364. D(C  25,C  24,C  23,C  22)    -65.7432         0.011115   
    365. D(H  75,C  25,C  24,H  73)   -173.2316         0.011855   
    366. D(H  75,C  25,C  24,H  72)    -57.0518         0.011855   
    367. D(H  75,C  25,C  24,C  23)     66.1718         0.011855   
    368. D(H  74,C  25,C  24,H  73)    -53.9133         0.011855   
    369. D(H  74,C  25,C  24,H  72)     62.2666         0.011855   
    370. D(H  74,C  25,C  24,C  23)   -174.5098         0.011855   
    -----------------------------------------------------------------

Number of atoms                         .... 77
Number of degrees of freedom            .... 370


         *************************************************************
         *                GEOMETRY OPTIMIZATION CYCLE   1            *
         *************************************************************
---------------------------------
CARTESIAN COORDINATES (ANGSTROEM)
---------------------------------
  C     -3.549565    7.158404    0.977452
  C     -2.342711    6.316346    1.361899
  C     -2.704178    4.896877    1.805936
  C     -3.427036    4.041238    0.760729
  C     -2.690958    3.861407   -0.570834
  C     -1.287603    3.254677   -0.476259
  C     -1.276667    1.845562    0.115951
  C      0.118962    1.229956    0.071226
  P      0.194727   -0.438052    0.735811
  O     -0.446497   -0.544017    2.091514
  C      1.938155   -0.872800    0.787822
  C      2.684759   -0.794665   -0.539366
  C      4.101210   -1.374696   -0.481581
  C      5.051723   -0.574939    0.412105
  C      6.459521   -1.176369    0.489062
  C      7.221476   -1.265932   -0.837117
  C      7.397169    0.055523   -1.589258
  C      8.168550    1.103217   -0.801062
  C     -0.603961   -1.490891   -0.480642
  C     -0.545753   -2.977730   -0.147056
  C     -1.160764   -3.873299   -1.225501
  C     -2.640245   -3.626077   -1.534808
  C     -3.556103   -3.825300   -0.324488
  C     -5.028818   -3.688407   -0.720476
  C     -5.988007   -3.782255    0.468298
  C     -5.997363   -5.149909    1.134047
  H     -4.284389    7.185339    1.788389
  H     -3.238139    8.186915    0.768132
  H     -4.039434    6.771573    0.078792
  H     -1.821975    6.813371    2.189515
  H     -1.635509    6.287752    0.525784
  H     -1.788264    4.385752    2.125148
  H     -3.340286    4.957994    2.698230
  H     -4.412425    4.476970    0.555361
  H     -3.630344    3.056868    1.199368
  H     -2.619145    4.829469   -1.080545
  H     -3.307086    3.226427   -1.220191
  H     -0.629896    3.908727    0.107113
  H     -0.866623    3.219532   -1.489074
  H     -1.620831    1.865234    1.155397
  H     -1.974732    1.206682   -0.435742
  H      0.810258    1.856357    0.646541
  H      0.481875    1.214577   -0.962208
  H      2.409962   -0.202472    1.514177
  H      2.018714   -1.885880    1.196660
  H      2.723908    0.245727   -0.881402
  H      2.125808   -1.349333   -1.300418
  H      4.491442   -1.394896   -1.505203
  H      4.056817   -2.415527   -0.139007
  H      4.654568   -0.541209    1.432780
  H      5.102666    0.463249    0.066197
  H      6.388893   -2.186388    0.913109
  H      7.048768   -0.591739    1.205900
  H      8.212968   -1.690838   -0.634408
  H      6.720436   -1.982122   -1.499091
  H      7.940287   -0.148410   -2.520440
  H      6.423059    0.461102   -1.883563
  H      7.613852    1.428819    0.083408
  H      9.139941    0.715152   -0.477620
  H      8.347040    1.985556   -1.423942
  H     -1.648894   -1.170874   -0.543846
  H     -0.160001   -1.310121   -1.465016
  H     -1.024916   -3.157623    0.821802
  H      0.502657   -3.272844   -0.020081
  H     -1.033199   -4.919108   -0.919946
  H     -0.588975   -3.752958   -2.154112
  H     -2.940596   -4.321883   -2.328658
  H     -2.776630   -2.618192   -1.943657
  H     -3.322737   -3.084770    0.448366
  H     -3.372763   -4.816764    0.104137
  H     -5.179740   -2.716495   -1.206975
  H     -5.286065   -4.455523   -1.460851
  H     -5.738111   -3.015863    1.211118
  H     -7.001813   -3.561235    0.114042
  H     -6.768932   -5.183820    1.910138
  H     -5.038092   -5.370626    1.611533
  H     -6.213399   -5.939499    0.407553

----------------------------
CARTESIAN COORDINATES (A.U.)
----------------------------
  NO LB      ZA    FRAG     MASS         X           Y           Z
   0 C     6.0000    0    12.011   -6.707706   13.527423    1.847117
   1 C     6.0000    0    12.011   -4.427082   11.936164    2.573616
   2 C     6.0000    0    12.011   -5.110156    9.253756    3.412724
   3 C     6.0000    0    12.011   -6.476159    7.636833    1.437569
   4 C     6.0000    0    12.011   -5.085174    7.297002   -1.078720
   5 C     6.0000    0    12.011   -2.433217    6.150448   -0.899999
   6 C     6.0000    0    12.011   -2.412551    3.487607    0.219116
   7 C     6.0000    0    12.011    0.224806    2.324280    0.134598
   8 P    15.0000    0    30.974    0.367981   -0.827798    1.390481
   9 O     8.0000    0    15.999   -0.843757   -1.028043    3.952389
  10 C     6.0000    0    12.011    3.662582   -1.649353    1.488768
  11 C     6.0000    0    12.011    5.073459   -1.501699   -1.019254
  12 C     6.0000    0    12.011    7.750164   -2.597799   -0.910056
  13 C     6.0000    0    12.011    9.546373   -1.086477    0.778766
  14 C     6.0000    0    12.011   12.206726   -2.223015    0.924193
  15 C     6.0000    0    12.011   13.646612   -2.392265   -1.581922
  16 C     6.0000    0    12.011   13.978624    0.104923   -3.003262
  17 C     6.0000    0    12.011   15.436322    2.084778   -1.513788
  18 C     6.0000    0    12.011   -1.141321   -2.817376   -0.908282
  19 C     6.0000    0    12.011   -1.031324   -5.627094   -0.277896
  20 C     6.0000    0    12.011   -2.193526   -7.319474   -2.315861
  21 C     6.0000    0    12.011   -4.989340   -6.852292   -2.900367
  22 C     6.0000    0    12.011   -6.720061   -7.228769   -0.613193
  23 C     6.0000    0    12.011   -9.503089   -6.970079   -1.361502
  24 C     6.0000    0    12.011  -11.315693   -7.147426    0.884955
  25 C     6.0000    0    12.011  -11.333374   -9.731918    2.143038
  26 H     1.0000    0     1.008   -8.096322   13.578323    3.379565
  27 H     1.0000    0     1.008   -6.119196   15.471027    1.451559
  28 H     1.0000    0     1.008   -7.633424   12.796418    0.148895
  29 H     1.0000    0     1.008   -3.443034   12.875405    4.137584
  30 H     1.0000    0     1.008   -3.090664   11.882129    0.993588
  31 H     1.0000    0     1.008   -3.379329    8.287870    4.015948
  32 H     1.0000    0     1.008   -6.312226    9.369251    5.098916
  33 H     1.0000    0     1.008   -8.338275    8.460247    1.049480
  34 H     1.0000    0     1.008   -6.860356    5.776643    2.266477
  35 H     1.0000    0     1.008   -4.949467    9.126374   -2.041934
  36 H     1.0000    0     1.008   -6.249487    6.097063   -2.305827
  37 H     1.0000    0     1.008   -1.190331    7.386424    0.202414
  38 H     1.0000    0     1.008   -1.637680    6.084034   -2.813942
  39 H     1.0000    0     1.008   -3.062927    3.524781    2.183384
  40 H     1.0000    0     1.008   -3.731703    2.280299   -0.823433
  41 H     1.0000    0     1.008    1.531166    3.508006    1.221785
  42 H     1.0000    0     1.008    0.910612    2.295218   -1.818310
  43 H     1.0000    0     1.008    4.554168   -0.382617    2.861380
  44 H     1.0000    0     1.008    3.814817   -3.563797    2.261360
  45 H     1.0000    0     1.008    5.147440    0.464357   -1.665608
  46 H     1.0000    0     1.008    4.017195   -2.549870   -2.457434
  47 H     1.0000    0     1.008    8.487595   -2.635971   -2.844421
  48 H     1.0000    0     1.008    7.666273   -4.564684   -0.262685
  49 H     1.0000    0     1.008    8.795859   -1.022737    2.707562
  50 H     1.0000    0     1.008    9.642641    0.875414    0.125094
  51 H     1.0000    0     1.008   12.073258   -4.131675    1.725526
  52 H     1.0000    0     1.008   13.320241   -1.118225    2.278821
  53 H     1.0000    0     1.008   15.520260   -3.195221   -1.198857
  54 H     1.0000    0     1.008   12.699784   -3.745668   -2.832871
  55 H     1.0000    0     1.008   15.004968   -0.280454   -4.762941
  56 H     1.0000    0     1.008   12.137822    0.871356   -3.559418
  57 H     1.0000    0     1.008   14.388095    2.700077    0.157618
  58 H     1.0000    0     1.008   17.271985    1.351441   -0.902571
  59 H     1.0000    0     1.008   15.773620    3.752157   -2.690860
  60 H     1.0000    0     1.008   -3.115958   -2.212631   -1.027720
  61 H     1.0000    0     1.008   -0.302358   -2.475770   -2.768479
  62 H     1.0000    0     1.008   -1.936811   -5.967043    1.552981
  63 H     1.0000    0     1.008    0.949884   -6.184779   -0.037948
  64 H     1.0000    0     1.008   -1.952463   -9.295767   -1.738446
  65 H     1.0000    0     1.008   -1.113001   -7.092063   -4.070682
  66 H     1.0000    0     1.008   -5.556921   -8.167175   -4.400526
  67 H     1.0000    0     1.008   -5.247070   -4.947666   -3.672979
  68 H     1.0000    0     1.008   -6.279063   -5.829370    0.847289
  69 H     1.0000    0     1.008   -6.373598   -9.102365    0.196790
  70 H     1.0000    0     1.008   -9.788290   -5.133432   -2.280852
  71 H     1.0000    0     1.008   -9.989215   -8.419718   -2.760608
  72 H     1.0000    0     1.008  -10.843458   -5.699155    2.288681
  73 H     1.0000    0     1.008  -13.231509   -6.729759    0.215508
  74 H     1.0000    0     1.008  -12.791428   -9.796000    3.609638
  75 H     1.0000    0     1.008   -9.520614  -10.149012    3.045356
  76 H     1.0000    0     1.008  -11.741622  -11.224026    0.770164

--------------------------------
INTERNAL COORDINATES (ANGSTROEM)
--------------------------------
 C      0   0   0     0.000000000000     0.00000000     0.00000000
 C      1   0   0     1.520972632393     0.00000000     0.00000000
 C      2   1   0     1.530594489543   113.53922227     0.00000000
 C      3   2   1     1.532024627522   115.56018524    60.28667911
 C      4   3   2     1.532060714728   115.58314866    57.00874267
 C      5   4   3     1.531819499664   115.65737050    57.22344754
 C      6   5   4     1.528540926315   113.30421377    61.39269572
 C      7   6   5     1.526024697868   111.53533076   174.66812898
 P      8   7   6     1.797126663737   113.71201182   180.71477997
 O      9   8   7     1.503438533366   112.38957779   309.74210970
 C      9   8   7     1.797568401705   106.02555175   187.38060562
 C     11   9   8     1.524778868684   115.93312760   302.90271785
 C     12  11   9     1.531701179273   113.61334090   188.75383351
 C     13  12  11     1.530281310352   113.48591374   293.64453563
 C     14  13  12     1.532819504558   113.24943832   178.80603487
 C     15  14  13     1.532105640299   115.86427108    61.11642743
 C     16  15  14     1.530629749860   115.59219349    56.62589016
 C     17  16  15     1.521165441105   113.46641811    60.40373503
 C      9   8   7     1.796143196539   105.95321228    72.76095080
 C     19   9   8     1.524912457350   113.97903830   175.49048552
 C     20  19   9     1.530792599246   113.63936843   183.16250211
 C     21  20  19     1.531552665400   115.84530107   300.08173448
 C     22  21  20     1.530803770015   113.40708079   300.05859415
 C     23  22  21     1.531155008749   111.05959345   185.08298394
 C     24  23  22     1.530370741978   113.35774819   183.97924170
 C     25  24  23     1.521113647777   113.51384268   294.25678097
 H      1   2   3     1.094673751933   111.03953320    54.73700661
 H      1   2   3     1.094822311152   110.04257169   174.29287181
 H      1   2   3     1.094166191820   111.53786608   293.63984049
 H      2   1   3     1.096881067289   108.45420538   239.61491948
 H      2   1   3     1.095463636487   109.49804542   123.97746723
 H      3   2   1     1.096377454148   108.63411035   183.66423917
 H      3   2   1     1.097523237927   108.72895341   298.43729738
 H      4   3   2     1.096827184459   109.25426412   294.47570413
 H      4   3   2     1.096687107650   108.41514426   180.14133570
 H      5   4   3     1.096406150263   109.38313006   294.30320618
 H      5   4   3     1.097487050599   108.20593306   179.47677735
 H      6   5   4     1.095756720597   110.26379208   297.79861330
 H      6   5   4     1.097384871251   107.88767287   182.13818118
 H      7   6   5     1.095118182388   110.42191962   295.79034342
 H      7   6   5     1.095366406676   109.75454846    53.21177503
 H      8   7   6     1.096018121037   109.32335770    59.88250715
 H      8   7   6     1.095412338604   109.65203654   302.73069726
 H     11   9   8     1.095231965776   106.79646185    65.30440089
 H     11   9   8     1.095431124775   107.80608112   179.61210654
 H     12  11   9     1.095872612652   109.74342176    65.44715970
 H     12  11   9     1.095117782400   109.20942607   309.18162042
 H     13  12  11     1.095669225956   107.52345882   172.37243643
 H     13  12  11     1.096657127130   109.49699537    56.71275386
 H     14  13  12     1.095740508766   109.56937244    58.99258593
 H     14  13  12     1.095482476837   109.86278103   302.47802237
 H     15  14  13     1.097698753281   108.74329160   299.01957213
 H     15  14  13     1.096750191317   108.48796795   184.37800108
 H     16  15  14     1.097584818399   108.18107666   178.78372116
 H     16  15  14     1.096439133913   109.48267746   293.57001884
 H     17  16  15     1.097117016337   108.26524098   180.86365818
 H     17  16  15     1.095445137999   110.46238857   296.90320162
 H     18  17  16     1.093614975441   111.52529564   293.82587846
 H     18  17  16     1.094901660639   111.02961210    54.90833083
 H     18  17  16     1.094696435283   110.05920705   174.44150559
 H     19   9   8     1.094664606349   106.99024939   296.70625138
 H     19   9   8     1.094883759299   109.37899757    51.88661781
 H     20  19   9     1.095739246437   109.68265093    58.84932848
 H     20  19   9     1.096530187328   108.91968787   303.54279075
 H     21  20  19     1.096974544705   108.34841925   177.52295536
 H     21  20  19     1.097152225593   108.82798266    62.40723968
 H     22  21  20     1.097521997655   107.94473601   179.18251953
 H     22  21  20     1.096170856323   110.11669657    63.64894001
 H     23  22  21     1.095512517579   110.02062076    64.20983906
 H     23  22  21     1.095597466920   109.08520185   306.56304090
 H     24  23  22     1.097301992539   109.03466058   304.58236776
 H     24  23  22     1.096721531242   109.73446469    61.15924587
 H     25  24  23     1.096168901621   109.91530391    57.23989173
 H     25  24  23     1.096425902454   108.43308913   173.63386259
 H     26  25  24     1.094890824678   110.02418372   185.49017931
 H     26  25  24     1.094033694968   111.53192014    66.17183442
 H     26  25  24     1.094494154133   111.05956926   305.01647546

---------------------------
INTERNAL COORDINATES (A.U.)
---------------------------
 C      0   0   0     0.000000000000     0.00000000     0.00000000
 C      1   0   0     2.874221732412     0.00000000     0.00000000
 C      2   1   0     2.892404407325   113.53922227     0.00000000
 C      3   2   1     2.895106976439   115.56018524    60.28667911
 C      4   3   2     2.895175171376   115.58314866    57.00874267
 C      5   4   3     2.894719340965   115.65737050    57.22344754
 C      6   5   4     2.888523735226   113.30421377    61.39269572
 C      7   6   5     2.883768752570   111.53533076   174.66812898
 P      8   7   6     3.396077222430   113.71201182   180.71477997
 O      9   8   7     2.841087087246   112.38957779   309.74210970
 C      9   8   7     3.396911986213   106.02555175   187.38060562
 C     11   9   8     2.881414476603   115.93312760   302.90271785
 C     12  11   9     2.894495747831   113.61334090   188.75383351
 C     13  12  11     2.891812584424   113.48591374   293.64453563
 C     14  13  12     2.896609076347   113.24943832   178.80603487
 C     15  14  13     2.895260068401   115.86427108    61.11642743
 C     16  15  14     2.892471039667   115.59219349    56.62589016
 C     17  16  15     2.874586088074   113.46641811    60.40373503
 C      9   8   7     3.394218738765   105.95321228    72.76095080
 C     19   9   8     2.881666922596   113.97903830   175.49048552
 C     20  19   9     2.892778780409   113.63936843   183.16250211
 C     21  20  19     2.894215097283   115.84530107   300.08173448
 C     22  21  20     2.892799890103   113.40708079   300.05859415
 C     23  22  21     2.893463635118   111.05959345   185.08298394
 C     24  23  22     2.891981585703   113.35774819   183.97924170
 C     25  24  23     2.874488212868   113.51384268   294.25678097
 H      1   2   3     2.068633597144   111.03953320    54.73700661
 H      1   2   3     2.068914333385   110.04257169   174.29287181
 H      1   2   3     2.067674447535   111.53786608   293.63984049
 H      2   1   3     2.072804818659   108.45420538   239.61491948
 H      2   1   3     2.070126262630   109.49804542   123.97746723
 H      3   2   1     2.071853127746   108.63411035   183.66423917
 H      3   2   1     2.074018345296   108.72895341   298.43729738
 H      4   3   2     2.072702994868   109.25426412   294.47570413
 H      4   3   2     2.072438288060   108.41514426   180.14133570
 H      5   4   3     2.071907355544   109.38313006   294.30320618
 H      5   4   3     2.073949961158   108.20593306   179.47677735
 H      6   5   4     2.070680111332   110.26379208   297.79861330
 H      6   5   4     2.073756870172   107.88767287   182.13818118
 H      7   6   5     2.069473448990   110.42191962   295.79034342
 H      7   6   5     2.069942524915   109.75454846    53.21177503
 H      8   7   6     2.071174086575   109.32335770    59.88250715
 H      8   7   6     2.070029323680   109.65203654   302.73069726
 H     11   9   8     2.069688468433   106.79646185    65.30440089
 H     11   9   8     2.070064824397   107.80608112   179.61210654
 H     12  11   9     2.070899115577   109.74342176    65.44715970
 H     12  11   9     2.069472693123   109.20942607   309.18162042
 H     13  12  11     2.070514770423   107.52345882   172.37243643
 H     13  12  11     2.072381633089   109.49699537    56.71275386
 H     14  13  12     2.070649475411   109.56937244    58.99258593
 H     14  13  12     2.070161865732   109.86278103   302.47802237
 H     15  14  13     2.074350021247   108.74329160   299.01957213
 H     15  14  13     2.072557498914   108.48796795   184.37800108
 H     16  15  14     2.074134715525   108.18107666   178.78372116
 H     16  15  14     2.071969685609   109.48267746   293.57001884
 H     17  16  15     2.073250697742   108.26524098   180.86365818
 H     17  16  15     2.070091305554   110.46238857   296.90320162
 H     18  17  16     2.066632799538   111.52529564   293.82587846
 H     18  17  16     2.069064282183   111.02961210    54.90833083
 H     18  17  16     2.068676462464   110.05920705   174.44150559
 H     19   9   8     2.068616314497   106.99024939   296.70625138
 H     19   9   8     2.069030453553   109.37899757    51.88661781
 H     20  19   9     2.070647089955   109.68265093    58.84932848
 H     20  19   9     2.072141751627   108.91968787   303.54279075
 H     21  20  19     2.072981465376   108.34841925   177.52295536
 H     21  20  19     2.073317233592   108.82798266    62.40723968
 H     22  21  20     2.074016001522   107.94473601   179.18251953
 H     22  21  20     2.071462714436   110.11669657    63.64894001
 H     23  22  21     2.070218634507   110.02062076    64.20983906
 H     23  22  21     2.070379165496   109.08520185   306.56304090
 H     24  23  22     2.073600252104   109.03466058   304.58236776
 H     24  23  22     2.072503339222   109.73446469    61.15924587
 H     25  24  23     2.071459020584   109.91530391    57.23989173
 H     25  24  23     2.071944681775   108.43308913   173.63386259
 H     26  25  24     2.069043805184   110.02418372   185.49017931
 H     26  25  24     2.067424064772   111.53192014    66.17183442
 H     26  25  24     2.068294206490   111.05956926   305.01647546

---------------------
BASIS SET INFORMATION
---------------------
There are 4 groups of distinct atoms

 Group   1 Type C   : 7s4p1d contracted to 3s2p1d pattern {511/31/1}
 Group   2 Type P   : 10s7p1d contracted to 4s3p1d pattern {5311/511/1}
 Group   3 Type O   : 7s4p1d contracted to 3s2p1d pattern {511/31/1}
 Group   4 Type H   : 4s1p contracted to 2s1p pattern {31/1}

Atom   0C    basis set group =>   1
Atom   1C    basis set group =>   1
Atom   2C    basis set group =>   1
Atom   3C    basis set group =>   1
Atom   4C    basis set group =>   1
Atom   5C    basis set group =>   1
Atom   6C    basis set group =>   1
Atom   7C    basis set group =>   1
Atom   8P    basis set group =>   2
Atom   9O    basis set group =>   3
Atom  10C    basis set group =>   1
Atom  11C    basis set group =>   1
Atom  12C    basis set group =>   1
Atom  13C    basis set group =>   1
Atom  14C    basis set group =>   1
Atom  15C    basis set group =>   1
Atom  16C    basis set group =>   1
Atom  17C    basis set group =>   1
Atom  18C    basis set group =>   1
Atom  19C    basis set group =>   1
Atom  20C    basis set group =>   1
Atom  21C    basis set group =>   1
Atom  22C    basis set group =>   1
Atom  23C    basis set group =>   1
Atom  24C    basis set group =>   1
Atom  25C    basis set group =>   1
Atom  26H    basis set group =>   4
Atom  27H    basis set group =>   4
Atom  28H    basis set group =>   4
Atom  29H    basis set group =>   4
Atom  30H    basis set group =>   4
Atom  31H    basis set group =>   4
Atom  32H    basis set group =>   4
Atom  33H    basis set group =>   4
Atom  34H    basis set group =>   4
Atom  35H    basis set group =>   4
Atom  36H    basis set group =>   4
Atom  37H    basis set group =>   4
Atom  38H    basis set group =>   4
Atom  39H    basis set group =>   4
Atom  40H    basis set group =>   4
Atom  41H    basis set group =>   4
Atom  42H    basis set group =>   4
Atom  43H    basis set group =>   4
Atom  44H    basis set group =>   4
Atom  45H    basis set group =>   4
Atom  46H    basis set group =>   4
Atom  47H    basis set group =>   4
Atom  48H    basis set group =>   4
Atom  49H    basis set group =>   4
Atom  50H    basis set group =>   4
Atom  51H    basis set group =>   4
Atom  52H    basis set group =>   4
Atom  53H    basis set group =>   4
Atom  54H    basis set group =>   4
Atom  55H    basis set group =>   4
Atom  56H    basis set group =>   4
Atom  57H    basis set group =>   4
Atom  58H    basis set group =>   4
Atom  59H    basis set group =>   4
Atom  60H    basis set group =>   4
Atom  61H    basis set group =>   4
Atom  62H    basis set group =>   4
Atom  63H    basis set group =>   4
Atom  64H    basis set group =>   4
Atom  65H    basis set group =>   4
Atom  66H    basis set group =>   4
Atom  67H    basis set group =>   4
Atom  68H    basis set group =>   4
Atom  69H    basis set group =>   4
Atom  70H    basis set group =>   4
Atom  71H    basis set group =>   4
Atom  72H    basis set group =>   4
Atom  73H    basis set group =>   4
Atom  74H    basis set group =>   4
Atom  75H    basis set group =>   4
Atom  76H    basis set group =>   4
---------------------------------
AUXILIARY/J BASIS SET INFORMATION
---------------------------------
There are 4 groups of distinct atoms

 Group   1 Type C   : 12s5p4d2f1g contracted to 6s4p3d1f1g pattern {711111/2111/211/2/1}
 Group   2 Type P   : 14s5p5d2f1g contracted to 8s4p3d1f1g pattern {71111111/2111/311/2/1}
 Group   3 Type O   : 12s5p4d2f1g contracted to 6s4p3d1f1g pattern {711111/2111/211/2/1}
 Group   4 Type H   : 5s2p1d contracted to 3s1p1d pattern {311/2/1}

Atom   0C    basis set group =>   1
Atom   1C    basis set group =>   1
Atom   2C    basis set group =>   1
Atom   3C    basis set group =>   1
Atom   4C    basis set group =>   1
Atom   5C    basis set group =>   1
Atom   6C    basis set group =>   1
Atom   7C    basis set group =>   1
Atom   8P    basis set group =>   2
Atom   9O    basis set group =>   3
Atom  10C    basis set group =>   1
Atom  11C    basis set group =>   1
Atom  12C    basis set group =>   1
Atom  13C    basis set group =>   1
Atom  14C    basis set group =>   1
Atom  15C    basis set group =>   1
Atom  16C    basis set group =>   1
Atom  17C    basis set group =>   1
Atom  18C    basis set group =>   1
Atom  19C    basis set group =>   1
Atom  20C    basis set group =>   1
Atom  21C    basis set group =>   1
Atom  22C    basis set group =>   1
Atom  23C    basis set group =>   1
Atom  24C    basis set group =>   1
Atom  25C    basis set group =>   1
Atom  26H    basis set group =>   4
Atom  27H    basis set group =>   4
Atom  28H    basis set group =>   4
Atom  29H    basis set group =>   4
Atom  30H    basis set group =>   4
Atom  31H    basis set group =>   4
Atom  32H    basis set group =>   4
Atom  33H    basis set group =>   4
Atom  34H    basis set group =>   4
Atom  35H    basis set group =>   4
Atom  36H    basis set group =>   4
Atom  37H    basis set group =>   4
Atom  38H    basis set group =>   4
Atom  39H    basis set group =>   4
Atom  40H    basis set group =>   4
Atom  41H    basis set group =>   4
Atom  42H    basis set group =>   4
Atom  43H    basis set group =>   4
Atom  44H    basis set group =>   4
Atom  45H    basis set group =>   4
Atom  46H    basis set group =>   4
Atom  47H    basis set group =>   4
Atom  48H    basis set group =>   4
Atom  49H    basis set group =>   4
Atom  50H    basis set group =>   4
Atom  51H    basis set group =>   4
Atom  52H    basis set group =>   4
Atom  53H    basis set group =>   4
Atom  54H    basis set group =>   4
Atom  55H    basis set group =>   4
Atom  56H    basis set group =>   4
Atom  57H    basis set group =>   4
Atom  58H    basis set group =>   4
Atom  59H    basis set group =>   4
Atom  60H    basis set group =>   4
Atom  61H    basis set group =>   4
Atom  62H    basis set group =>   4
Atom  63H    basis set group =>   4
Atom  64H    basis set group =>   4
Atom  65H    basis set group =>   4
Atom  66H    basis set group =>   4
Atom  67H    basis set group =>   4
Atom  68H    basis set group =>   4
Atom  69H    basis set group =>   4
Atom  70H    basis set group =>   4
Atom  71H    basis set group =>   4
Atom  72H    basis set group =>   4
Atom  73H    basis set group =>   4
Atom  74H    basis set group =>   4
Atom  75H    basis set group =>   4
Atom  76H    basis set group =>   4


           ************************************************************
           *        Program running with 6 parallel MPI-processes     *
           *              working on a common directory               *
           ************************************************************
------------------------------------------------------------------------------
                             ORCA STARTUP CALCULATIONS
                           -- RI-GTO INTEGRALS CHOSEN --
------------------------------------------------------------------------------
------------------------------------------------------------------------------
                   ___                                                        
                  /   \      - P O W E R E D   B Y -                         
                 /     \                                                     
                 |  |  |   _    _      __       _____    __    __             
                 |  |  |  | |  | |    /  \     |  _  \  |  |  /  |          
                  \  \/   | |  | |   /    \    | | | |  |  | /  /          
                 / \  \   | |__| |  /  /\  \   | |_| |  |  |/  /          
                |  |  |   |  __  | /  /__\  \  |    /   |      \           
                |  |  |   | |  | | |   __   |  |    \   |  |\   \          
                \     /   | |  | | |  |  |  |  | |\  \  |  | \   \       
                 \___/    |_|  |_| |__|  |__|  |_| \__\ |__|  \__/        
                                                                              
                      - O R C A' S   B I G   F R I E N D -                    
                                      &                                       
                       - I N T E G R A L  F E E D E R -                       
                                                                              
 v1 FN, 2020, v2 2021, v3 2022-2024                                           
------------------------------------------------------------------------------


----------------------
SHARK INTEGRAL PACKAGE
----------------------

Number of atoms                             ...     77
Number of basis functions                   ...    623
Number of shells                            ...    311
Maximum angular momentum                    ...      2
Integral batch strategy                     ... SHARK/LIBINT Hybrid
RI-J (if used) integral strategy            ... SPLIT-RIJ (Revised 2003 algorithm where possible)
Printlevel                                  ...      1
Contraction scheme used                     ... SEGMENTED contraction
Prescreening option                         ... SCHWARTZ
   Thresh                                   ... 2.500e-11
   Tcut                                     ... 2.500e-12
   Tpresel                                  ... 2.500e-12 
Coulomb Range Separation                    ... NOT USED
Exchange Range Separation                   ... NOT USED
Multipole approximations                    ... NOT USED
Finite Nucleus Model                        ... NOT USED
CABS basis                                  ... NOT available
Auxiliary Coulomb fitting basis             ... AVAILABLE
   # of basis functions in Aux-J            ...   1837
   # of shells in Aux-J                     ...    647
   Maximum angular momentum in Aux-J        ...      4
Auxiliary J/K fitting basis                 ... NOT available
Auxiliary Correlation fitting basis         ... NOT available
Auxiliary 'external' fitting basis          ... NOT available

Checking pre-screening integrals            ... done (  0.0 sec) Dimension = 311
Check shell pair data                       ... done (  0.0 sec)
Shell pair information
Shell pair cut-off parameter TPreSel        ...   2.5e-12
Total number of shell pairs                 ...     48516
Shell pairs after pre-screening             ...     24584
Total number of primitive shell pairs       ...    164952
Primitive shell pairs kept                  ...     53161
          la=0 lb=0:   9118 shell pairs
          la=1 lb=0:   9579 shell pairs
          la=1 lb=1:   2490 shell pairs
          la=2 lb=0:   2174 shell pairs
          la=2 lb=1:   1094 shell pairs
          la=2 lb=2:    129 shell pairs

Calculating one electron integrals          ... done (  0.1 sec)
Calculating RI/J V-Matrix + Cholesky decomp.... done (  0.2 sec)
Calculating Nuclear repulsion               ... done (  0.0 sec) ENN=   2560.485653157852 Eh

Diagonalization of the overlap matrix:
Smallest eigenvalue                        ... 9.839e-04
Time for diagonalization                   ...    0.072 sec
Threshold for overlap eigenvalues          ... 1.000e-07
Number of eigenvalues below threshold      ... 0
Time for construction of square roots      ...    0.036 sec
Total time needed                          ...    0.113 sec

-------------------
DFT GRID GENERATION
-------------------

General Integration Accuracy     IntAcc      ... 4.388
Radial Grid Type                 RadialGrid  ... OptM3 with GC (2021)
Angular Grid (max. ang.)         AngularGrid ... 4 (Lebedev-302)
Angular grid pruning method      GridPruning ... 4 (adaptive)
Weight generation scheme         WeightScheme... mBecke (2022)
Basis function cutoff            BFCut       ... 1.0000e-11
Integration weight cutoff        WCut        ... 1.0000e-14
Partially contracted basis set               ... off
Rotationally invariant grid construction     ... off
Angular grids for H and He will be reduced by one unit

Total number of grid points                  ...   316995
Total number of batches                      ...     4994
Average number of points per batch           ...       63
Average number of grid points per atom       ...     4117
Initializing property integral containers    ... done (  0.0 sec)

SHARK setup successfully completed in   2.9 seconds

Maximum memory used throughout the entire STARTUP-calculation: 92.3 MB


           ************************************************************
           *        Program running with 6 parallel MPI-processes     *
           *              working on a common directory               *
           ************************************************************
-------------------------------------------------------------------------------
                                 ORCA GUESS
                   Start orbitals & Density for SCF / CASSCF
-------------------------------------------------------------------------------

------------
SCF SETTINGS
------------
Hamiltonian:
 Density Functional     Method          .... DFT(GTOs)
 Exchange Functional    Exchange        .... B88
   X-Alpha parameter    XAlpha          ....  0.666667
   Becke's b parameter  XBeta           ....  0.004200
 Correlation Functional Correlation     .... P86
 LDA part of GGA corr.  LDAOpt          .... PW91-LDA
 Gradients option       PostSCFGGA      .... off
   NL short-range parameter             ....  4.400000
 RI-approximation to the Coulomb term is turned on
   Number of AuxJ basis functions       .... 1837


General Settings:
 Integral files         IntName         .... data/geom_opt_PO_BP86/20851/20851
 Hartree-Fock type      HFTyp           .... RHF
 Total Charge           Charge          ....    0
 Multiplicity           Mult            ....    1
 Number of Electrons    NEL             ....  218
 Basis Dimension        Dim             ....  623
 Nuclear Repulsion      ENuc            ....   2560.4856531579 Eh

Convergence Acceleration:
 AO-DIIS                CNVDIIS         .... on
   Start iteration      DIISMaxIt       ....    12
   Startup error        DIISStart       ....  0.200000
   # of expansion vecs  DIISMaxEq       ....     5
   Bias factor          DIISBfac        ....   1.050
   Max. coefficient     DIISMaxC        ....  10.000
 MO-DIIS                CNVKDIIS        .... off
 Trust-Rad. Augm. Hess. CNVTRAH         .... auto
   Auto Start mean grad. ratio tolernc. ....  1.125000
   Auto Start start iteration           ....    50
   Auto Start num. interpolation iter.  ....    10
   Max. Number of Micro iterations      ....    24
   Max. Number of Macro iterations      .... Maxiter - #DIIS iter
   Number of Davidson start vectors     ....     2
   Converg. threshold    (grad. norm)   ....   1.000e-05
   Grad. Scal. Fac. for Micro threshold ....   0.100
   Minimum threshold for Micro iter.    ....   1.000e-02
   NR start threshold (gradient norm)   ....   1.000e-04
   Initial trust radius                 ....   0.400
   Minimum AH scaling param. (alpha)    ....   1.000
   Maximum AH scaling param. (alpha)    .... 1000.000
   Quad. conv. algorithm                .... NR
   White noise on init. David. guess    .... on
   Maximum white noise                  ....   0.010
   Pseudo random numbers                .... off
   Inactive MOs                         .... canonical
   Orbital update algorithm             .... Taylor
   Preconditioner                       .... Diag
   Full preconditioner red. dimension   ....   250
 SOSCF                  CNVSOSCF        .... on
   Start iteration      SOSCFMaxIt      ....   150
   Startup grad/error   SOSCFStart      ....  0.003300
   Hessian update       SOSCFHessUp     .... L-BFGS
 Level Shifting         CNVShift        .... on
   Level shift para.    LevelShift      ....    0.2500
   Turn off err/grad.   ShiftErr        ....    0.0010
 Zerner damping         CNVZerner       .... off
 Static damping         CNVDamp         .... on
   Fraction old density DampFac         ....    0.7000
   Max. Damping (<1)    DampMax         ....    0.9800
   Min. Damping (>=0)   DampMin         ....    0.0000
   Turn off err/grad.   DampErr         ....    0.1000

SCF Procedure:
 Maximum # iterations   MaxIter         ....   125
 SCF integral mode      SCFMode         .... Direct
   Integral package                     .... SHARK and LIBINT hybrid scheme
 Reset frequency        DirectResetFreq ....    20
 Integral Threshold     Thresh          ....  2.500e-11 Eh
 Primitive CutOff       TCut            ....  2.500e-12 Eh

Convergence Tolerance:
 Convergence Check Mode ConvCheckMode   .... Total+1el-Energy
 Convergence forced     ConvForced      .... 0
 Energy Change          TolE            ....  1.000e-08 Eh
 1-El. energy change                    ....  1.000e-05 Eh
 Orbital Gradient       TolG            ....  1.000e-05
 Orbital Rotation angle TolX            ....  1.000e-05
[...]
      pz      :     0.014177  p :     0.064358
      px      :     0.033799
      py      :     0.016382

 73 H s       :     0.914384  s :     0.914384
      pz      :     0.012655  p :     0.063573
      px      :     0.023841
      py      :     0.027077

 74 H s       :     0.909275  s :     0.909275
      pz      :     0.033285  p :     0.063199
      px      :     0.012475
      py      :     0.017439

 75 H s       :     0.907769  s :     0.907769
      pz      :     0.012863  p :     0.064136
      px      :     0.024913
      py      :     0.026360

 76 H s       :     0.913765  s :     0.913765
      pz      :     0.013452  p :     0.062941
      px      :     0.031886
      py      :     0.017604



                      *****************************
                      * MAYER POPULATION ANALYSIS *
                      *****************************

  NA   - Mulliken gross atomic population
  ZA   - Total nuclear charge
  QA   - Mulliken gross atomic charge
  VA   - Mayer's total valence
  BVA  - Mayer's bonded valence
  FA   - Mayer's free valence

  ATOM       NA         ZA         QA         VA         BVA        FA
  0 C      6.0655     6.0000    -0.0655     4.0181     4.0181    -0.0000
  1 C      6.0515     6.0000    -0.0515     4.1211     4.1211    -0.0000
  2 C      6.0363     6.0000    -0.0363     4.1014     4.1014    -0.0000
  3 C      6.0530     6.0000    -0.0530     4.1001     4.1001    -0.0000
  4 C      6.0083     6.0000    -0.0083     4.0887     4.0887    -0.0000
  5 C      6.0162     6.0000    -0.0162     4.0938     4.0938    -0.0000
  6 C      6.0653     6.0000    -0.0653     4.0666     4.0666    -0.0000
  7 C      6.1335     6.0000    -0.1335     3.8944     3.8944    -0.0000
  8 P     14.5592    15.0000     0.4408     4.8189     4.8189    -0.0000
  9 O      8.4587     8.0000    -0.4587     2.1319     2.1319    -0.0000
 10 C      6.1411     6.0000    -0.1411     3.8581     3.8581    -0.0000
 11 C      6.0202     6.0000    -0.0202     4.0512     4.0512    -0.0000
 12 C      6.0214     6.0000    -0.0214     4.0872     4.0872    -0.0000
 13 C      6.0493     6.0000    -0.0493     4.0866     4.0866    -0.0000
 14 C      6.0123     6.0000    -0.0123     4.0904     4.0904    -0.0000
 15 C      6.0374     6.0000    -0.0374     4.0942     4.0942    -0.0000
 16 C      6.0572     6.0000    -0.0572     4.1260     4.1260    -0.0000
 17 C      6.0660     6.0000    -0.0660     4.0194     4.0194    -0.0000
 18 C      6.1459     6.0000    -0.1459     3.8864     3.8864    -0.0000
 19 C      6.0215     6.0000    -0.0215     4.0647     4.0647    -0.0000
 20 C      5.9979     6.0000     0.0021     4.0919     4.0919    -0.0000
 21 C      6.0360     6.0000    -0.0360     4.0804     4.0804    -0.0000
 22 C      6.0740     6.0000    -0.0740     4.0361     4.0361    -0.0000
 23 C      6.0276     6.0000    -0.0276     4.0971     4.0971    -0.0000
 24 C      6.0599     6.0000    -0.0599     4.1292     4.1292    -0.0000
 25 C      6.0554     6.0000    -0.0554     4.0130     4.0130    -0.0000
 26 H      0.9733     1.0000     0.0267     0.9880     0.9880    -0.0000
 27 H      0.9721     1.0000     0.0279     0.9826     0.9826    -0.0000
 28 H      0.9685     1.0000     0.0315     0.9918     0.9918    -0.0000
 29 H      0.9814     1.0000     0.0186     0.9739     0.9739    -0.0000
 30 H      0.9824     1.0000     0.0176     0.9841     0.9841    -0.0000
 31 H      0.9765     1.0000     0.0235     0.9885     0.9885    -0.0000
 32 H      0.9823     1.0000     0.0177     0.9834     0.9834    -0.0000
 33 H      0.9868     1.0000     0.0132     0.9853     0.9853    -0.0000
 34 H      0.9705     1.0000     0.0295     1.0122     1.0122    -0.0000
 35 H      0.9843     1.0000     0.0157     0.9834     0.9834    -0.0000
 36 H      0.9893     1.0000     0.0107     0.9788     0.9788    -0.0000
 37 H      0.9837     1.0000     0.0163     0.9912     0.9912    -0.0000
 38 H      0.9912     1.0000     0.0088     0.9774     0.9774    -0.0000
 39 H      0.9394     1.0000     0.0606     1.0233     1.0233    -0.0000
 40 H      0.9727     1.0000     0.0273     0.9865     0.9865    -0.0000
 41 H      0.9504     1.0000     0.0496     0.9922     0.9922    -0.0000
 42 H      0.9552     1.0000     0.0448     0.9859     0.9859    -0.0000
 43 H      0.9298     1.0000     0.0702     0.9981     0.9981    -0.0000
 44 H      0.9448     1.0000     0.0552     0.9948     0.9948    -0.0000
 45 H      0.9755     1.0000     0.0245     0.9878     0.9878    -0.0000
 46 H      0.9774     1.0000     0.0226     0.9853     0.9853    -0.0000
 47 H      0.9778     1.0000     0.0222     0.9848     0.9848    -0.0000
 48 H      0.9870     1.0000     0.0130     0.9854     0.9854    -0.0000
 49 H      0.9795     1.0000     0.0205     0.9851     0.9851    -0.0000
 50 H      0.9856     1.0000     0.0144     0.9899     0.9899    -0.0000
 51 H      0.9867     1.0000     0.0133     0.9797     0.9797    -0.0000
 52 H      0.9813     1.0000     0.0187     0.9842     0.9842    -0.0000
 53 H      0.9848     1.0000     0.0152     0.9787     0.9787    -0.0000
 54 H      0.9808     1.0000     0.0192     0.9823     0.9823    -0.0000
 55 H      0.9799     1.0000     0.0201     0.9739     0.9739    -0.0000
 56 H      0.9814     1.0000     0.0186     0.9828     0.9828    -0.0000
 57 H      0.9672     1.0000     0.0328     0.9924     0.9924    -0.0000
 58 H      0.9719     1.0000     0.0281     0.9877     0.9877    -0.0000
 59 H      0.9694     1.0000     0.0306     0.9828     0.9828    -0.0000
 60 H      0.9603     1.0000     0.0397     1.0216     1.0216    -0.0000
 61 H      0.9601     1.0000     0.0399     0.9930     0.9930    -0.0000
 62 H      0.9471     1.0000     0.0529     1.0196     1.0196    -0.0000
 63 H      0.9818     1.0000     0.0182     0.9756     0.9756    -0.0000
 64 H      0.9838     1.0000     0.0162     0.9797     0.9797    -0.0000
 65 H      0.9899     1.0000     0.0101     0.9739     0.9739     0.0000
 66 H      0.9910     1.0000     0.0090     0.9781     0.9781    -0.0000
 67 H      0.9970     1.0000     0.0030     0.9917     0.9917    -0.0000
 68 H      0.9564     1.0000     0.0436     1.0678     1.0678    -0.0000
 69 H      0.9887     1.0000     0.0113     0.9844     0.9844    -0.0000
 70 H      1.0008     1.0000    -0.0008     0.9916     0.9916    -0.0000
 71 H      0.9976     1.0000     0.0024     0.9793     0.9793    -0.0000
 72 H      0.9532     1.0000     0.0468     0.9898     0.9898    -0.0000
 73 H      0.9814     1.0000     0.0186     0.9713     0.9713    -0.0000
 74 H      0.9763     1.0000     0.0237     0.9833     0.9833    -0.0000
 75 H      0.9619     1.0000     0.0381     0.9914     0.9914    -0.0000
 76 H      0.9814     1.0000     0.0186     0.9868     0.9868    -0.0000

  Mayer bond orders larger than 0.100000
B(  0-C ,  1-C ) :   1.1101 B(  0-C , 26-H ) :   0.9661 B(  0-C , 27-H ) :   0.9619 
B(  0-C , 28-H ) :   0.9629 B(  1-C ,  2-C ) :   1.0950 B(  1-C , 29-H ) :   0.9360 
B(  1-C , 30-H ) :   0.9308 B(  2-C ,  3-C ) :   1.0982 B(  2-C , 31-H ) :   0.9225 
B(  2-C , 32-H ) :   0.9284 B(  3-C ,  4-C ) :   1.0912 B(  3-C , 33-H ) :   0.9228 
B(  3-C , 34-H ) :   0.9177 B(  4-C ,  5-C ) :   1.0965 B(  4-C , 35-H ) :   0.9246 
B(  4-C , 36-H ) :   0.9263 B(  5-C ,  6-C ) :   1.0919 B(  5-C , 37-H ) :   0.9215 
B(  5-C , 38-H ) :   0.9286 B(  6-C ,  7-C ) :   1.0630 B(  6-C , 39-H ) :   0.9100 
B(  6-C , 40-H ) :   0.9291 B(  7-C ,  8-P ) :   0.9262 B(  7-C , 41-H ) :   0.9193 
B(  7-C , 42-H ) :   0.9122 B(  8-P ,  9-O ) :   1.7914 B(  8-P , 10-C ) :   0.9186 
B(  8-P , 18-C ) :   0.9377 B( 10-C , 11-C ) :   1.0314 B( 10-C , 43-H ) :   0.9157 
B( 10-C , 44-H ) :   0.9237 B( 11-C , 12-C ) :   1.0969 B( 11-C , 45-H ) :   0.9275 
B( 11-C , 46-H ) :   0.9306 B( 12-C , 13-C ) :   1.0868 B( 12-C , 47-H ) :   0.9230 
B( 12-C , 48-H ) :   0.9315 B( 13-C , 14-C ) :   1.0945 B( 13-C , 49-H ) :   0.9270 
B( 13-C , 50-H ) :   0.9265 B( 14-C , 15-C ) :   1.0908 B( 14-C , 51-H ) :   0.9272 
B( 14-C , 52-H ) :   0.9297 B( 15-C , 16-C ) :   1.0941 B( 15-C , 53-H ) :   0.9307 
B( 15-C , 54-H ) :   0.9310 B( 16-C , 17-C ) :   1.1110 B( 16-C , 55-H ) :   0.9361 
B( 16-C , 56-H ) :   0.9333 B( 17-C , 57-H ) :   0.9625 B( 17-C , 58-H ) :   0.9664 
B( 17-C , 59-H ) :   0.9621 B( 18-C , 19-C ) :   1.0417 B( 18-C , 60-H ) :   0.9203 
B( 18-C , 61-H ) :   0.9095 B( 19-C , 20-C ) :   1.0965 B( 19-C , 62-H ) :   0.9261 
B( 19-C , 63-H ) :   0.9323 B( 20-C , 21-C ) :   1.0941 B( 20-C , 64-H ) :   0.9276 
B( 20-C , 65-H ) :   0.9334 B( 21-C , 22-C ) :   1.0841 B( 21-C , 66-H ) :   0.9228 
B( 21-C , 67-H ) :   0.9239 B( 22-C , 23-C ) :   1.0846 B( 22-C , 68-H ) :   0.9044 
B( 22-C , 69-H ) :   0.9268 B( 23-C , 24-C ) :   1.1029 B( 23-C , 70-H ) :   0.9241 
B( 23-C , 71-H ) :   0.9295 B( 24-C , 25-C ) :   1.1067 B( 24-C , 72-H ) :   0.9316 
B( 24-C , 73-H ) :   0.9299 B( 25-C , 74-H ) :   0.9609 B( 25-C , 75-H ) :   0.9647 
B( 25-C , 76-H ) :   0.9651 

-------
TIMINGS
-------

Total SCF time: 0 days 0 hours 0 min 14 sec 

Total time                  ....      14.209 sec
Sum of individual times     ....      14.024 sec  ( 98.7%)

SCF preparation             ....       0.272 sec  (  1.9%)
Fock matrix formation       ....      12.070 sec  ( 84.9%)
  Startup                   ....       0.066 sec  (  0.5% of F)
  Split-RI-J                ....       5.161 sec  ( 42.8% of F)
  XC integration            ....       6.639 sec  ( 55.0% of F)
    Basis function eval.    ....       2.036 sec  ( 30.7% of XC)
    Density eval.           ....       2.270 sec  ( 34.2% of XC)
    XC-Functional eval.     ....       0.169 sec  (  2.5% of XC)
    XC-Potential eval.      ....       1.238 sec  ( 18.6% of XC)
Diagonalization             ....       0.000 sec  (  0.0%)
Density matrix formation    ....       0.168 sec  (  1.2%)
Total Energy calculation    ....       0.051 sec  (  0.4%)
Population analysis         ....       0.293 sec  (  2.1%)
Orbital Transformation      ....       0.157 sec  (  1.1%)
Orbital Orthonormalization  ....       0.000 sec  (  0.0%)
DIIS solution               ....       0.170 sec  (  1.2%)
SOSCF solution              ....       0.843 sec  (  5.9%)
Finished LeanSCF after  14.4 sec

Maximum memory used throughout the entire LEANSCF-calculation: 78.7 MB


-------------------------------------------------------------------------------
                          DFT DISPERSION CORRECTION                            
                                                                               
                              DFTD3 V3.1  Rev 1                                
                          USING Becke-Johnson damping                          
-------------------------------------------------------------------------------
The BP86 functional is recognized
Active option DFTDOPT                   ...         4   

molecular C6(AA) [au] = 43082.351113 


            DFT-D V3
 parameters
 s6 scaling factor         :     1.0000 
 a1 scaling factor         :     0.3946 
 s8 scaling factor         :     3.2822 
 a2 scaling factor         :     4.8516 
 ad hoc parameters k1-k3   :    16.0000     1.3333    -4.0000 

 Edisp/kcal,au: -84.520904802639  -0.134692621036 
 E6   /kcal   : -34.231864794 
 E8   /kcal   : -50.289040008 
 % E8         :  59.498937128 

-------------------------   ----------------
Dispersion correction           -0.134692621
-------------------------   ----------------


-------------------------   --------------------
FINAL SINGLE POINT ENERGY     -1361.186686129931
-------------------------   --------------------

                                *** OPTIMIZATION RUN DONE ***



           ************************************************************
           *        Program running with 6 parallel MPI-processes     *
           *              working on a common directory               *
           ************************************************************

------------------------------------------------------------------------------
                              ORCA PROPERTY CALCULATIONS
------------------------------------------------------------------------------

GBWName                                 ... data/geom_opt_PO_BP86/20851/20851.gbw
Number of atoms                         ...     77
Number of basis functions               ...    623
Max core memory                         ...   1024 MB

Electric properties:
Dipole moment                           ... YES
Quadrupole moment                       ...  NO
Static polarizability (Dipole/Dipole)   ...  NO
Static polarizability (Dipole/Quad.)    ...  NO
Static polarizability (Quad./Quad.)     ...  NO
Static polarizability (Velocity)        ...  NO

Atomic electric properties:
Dipole moment                           ...  NO
Quadrupole moment                       ...  NO
Static polarizability                   ...  NO

Choice of electric origin               ... Center of mass
Position of electric origin             ...     0.018882    -0.283826    -0.038032

General magnetic properties:
Magnetizability                         ...  NO

EPR properties:
g-Tensor (aka g-matrix)                 ...  NO
Zero-Field splitting spin-orbit         ...  NO
Zero-field splitting spin-spin          ...  NO
Hyperfine couplings                     ...  NO (   0 nuclei)
Quadrupole couplings                    ...  NO (   0 nuclei)
Contact density                         ...  NO (   0 nuclei)

NMR properties:
Chemical shifts                         ...  NO (   0 nuclei)
Spin-rotation constants                 ...  NO (   0 nuclei)
Spin-spin couplings                     ...  NO (   0 nuclei,    0 pairs)

Choice of magnetic origin               ... GIAO
Position of magnetic origin             ...     0.000000     0.000000     0.000000

Properties with geometric perturbations:
SCF Hessian                             ...  NO
IR spectrum                             ...  NO
VCD spectrum                            ...  NO
X-ray spectroscopy properties:
SCF XES/XAS/RIXS spectra                ...  NO


-------------
DIPOLE MOMENT
-------------

Method             : SCF
Type of density    : Electron Density
Multiplicity       :   1
Irrep              :   0
Energy             : -1361.0519935088946113 Eh
Relativity type    : 
Basis              : AO
                                X                 Y                 Z
Electronic contribution:      1.964732579     -10.569129904      -1.770866304
Nuclear contribution   :     -0.801163746      10.860797212       0.766670342
                        -----------------------------------------
Total Dipole Moment    :      1.163568833       0.291667308      -1.004195961
                        -----------------------------------------
Magnitude (a.u.)       :      1.564407804
Magnitude (Debye)      :      3.976408627



--------------------
Rotational spectrum 
--------------------
 
Rotational constants in cm-1:             0.006514             0.002380             0.001916 
Rotational constants in MHz :           195.281471            71.365266            57.431078 

Dipole components along the rotational axes: 
x,y,z [a.u.] :    -1.192037     0.271824    -0.975977 
x,y,z [Debye]:    -3.029918     0.690920    -2.480736 

 

Dipole moment calculation done in   0.1 sec 

Maximum memory used throughout the entire PROP-calculation: 42.3 MB

--------------------------------
SUGGESTED CITATIONS FOR THIS RUN
--------------------------------

Below you find a list of papers that are relevant to this ORCA run
We neither can nor want to force you to cite these papers, but we appreciate if you do
You receive ORCA, which is the product of decades of hard work by many enthusiastic individuals, for free
The only thing we kindly ask in return is that you cite our papers,
We deeply appreciate it, if you show your appreciation for ORCA by not just citing the generic ORCA reference.

Please note that relegating all ORCA citations to the supporting information does *not* help us.
SI sections are not indexed - citations you put there will not count into any citation statistics
But we need these citations in order to attract the funding resources that allow us to do what we are doing

Therefore, if you are a happy ORCA user, please consider citing a few of the papers listed below in the main body of your paper

In addition to the list printed below, the program has created the file data/geom_opt_PO_BP86/20851/20851.bibtex that contains the list in bibtex format
You can import this file easily into all common literature databanks and citation aid programs


List of essential papers. We consider these as the minimum necessary citations

  1. Neese,F.
     Software update: the ORCA program system, version 5.0
     WIRES Comput. Molec. Sci., 2022 12(1)e1606
     doi.org/10.1002/wcms.1606

List of papers to cite with high priority. The work reported in these papers was absolutely
necessary for this run to complete.
Our perspective: the developers of density functionals and basis sets usually get cited in chemistry papers
Good! But without the algorithms to do something with them, the functionals or basis sets would not do anything.
Hence, in our opinion, the algorithm design and method developments papers are equally worthy of getting cited

  1. Neese,F.
     An improvement of the resolution of the identity approximation for the formation of the Coulomb matrix
     J. Comp. Chem., 2003 24(14)1740-1747
     doi.org/10.1002/jcc.10318
  2. Neese,F.
     The SHARK Integral Generation and Digestion System
     J. Comp. Chem., 2022  1-16
     doi.org/10.1002/jcc.26942
  3. Grimme,S.; Antony,J.; Ehrlich,S.; Krieg,H.
     A consistent and accurate ab initio parametrization of density functional dispersion correction (DFT-D) for the 94 elements H-Pu
     J. Chem. Phys., 2010 132 154104-XXXX
     doi.org/10.1063/1.3382344
  4. Grimme,S.; Ehrlich,S.; Goerigk,L.
     Effect of the damping function in dispersion corrected density functional theory
     J. Comput. Chem., 2011 32(7)1456-1465
     doi.org/10.1002/jcc.21759

List of suggested additional citations. These are papers that are important in the 'surrounding' of 
of this run, or papers that preceded the highly important papers. If you like your results we are grateful for a citation.

  1. Neese,F.
     The ORCA program system
     WIRES Comput. Molec. Sci., 2012 2(1)73-78
     doi.org/10.1002/wcms.81
  2. Neese,F.
     Software update: the ORCA program system, version 4.0
     WIRES Comput. Molec. Sci., 2018 8(1)1-6
     doi.org/10.1002/wcms.1327
  3. Neese,F.; Wennmohs,F.; Becker,U.; Riplinger,C.
     The ORCA quantum chemistry program package
     J. Chem. Phys., 2020 152 Art. No. L224108
     doi.org/10.1063/5.0004608

List of optional additional citations

  1. Neese,F.
     Approximate second-order SCF convergence for spin unrestricted wavefunctions
     Chem. Phys. Lett., 2000 325(1-3)93-98
     doi.org/10.1016/s0009-2614(00)00662-x

Timings for individual modules:

Sum of individual times          ...      927.024 sec (=  15.450 min)
Startup calculation              ...       71.042 sec (=   1.184 min)   7.7 %
SCF iterations                   ...      503.279 sec (=   8.388 min)  54.3 %
Property calculations            ...        0.269 sec (=   0.004 min)   0.0 %
SCF Gradient evaluation          ...      350.831 sec (=   5.847 min)  37.8 %
Geometry relaxation              ...        1.603 sec (=   0.027 min)   0.2 %
                             ****ORCA TERMINATED NORMALLY****
TOTAL RUN TIME: 0 days 0 hours 15 minutes 32 seconds 643 msec
