
                                 *****************
                                 * O   R   C   A *
                                 *****************

                                            #,                                       
                                            ###                                      
                                            ####                                     
                                            #####                                    
                                            ######                                   
                                           ########,                                 
                                     ,,################,,,,,                         
                               ,,#################################,,                 
                          ,,##########################################,,             
                       ,#########################################, ''#####,          
                    ,#############################################,,   '####,        
                  ,##################################################,,,,####,       
                ,###########''''           ''''###############################       
              ,#####''   ,,,,##########,,,,          '''####'''          '####       
            ,##' ,,,,###########################,,,                        '##       
           ' ,,###''''                  '''############,,,                           
         ,,##''                                '''############,,,,        ,,,,,,###''
      ,#''                                            '''#######################'''  
     '                                                          ''''####''''         
             ,#######,   #######,   ,#######,      ##                                
            ,#'     '#,  ##    ##  ,#'     '#,    #''#        ,####,   ,####,        
            ##       ##  ##   ,#'  ##            #'  '#       #'       #'  '#        
            ##       ##  #######   ##           ,######,      #####,   #    #        
            '#,     ,#'  ##    ##  '#,     ,#' ,#      #,     #,   #   #,  ,#        
             '#######'   ##     ##  '#######'  #'      '#     '####' # '####'        



                #########################################################
                #                        -***-                          #
                #          Department of theory and spectroscopy        #
                #                                                       #
                #                      Frank Neese                      #
                #                                                       #
                #     Directorship, Architecture, Infrastructure        #
                #                    SHARK, DRIVERS                     #
                #        Core code/Algorithms in most modules           #
                #                                                       #
                #        Max Planck Institute fuer Kohlenforschung      #
                #                Kaiser Wilhelm Platz 1                 #
                #                 D-45470 Muelheim/Ruhr                 #
                #                      Germany                          #
                #                                                       #
                #                  All rights reserved                  #
                #                        -***-                          #
                #########################################################


                         Program Version 6.0.0  -   RELEASE   -


 With contributions from (in alphabetic order):
   Daniel Aravena         : Magnetic Suceptibility
   Michael Atanasov       : Ab Initio Ligand Field Theory (pilot matlab implementation)
   Alexander A. Auer      : GIAO ZORA, VPT2 properties, NMR spectrum
   Ute Becker             : All parallelization in ORCA, NUMFREQ, NUMCALC
   Giovanni Bistoni       : ED, misc. LED, open-shell LED, HFLD
   Martin Brehm           : Molecular dynamics
   Dmytro Bykov           : pre 5.0 version of the SCF Hessian
   Marcos Casanova-Páez   : Triplet and SCS-CIS(D). UHF-(DLPNO)-IP/EA/STEOM-CCSD. UHF-CVS-IP/STEOM-CCSD
   Vijay G. Chilkuri      : MRCI spin determinant printing, contributions to CSF-ICE
   Pauline Colinet        : FMM embedding
   Dipayan Datta          : RHF DLPNO-CCSD density
   Achintya Kumar Dutta   : EOM-CC, STEOM-CC
   Nicolas Foglia         : Exact transition moments, OPA infrastructure, MCD improvements
   Dmitry Ganyushin       : Spin-Orbit,Spin-Spin,Magnetic field MRCI
   Miquel Garcia          : C-PCM and meta-GGA Hessian, CCSD/C-PCM, Gaussian charge scheme
   Tiago L. C. Gouveia    : GS-ROHF, GS-ROCIS
   Yang Guo               : DLPNO-NEVPT2, F12-NEVPT2, CIM, IAO-localization
   Andreas Hansen         : Spin unrestricted coupled pair/coupled cluster methods
   Ingolf Harden          : AUTO-CI MPn and infrastructure 
   Benjamin Helmich-Paris : MC-RPA, TRAH-(SCF,CASSCF), AVAS, COSX integrals, SCF dyn. polar.
   Lee Huntington         : MR-EOM, pCC
   Robert Izsak           : Overlap fitted RIJCOSX, COSX-SCS-MP3, EOM
   Riya Kayal             : Wick's Theorem for AUTO-CI, AUTO-CI UHF-CCSDT
   Emily Kempfer          : AUTO-CI, RHF CISDT and CCSDT
   Christian Kollmar      : KDIIS, OOCD, Brueckner-CCSD(T), CCSD density, CASPT2, CASPT2-K, improved NEVPT2
   Axel Koslowski         : Symmetry handling
   Simone Kossmann        : Meta GGA functionals, TD-DFT gradient, OOMP2, (MP2 Hessian; deprecated post 5.0)
   Lucas Lang             : DCDCAS
   Marvin Lechner         : AUTO-CI (C++ implementation), FIC-MRCC
   Spencer Leger          : CASSCF response
   Dagmar Lenk            : GEPOL surface, SMD, ORCA-2-JSON
   Dimitrios Liakos       : Extrapolation schemes; Compound Job, initial MDCI parallelization
   Dimitrios Manganas     : Further ROCIS development; embedding schemes. LFT, Crystal Embedding
   Dimitrios Pantazis     : SARC Basis sets
   Anastasios Papadopoulos: AUTO-CI, single reference methods and gradients
   Taras Petrenko         : pre 6.0 DFT Hessian and TD-DFT gradient, (ASA, deprecated), ECA, 1-Electron XAS/XES, NRVS
   Peter Pinski           : DLPNO-MP2, DLPNO-MP2 Gradient
   Christoph Reimann      : Effective Core Potentials
   Marius Retegan         : Local ZFS, SOC
   Christoph Riplinger    : Optimizer, TS searches, QM/MM, DLPNO-CCSD(T), (RO)-DLPNO pert. Triples
   Michael Roemelt        : Original ROCIS implementation
   Masaaki Saitow         : Open-shell DLPNO-CCSD energy and density
   Barbara Sandhoefer     : DKH picture change effects
   Kantharuban Sivalingam : CASSCF convergence/infrastructure, NEVPT2 and variants, FIC-MRCI
   Bernardo de Souza      : ESD, SOC TD-DFT
   Georgi Stoychev        : AutoAux, RI-MP2 NMR, DLPNO-MP2 response, X2C
   Van Anh Tran           : RI-MP2 g-tensors
   Willem Van den Heuvel  : Paramagnetic NMR
   Zikuan Wang            : NOTCH, Electric field optimization 
   Frank Wennmohs         : Technical directorship and infrastructure
   Hang Xu                : AUTO-CI-Response properties 


 We gratefully acknowledge several colleagues who have allowed us to
 interface, adapt or use parts of their codes:
   Stefan Grimme, W. Hujo, H. Kruse, P. Pracht,  : VdW corrections, initial TS optimization,
                  C. Bannwarth, S. Ehlert,         DFT functionals, gCP, sTDA/sTD-DF
                  L. Wittmann, M. Mueller
   Ed Valeev, F. Pavosevic, A. Kumar             : LibInt (2-el integral package), F12 methods
   Garnet Chan, S. Sharma, J. Yang, R. Olivares  : DMRG
   Ulf Ekstrom                                   : XCFun DFT Library
   Mihaly Kallay                                 : mrcc  (arbitrary order and MRCC methods)
   Frank Weinhold                                : gennbo (NPA and NBO analysis)
   Simon Mueller                                 : openCOSMO-RS
   Christopher J. Cramer and Donald G. Truhlar   : smd solvation model
   Lars Goerigk                                  : TD-DFT with DH, B97 family of functionals
   V. Asgeirsson, H. Jonsson                     : NEB implementation
   FAccTs GmbH                                   : IRC, NEB, NEB-TS, DLPNO-Multilevel, CI-OPT
                                                   MM, QMMM, 2- and 3-layer-ONIOM, Crystal-QMMM,
                                                   LR-CPCM, SF, NACMEs, symmetry and pop. for TD-DFT,
                                                   nearIR, NL-DFT gradient (VV10), updates on ESD,
                                                   ML-optimized integration grids, MBIS, APM,
                                                   GOAT, DOCKER, SOLVATOR, interface openCOSMO-RS
   S Lehtola, MJT Oliveira, MAL Marques          : LibXC Library
   Liviu Ungur et al                             : ANISO software


 Your calculation uses the libint2 library for the computation of 2-el integrals
 For citations please refer to: http://libint.valeyev.net

 Your ORCA version has been built with support for libXC version: 6.2.2
 For citations please refer to: https://libxc.gitlab.io

 This ORCA versions uses:
   CBLAS   interface :  Fast vector & matrix operations
   LAPACKE interface :  Fast linear algebra routines
   Shared memory     :  Shared parallel matrices


Your calculation utilizes the atom-pairwise dispersion correction
with the zero-damping scheme (D30)


XCFun DFT library Copyright 2009-2010 Ulf Ekstrom and contributors.
See http://admol.org/xcfun for more information.
This is free software; see the source code for copying conditions.
There is ABSOLUTELY NO WARRANTY; not even for MERCHANTABILITY or FITNESS FOR A PARTICULAR PURPOSE.
For details see the documentation.
Scientific users of this library should cite U. Ekstrom, L. Visscher, R. Bast, A. J. Thorvaldsen and K. Ruud;
J.Chem.Theor.Comp. 2010, DOI: 10.1021/ct100117s
XCFun Version 0.99 

Warning: RI is on but no J-basis has been assigned. Assigning Def2/J (nothing to worry about!)
================================================================================

----- Orbital basis set information -----
Your calculation utilizes the basis: def2-TZVP
   F. Weigend and R. Ahlrichs, Phys. Chem. Chem. Phys. 7, 3297 (2005).

----- AuxJ basis set information -----
Your calculation utilizes the auxiliary basis: def2/J
   F. Weigend, Phys. Chem. Chem. Phys. 8, 1057 (2006).

================================================================================
                                        WARNINGS
                       Please study these warnings very carefully!
================================================================================

WARNING: Functional chosen is sensitive to the integration grid.
         DEFGRID3 seems to be a minimum grid for robust results!

================================================================================
                                       INPUT FILE
================================================================================
NAME = data/single_point_P_M06-2x/74149/74149.inp
|  1> ! RIJCOSX M062X def2-TZVP D3ZERO NormalSCF
|  2> %pal
|  3> nprocs 6
|  4> end
|  5> 
|  6> * xyz 0 1
|  7>   C          -1.67761510825105     -2.55320756382049     -0.47431832275295
|  8>   C          -2.09502072063212     -1.09511964775154     -0.26022703889824
|  9>   P          -1.04953791434264     -0.23690230319210      1.04387644150638
| 10>   C          -1.60708624114875      1.53570917338801      0.75443436518281
| 11>   C          -0.75522128004325      2.54508028642964      1.52935741111323
| 12>   C           0.59414473358824     -0.18527410616849      0.17321832123844
| 13>   C           0.74635541946494      0.20707602025291     -1.17483729317525
| 14>   C           2.01464077277750      0.24038253964908     -1.77379528318626
| 15>   C           3.15449336691680     -0.11662894078312     -1.03095411981353
| 16>   C           3.01790835365639     -0.50795939666729      0.31044228544933
| 17>   C           1.74499785434586     -0.54342383845271      0.90578591714484
| 18>   H          -2.34536792583898     -3.06207869626000     -1.19974442106087
| 19>   H          -1.70939213125029     -3.12577328503821      0.47567334913047
| 20>   H          -0.64205423060437     -2.61816371543601     -0.86709635703184
| 21>   H          -2.06249514467995     -0.52782406164437     -1.21688465227007
| 22>   H          -3.14376845564518     -1.03560304697649      0.10455975998562
| 23>   H          -2.66913013289544      1.58285375706683      1.08092784507302
| 24>   H          -1.59740611458724      1.76254599994049     -0.33482118086756
| 25>   H          -0.76424926208509      2.33012381709206      2.61799096259390
| 26>   H          -1.12561772348137      3.58097075447356      1.38501001538435
| 27>   H           0.30176192422658      2.51566410167376      1.19322884928720
| 28>   H          -0.13722211050815      0.49211349537295     -1.76869377540004
| 29>   H           2.11685643951599      0.54756454242545     -2.82643729932658
| 30>   H           4.14979505974567     -0.08960389466042     -1.50086303521097
| 31>   H           3.90645550897420     -0.78917918784097      0.89681420087745
| 32>   H           1.63377406278170     -0.85334380307251      1.95735505502713
| 33> **                         ****END OF INPUT****
================================================================================

                       ****************************
                       * Single Point Calculation *
                       ****************************

---------------------------------
CARTESIAN COORDINATES (ANGSTROEM)
---------------------------------
  C     -1.677615   -2.553208   -0.474318
  C     -2.095021   -1.095120   -0.260227
  P     -1.049538   -0.236902    1.043876
  C     -1.607086    1.535709    0.754434
  C     -0.755221    2.545080    1.529357
  C      0.594145   -0.185274    0.173218
  C      0.746355    0.207076   -1.174837
  C      2.014641    0.240383   -1.773795
  C      3.154493   -0.116629   -1.030954
  C      3.017908   -0.507959    0.310442
  C      1.744998   -0.543424    0.905786
  H     -2.345368   -3.062079   -1.199744
  H     -1.709392   -3.125773    0.475673
  H     -0.642054   -2.618164   -0.867096
  H     -2.062495   -0.527824   -1.216885
  H     -3.143768   -1.035603    0.104560
  H     -2.669130    1.582854    1.080928
  H     -1.597406    1.762546   -0.334821
  H     -0.764249    2.330124    2.617991
  H     -1.125618    3.580971    1.385010
  H      0.301762    2.515664    1.193229
  H     -0.137222    0.492113   -1.768694
  H      2.116856    0.547565   -2.826437
  H      4.149795   -0.089604   -1.500863
  H      3.906456   -0.789179    0.896814
  H      1.633774   -0.853344    1.957355

----------------------------
CARTESIAN COORDINATES (A.U.)
----------------------------
  NO LB      ZA    FRAG     MASS         X           Y           Z
   0 C     6.0000    0    12.011   -3.170233   -4.824863   -0.896332
   1 C     6.0000    0    12.011   -3.959015   -2.069476   -0.491758
   2 P    15.0000    0    30.974   -1.983339   -0.447680    1.972641
   3 C     6.0000    0    12.011   -3.036953    2.902070    1.425674
   4 C     6.0000    0    12.011   -1.427161    4.809505    2.890067
   5 C     6.0000    0    12.011    1.122771   -0.350117    0.327335
   6 C     6.0000    0    12.011    1.410407    0.391317   -2.220121
   7 C     6.0000    0    12.011    3.807119    0.454257   -3.351987
   8 C     6.0000    0    12.011    5.961129   -0.220397   -1.948221
   9 C     6.0000    0    12.011    5.703020   -0.959904    0.586651
  10 C     6.0000    0    12.011    3.297568   -1.026922    1.711687
  11 H     1.0000    0     1.008   -4.432103   -5.786490   -2.267188
  12 H     1.0000    0     1.008   -3.230283   -5.906855    0.898892
  13 H     1.0000    0     1.008   -1.213307   -4.947612   -1.638575
  14 H     1.0000    0     1.008   -3.897551   -0.997443   -2.299579
  15 H     1.0000    0     1.008   -5.940861   -1.957006    0.197589
  16 H     1.0000    0     1.008   -5.043925    2.991160    2.042658
  17 H     1.0000    0     1.008   -3.018660    3.330729   -0.632720
  18 H     1.0000    0     1.008   -1.444222    4.403296    4.947286
  19 H     1.0000    0     1.008   -2.127109    6.767054    2.617290
  20 H     1.0000    0     1.008    0.570247    4.753916    2.254876
  21 H     1.0000    0     1.008   -0.259312    0.929960   -3.342347
  22 H     1.0000    0     1.008    4.000279    1.034747   -5.341192
  23 H     1.0000    0     1.008    7.841976   -0.169327   -2.836220
  24 H     1.0000    0     1.008    7.382131   -1.491333    1.694733
  25 H     1.0000    0     1.008    3.087386   -1.612586    3.698865

--------------------------------
INTERNAL COORDINATES (ANGSTROEM)
--------------------------------
 C      0   0   0     0.000000000000     0.00000000     0.00000000
 C      1   0   0     1.531692819744     0.00000000     0.00000000
 P      2   1   0     1.878897867462   112.34580683     0.00000000
 C      3   2   1     1.880635078683    99.13385338   168.93155780
 C      4   3   2     1.531342444692   112.23931365   189.33832202
 C      3   2   1     1.860753524846   100.33664134    67.51854546
 C      6   3   2     1.412218345069   123.33708142    45.67504785
 C      7   6   3     1.402999549344   120.76671693   179.28979129
 C      8   7   6     1.406603756403   120.07058326   359.86929165
 C      9   8   7     1.403972687627   119.76745531     0.09316165
 C     10   9   8     1.405700147857   119.98485935     0.07667116
 H      1   2   3     1.109543455180   111.34431121   176.41032021
 H      1   2   3     1.109651053689   111.32910552    56.07189054
 H      1   2   3     1.109450412212   111.07452656   296.39117593
 H      2   1   3     1.112688628651   110.92846260   124.02655832
 H      2   1   3     1.111972772195   110.72131579   241.92147142
 H      4   3   2     1.112096143406   106.13478878    68.18996958
 H      4   3   2     1.112666300079   109.89190603   313.19859243
 H      5   4   3     1.109689505032   111.36036200   302.96156766
 H      5   4   3     1.109548898314   111.33663683   182.61411884
 H      5   4   3     1.109531980661   111.04869475    62.66115115
 H      7   6   3     1.102098514279   119.98700374   359.32075733
 H      8   7   6     1.101301066694   119.90566031   179.93480199
 H      9   8   7     1.100986013370   120.06221011   180.05301548
 H     10   9   8     1.101105190876   120.09779531   179.95984701
 H     11  10   9     1.101915953250   120.17665887   179.79315463

---------------------------
INTERNAL COORDINATES (A.U.)
---------------------------
 C      0   0   0     0.000000000000     0.00000000     0.00000000
 C      1   0   0     2.894479950610     0.00000000     0.00000000
 P      2   1   0     3.550602403112   112.34580683     0.00000000
 C      3   2   1     3.553885256557    99.13385338   168.93155780
 C      4   3   2     2.893817837718   112.23931365   189.33832202
 C      3   2   1     3.516314564687   100.33664134    67.51854546
 C      6   3   2     2.668705913480   123.33708142    45.67504785
 C      7   6   3     2.651284914275   120.76671693   179.28979129
 C      8   7   6     2.658095878547   120.07058326   359.86929165
 C      9   8   7     2.653123879120   119.76745531     0.09316165
 C     10   9   8     2.656388305863   119.98485935     0.07667116
 H      1   2   3     2.096733263975   111.34431121   176.41032021
 H      1   2   3     2.096936595689   111.32910552    56.07189054
 H      1   2   3     2.096557438246   111.07452656   296.39117593
 H      2   1   3     2.102676780479   110.92846260   124.02655832
 H      2   1   3     2.101324007826   110.72131579   241.92147142
 H      4   3   2     2.101557145627   106.13478878    68.18996958
 H      4   3   2     2.102634585593   109.89190603   313.19859243
 H      5   4   3     2.097009258198   111.36036200   302.96156766
 H      5   4   3     2.096743550007   111.33663683   182.61411884
 H      5   4   3     2.096711580276   111.04869475    62.66115115
 H      7   6   3     2.082664364589   119.98700374   359.32075733
 H      8   7   6     2.081157407046   119.90566031   179.93480199
 H      9   8   7     2.080562042547   120.06221011   180.05301548
 H     10   9   8     2.080787255395   120.09779531   179.95984701
 H     11  10   9     2.082319374241   120.17665887   179.79315463

---------------------
BASIS SET INFORMATION
---------------------
There are 3 groups of distinct atoms

 Group   1 Type C   : 11s6p2d1f contracted to 5s3p2d1f pattern {62111/411/11/1}
 Group   2 Type P   : 14s9p3d1f contracted to 5s5p2d1f pattern {73211/51111/21/1}
 Group   3 Type H   : 5s1p contracted to 3s1p pattern {311/1}

Atom   0C    basis set group =>   1
Atom   1C    basis set group =>   1
Atom   2P    basis set group =>   2
Atom   3C    basis set group =>   1
Atom   4C    basis set group =>   1
Atom   5C    basis set group =>   1
Atom   6C    basis set group =>   1
Atom   7C    basis set group =>   1
Atom   8C    basis set group =>   1
Atom   9C    basis set group =>   1
Atom  10C    basis set group =>   1
Atom  11H    basis set group =>   3
Atom  12H    basis set group =>   3
Atom  13H    basis set group =>   3
Atom  14H    basis set group =>   3
Atom  15H    basis set group =>   3
Atom  16H    basis set group =>   3
Atom  17H    basis set group =>   3
Atom  18H    basis set group =>   3
Atom  19H    basis set group =>   3
Atom  20H    basis set group =>   3
Atom  21H    basis set group =>   3
Atom  22H    basis set group =>   3
Atom  23H    basis set group =>   3
Atom  24H    basis set group =>   3
Atom  25H    basis set group =>   3
---------------------------------
AUXILIARY/J BASIS SET INFORMATION
---------------------------------
There are 3 groups of distinct atoms

 Group   1 Type C   : 12s5p4d2f1g contracted to 6s4p3d1f1g pattern {711111/2111/211/2/1}
 Group   2 Type P   : 14s5p5d2f1g contracted to 8s4p3d1f1g pattern {71111111/2111/311/2/1}
 Group   3 Type H   : 5s2p1d contracted to 3s1p1d pattern {311/2/1}

Atom   0C    basis set group =>   1
Atom   1C    basis set group =>   1
Atom   2P    basis set group =>   2
Atom   3C    basis set group =>   1
Atom   4C    basis set group =>   1
Atom   5C    basis set group =>   1
Atom   6C    basis set group =>   1
Atom   7C    basis set group =>   1
Atom   8C    basis set group =>   1
Atom   9C    basis set group =>   1
Atom  10C    basis set group =>   1
Atom  11H    basis set group =>   3
Atom  12H    basis set group =>   3
Atom  13H    basis set group =>   3
Atom  14H    basis set group =>   3
Atom  15H    basis set group =>   3
Atom  16H    basis set group =>   3
Atom  17H    basis set group =>   3
Atom  18H    basis set group =>   3
Atom  19H    basis set group =>   3
Atom  20H    basis set group =>   3
Atom  21H    basis set group =>   3
Atom  22H    basis set group =>   3
Atom  23H    basis set group =>   3
Atom  24H    basis set group =>   3
Atom  25H    basis set group =>   3


           ************************************************************
           *        Program running with 6 parallel MPI-processes     *
           *              working on a common directory               *
           ************************************************************
------------------------------------------------------------------------------
                             ORCA STARTUP CALCULATIONS
                           -- RI-GTO INTEGRALS CHOSEN --
------------------------------------------------------------------------------
------------------------------------------------------------------------------
                   ___                                                        
                  /   \      - P O W E R E D   B Y -                         
                 /     \                                                     
                 |  |  |   _    _      __       _____    __    __             
                 |  |  |  | |  | |    /  \     |  _  \  |  |  /  |          
                  \  \/   | |  | |   /    \    | | | |  |  | /  /          
                 / \  \   | |__| |  /  /\  \   | |_| |  |  |/  /          
                |  |  |   |  __  | /  /__\  \  |    /   |      \           
                |  |  |   | |  | | |   __   |  |    \   |  |\   \          
                \     /   | |  | | |  |  |  |  | |\  \  |  | \   \       
                 \___/    |_|  |_| |__|  |__|  |_| \__\ |__|  \__/        
                                                                              
                      - O R C A' S   B I G   F R I E N D -                    
                                      &                                       
                       - I N T E G R A L  F E E D E R -                       
                                                                              
 v1 FN, 2020, v2 2021, v3 2022-2024                                           
------------------------------------------------------------------------------


----------------------
SHARK INTEGRAL PACKAGE
----------------------

Number of atoms                             ...     26
Number of basis functions                   ...    437
Number of shells                            ...    183
Maximum angular momentum                    ...      3
Integral batch strategy                     ... SHARK/LIBINT Hybrid
RI-J (if used) integral strategy            ... SPLIT-RIJ (Revised 2003 algorithm where possible)
Printlevel                                  ...      1
Contraction scheme used                     ... SEGMENTED contraction
Prescreening option                         ... SCHWARTZ
   Thresh                                   ... 1.000e-10
   Tcut                                     ... 1.000e-11
   Tpresel                                  ... 1.000e-11 
Coulomb Range Separation                    ... NOT USED
Exchange Range Separation                   ... NOT USED
Multipole approximations                    ... NOT USED
Finite Nucleus Model                        ... NOT USED
CABS basis                                  ... NOT available
Auxiliary Coulomb fitting basis             ... AVAILABLE
   # of basis functions in Aux-J            ...    706
   # of shells in Aux-J                     ...    242
   Maximum angular momentum in Aux-J        ...      4
Auxiliary J/K fitting basis                 ... NOT available
Auxiliary Correlation fitting basis         ... NOT available
Auxiliary 'external' fitting basis          ... NOT available

Checking pre-screening integrals            ... done (  0.0 sec) Dimension = 183
Check shell pair data                       ... done (  0.0 sec)
Shell pair information
Shell pair cut-off parameter TPreSel        ...   1.0e-11
Total number of shell pairs                 ...     16836
Shell pairs after pre-screening             ...     14166
Total number of primitive shell pairs       ...     50704
Primitive shell pairs kept                  ...     30237
          la=0 lb=0:   4113 shell pairs
          la=1 lb=0:   4204 shell pairs
          la=1 lb=1:   1112 shell pairs
          la=2 lb=0:   1872 shell pairs
          la=2 lb=1:    979 shell pairs
          la=2 lb=2:    235 shell pairs
          la=3 lb=0:    902 shell pairs
          la=3 lb=1:    475 shell pairs
          la=3 lb=2:    216 shell pairs
          la=3 lb=3:     58 shell pairs

Calculating one electron integrals          ... done (  0.0 sec)
Calculating RI/J V-Matrix + Cholesky decomp.... done (  0.0 sec)
Calculating Nuclear repulsion               ... done (  0.0 sec) ENN=    686.498997168688 Eh

Diagonalization of the overlap matrix:
Smallest eigenvalue                        ... 8.695e-06
Time for diagonalization                   ...    0.037 sec
Threshold for overlap eigenvalues          ... 1.000e-07
Number of eigenvalues below threshold      ... 0
Time for construction of square roots      ...    0.025 sec
Total time needed                          ...    0.065 sec

-------------------
DFT GRID GENERATION
-------------------

General Integration Accuracy     IntAcc      ... 4.388
Radial Grid Type                 RadialGrid  ... OptM3 with GC (2021)
Angular Grid (max. ang.)         AngularGrid ... 4 (Lebedev-302)
Angular grid pruning method      GridPruning ... 4 (adaptive)
Weight generation scheme         WeightScheme... mBecke (2022)
Basis function cutoff            BFCut       ... 1.0000e-10
Integration weight cutoff        WCut        ... 1.0000e-14
Partially contracted basis set               ... off
Rotationally invariant grid construction     ... off
Angular grids for H and He will be reduced by one unit

Total number of grid points                  ...   115122
Total number of batches                      ...     1811
Average number of points per batch           ...       63
Average number of grid points per atom       ...     4428

--------------------
COSX GRID GENERATION
--------------------

GRIDX 1
-------
General Integration Accuracy     IntAcc      ... 3.816
Radial Grid Type                 RadialGrid  ... OptM3 with GC (2021)
Angular Grid (max. ang.)         AngularGrid ... 1 (Lebedev-50)
Angular grid pruning method      GridPruning ... 4 (adaptive)
Weight generation scheme         WeightScheme... mBecke (2022)
Basis function cutoff            BFCut       ... 1.0000e-10
Integration weight cutoff        WCut        ... 1.0000e-14
Partially contracted basis set               ... on
Rotationally invariant grid construction     ... off
Angular grids for H and He will be reduced by one unit

Total number of grid points                  ...    15715
Total number of batches                      ...      134
Average number of points per batch           ...      117
Average number of grid points per atom       ...      604
UseSFitting                                  ... on

GRIDX 2
-------
General Integration Accuracy     IntAcc      ... 4.020
Radial Grid Type                 RadialGrid  ... OptM3 with GC (2021)
Angular Grid (max. ang.)         AngularGrid ... 2 (Lebedev-110)
Angular grid pruning method      GridPruning ... 4 (adaptive)
Weight generation scheme         WeightScheme... mBecke (2022)
Basis function cutoff            BFCut       ... 1.0000e-10
Integration weight cutoff        WCut        ... 1.0000e-14
Partially contracted basis set               ... on
Rotationally invariant grid construction     ... off
Angular grids for H and He will be reduced by one unit

Total number of grid points                  ...    30918
Total number of batches                      ...      256
Average number of points per batch           ...      120
Average number of grid points per atom       ...     1189
UseSFitting                                  ... on

GRIDX 3
-------
General Integration Accuracy     IntAcc      ... 4.338
Radial Grid Type                 RadialGrid  ... OptM3 with GC (2021)
Angular Grid (max. ang.)         AngularGrid ... 3 (Lebedev-194)
Angular grid pruning method      GridPruning ... 4 (adaptive)
Weight generation scheme         WeightScheme... mBecke (2022)
Basis function cutoff            BFCut       ... 1.0000e-10
Integration weight cutoff        WCut        ... 1.0000e-14
Partially contracted basis set               ... on
Rotationally invariant grid construction     ... off
Angular grids for H and He will be reduced by one unit

Total number of grid points                  ...    67883
Total number of batches                      ...      546
Average number of points per batch           ...      124
Average number of grid points per atom       ...     2611
UseSFitting                                  ... on
Initializing property integral containers    ... done (  0.0 sec)

SHARK setup successfully completed in   2.3 seconds

Maximum memory used throughout the entire STARTUP-calculation: 41.2 MB


           ************************************************************
           *        Program running with 6 parallel MPI-processes     *
           *              working on a common directory               *
           ************************************************************
-------------------------------------------------------------------------------
                                 ORCA GUESS
                   Start orbitals & Density for SCF / CASSCF
-------------------------------------------------------------------------------

------------
SCF SETTINGS
------------
Hamiltonian:
 Density Functional     Method          .... DFT(GTOs)
 Exchange Functional    Exchange        .... M062X
 Correlation Functional Correlation     .... M062X
 Gradients option       PostSCFGGA      .... off
 Hybrid DFT is turned on
   Fraction HF Exchange ScalHFX         ....  0.540000
   Scaling of DF-GGA-X  ScalDFX         ....  0.460000
   Scaling of DF-GGA-C  ScalDFC         ....  1.000000
   Scaling of DF-LDA-C  ScalLDAC        ....  1.000000
   Perturbative correction              ....  0.000000
 RI-approximation to the Coulomb term is turned on
   Number of AuxJ basis functions       .... 706
   RIJ-COSX (HFX calculated with COS-X)).... on


General Settings:
 Integral files         IntName         .... data/single_point_P_M06-2x/74149/74149
 Hartree-Fock type      HFTyp           .... RHF
 Total Charge           Charge          ....    0
 Multiplicity           Mult            ....    1
 Number of Electrons    NEL             ....   90
 Basis Dimension        Dim             ....  437
 Nuclear Repulsion      ENuc            ....    686.4989971687 Eh

Convergence Acceleration:
 AO-DIIS                CNVDIIS         .... on
   Start iteration      DIISMaxIt       ....    12
   Startup error        DIISStart       ....  0.200000
   # of expansion vecs  DIISMaxEq       ....     5
   Bias factor          DIISBfac        ....   1.050
   Max. coefficient     DIISMaxC        ....  10.000
 MO-DIIS                CNVKDIIS        .... off
 Trust-Rad. Augm. Hess. CNVTRAH         .... auto
   Auto Start mean grad. ratio tolernc. ....  1.125000
   Auto Start start iteration           ....    50
   Auto Start num. interpolation iter.  ....    10
   Max. Number of Micro iterations      ....    24
   Max. Number of Macro iterations      .... Maxiter - #DIIS iter
   Number of Davidson start vectors     ....     2
   Converg. threshold    (grad. norm)   ....   5.000e-05
   Grad. Scal. Fac. for Micro threshold ....   0.100
   Minimum threshold for Micro iter.    ....   1.000e-02
   NR start threshold (gradient norm)   ....   1.000e-04
   Initial trust radius                 ....   0.400
   Minimum AH scaling param. (alpha)    ....   1.000
   Maximum AH scaling param. (alpha)    .... 1000.000
   Quad. conv. algorithm                .... NR
   White noise on init. David. guess    .... on
   Maximum white noise                  ....   0.010
   Pseudo random numbers                .... off
   Inactive MOs                         .... canonical
   Orbital update algorithm             .... Taylor
   Preconditioner                       .... Diag
   Full preconditioner red. dimension   ....   250
 SOSCF                  CNVSOSCF        .... on
   Start iteration      SOSCFMaxIt      ....   150
   Startup grad/error   SOSCFStart      ....  0.003300
   Hessian update       SOSCFHessUp     .... L-BFGS
 Level Shifting         CNVShift        .... on
   Level shift para.    LevelShift      ....    0.2500
   Turn off err/grad.   ShiftErr        ....    0.0010
 Zerner damping         CNVZerner       .... off
 Static damping         CNVDamp         .... on
   Fraction old density DampFac         ....    0.7000
   Max. Damping (<1)    DampMax         ....    0.9800
   Min. Damping (>=0)   DampMin         ....    0.0000
   Turn off err/grad.   DampErr         ....    0.1000

SCF Procedure:
 Maximum # iterations   MaxIter         ....   125
 SCF integral mode      SCFMode         .... Direct
   Integral package                     .... SHARK and LIBINT hybrid scheme
 Reset frequency        DirectResetFreq ....    20
 Integral Threshold     Thresh          ....  1.000e-10 Eh
 Primitive CutOff       TCut            ....  1.000e-11 Eh

Convergence Tolerance:
 Convergence Check Mode ConvCheckMode   .... Total+1el-Energy
 Convergence forced     ConvForced      .... 0
 Energy Change          TolE            ....  1.000e-06 Eh
 1-El. energy change                    ....  1.000e-03 Eh
 Orbital Gradient       TolG            ....  5.000e-05
 Orbital Rotation angle TolX            ....  5.000e-05
 DIIS Error             TolErr          ....  1.000e-05

------------------------------
INITIAL GUESS: MODEL POTENTIAL
------------------------------
Loading Hartree-Fock densities                     ... done
Calculating cut-offs                               ... done
Initializing the effective Hamiltonian             ... done
Setting up the integral package (SHARK)            ... done
Starting the Coulomb interaction                   ... done (   0.2 sec)
Making the grid                                    ... done (   0.1 sec)
Mapping shells                                     ... done
Starting the XC term evaluation                    ... done (   0.2 sec)
  promolecular density results
     # of electrons  =     89.990284459
     EX              =    -78.000857744
     EC              =     -3.019069718
     EX+EC           =    -81.019927461
Transforming the Hamiltonian                       ... done (   0.0 sec)
Diagonalizing the Hamiltonian                      ... done (   0.0 sec)
Back transforming the eigenvectors                 ... done (   0.0 sec)
Now organizing SCF variables                       ... done
                      ------------------
                      INITIAL GUESS DONE (   0.6 sec)
                      ------------------
             **** ENERGY FILE WAS UPDATED (data/single_point_P_M06-2x/74149/74149.en.tmp) ****
Finished Guess after   0.7 sec
Maximum memory used throughout the entire GUESS-calculation: 28.0 MB


           ************************************************************
           *        Program running with 6 parallel MPI-processes     *
           *              working on a common directory               *
           ************************************************************

-------------------------------------------------------------------------------------------
                                      ORCA LEAN-SCF
                              memory conserving SCF solver
-------------------------------------------------------------------------------------------

----------------------------------------D-I-I-S--------------------------------------------
Iteration    Energy (Eh)           Delta-E    RMSDP     MaxDP     DIISErr   Damp  Time(sec)
-------------------------------------------------------------------------------------------
               ***  Starting incremental Fock matrix formation  ***
    1    -731.0613371991946678     0.00e+00  1.31e-03  3.17e-02  1.83e-01  0.700   5.8
    2    -731.2052621172367708    -1.44e-01  1.06e-03  2.67e-02  1.03e-01  0.700   4.0
                               ***Turning on AO-DIIS***
    3    -731.2738532900079917    -6.86e-02  7.08e-04  1.98e-02  4.65e-02  0.700   3.8
    4    -731.3136246098763422    -3.98e-02  1.63e-03  4.32e-02  2.73e-02  0.000   3.4
                              *** Initializing SOSCF ***
---------------------------------------S-O-S-C-F--------------------------------------
Iteration    Energy (Eh)           Delta-E    RMSDP     MaxDP     MaxGrad    Time(sec)
--------------------------------------------------------------------------------------
    5    -731.3979751356366705    -8.44e-02  1.35e-04  1.22e-02  3.24e-03     4.1
               *** Restarting incremental Fock matrix formation ***
    6    -731.3981162743305049    -1.41e-04  1.15e-04  6.81e-03  4.42e-04     5.5
    7    -731.3981242891049988    -8.01e-06  4.63e-05  3.34e-03  4.47e-04     4.2
    8    -731.3981300000236843    -5.71e-06  2.37e-05  1.07e-03  1.28e-04     4.5
    9    -731.3981303123641737    -3.12e-07  3.77e-06  2.15e-04  5.10e-05     4.1
                 **** Energy Check signals convergence ****

               *****************************************************
               *                     SUCCESS                       *
               *           SCF CONVERGED AFTER   9 CYCLES          *
               *****************************************************

Recomputing exchange energy using gridx3       ... done (    7.608 sec)
Old exchange energy                            :    -43.039771609 Eh
New exchange energy                            :    -43.039735013 Eh
Exchange energy change after final integration :      0.000036596 Eh
Total energy after final integration           :   -731.398093716 Eh
             **** ENERGY FILE WAS UPDATED (data/single_point_P_M06-2x/74149/74149.en.tmp) ****

----------------
TOTAL SCF ENERGY
----------------

Total Energy       :       -731.39809371647686 Eh          -19902.35395 eV

Components:
Nuclear Repulsion  :        686.49899716868799 Eh           18680.58742 eV
Electronic Energy  :      -1417.89712748105239 Eh          -38582.94236 eV
One Electron Energy:      -2360.06551563434641 Eh          -64220.64760 eV
Two Electron Energy:        942.16838815329413 Eh           25637.70524 eV

Virial components:
Potential Energy   :      -1459.48056221576962 Eh          -39714.48514 eV
Kinetic Energy     :        728.08246849929276 Eh           19812.13120 eV
Virial Ratio       :          2.00455391437184

DFT components:
N(Alpha)           :       45.000091263177 electrons
N(Beta)            :       45.000091263177 electrons
N(Total)           :       90.000182526353 electrons
E(XC)              :      -39.819459978865 Eh       

---------------
SCF CONVERGENCE
---------------

  Last Energy change         ...    3.1234e-07  Tolerance :   1.0000e-06
  Last MAX-Density change    ...    2.1540e-04  Tolerance :   1.0000e-05
  Last RMS-Density change    ...    3.7675e-06  Tolerance :   1.0000e-06
  Last DIIS Error            ...    3.2420e-03  Tolerance :   1.0000e-05
  Last Orbital Gradient      ...    5.0984e-05  Tolerance :   5.0000e-05
  Last Orbital Rotation      ...    7.2119e-05  Tolerance :   5.0000e-05


----------------
ORBITAL ENERGIES
----------------

  NO   OCC          E(Eh)            E(eV) 
   0   2.0000     -78.017241     -2122.9571 
   1   2.0000     -10.552604      -287.1510 
   2   2.0000     -10.552352      -287.1441 
   3   2.0000     -10.551327      -287.1162 
   4   2.0000     -10.550601      -287.0964 
   5   2.0000     -10.550128      -287.0836 
   6   2.0000     -10.549536      -287.0675 
   7   2.0000     -10.540891      -286.8322 
   8   2.0000     -10.540452      -286.8203 
   9   2.0000     -10.530891      -286.5601 
  10   2.0000     -10.530365      -286.5458 
  11   2.0000      -6.833352      -185.9450 
  12   2.0000      -4.947800      -134.6365 
  13   2.0000      -4.947526      -134.6290 
  14   2.0000      -4.947357      -134.6244 
  15   2.0000      -0.955675       -26.0052 
  16   2.0000      -0.875082       -23.8122 
  17   2.0000      -0.845011       -22.9939 
  18   2.0000      -0.840709       -22.8768 
  19   2.0000      -0.834941       -22.7199 
  20   2.0000      -0.737114       -20.0579 
  21   2.0000      -0.688448       -18.7336 
  22   2.0000      -0.682176       -18.5630 
  23   2.0000      -0.680726       -18.5235 
  24   2.0000      -0.615943       -16.7607 
  25   2.0000      -0.575771       -15.6675 
  26   2.0000      -0.524532       -14.2732 
  27   2.0000      -0.517741       -14.0884 
  28   2.0000      -0.509710       -13.8699 
  29   2.0000      -0.505157       -13.7460 
  30   2.0000      -0.499229       -13.5847 
  31   2.0000      -0.485339       -13.2068 
  32   2.0000      -0.466488       -12.6938 
  33   2.0000      -0.455372       -12.3913 
  34   2.0000      -0.436622       -11.8811 
  35   2.0000      -0.434605       -11.8262 
  36   2.0000      -0.420080       -11.4310 
  37   2.0000      -0.413310       -11.2467 
  38   2.0000      -0.403597       -10.9824 
  39   2.0000      -0.400277       -10.8921 
  40   2.0000      -0.360703        -9.8152 
  41   2.0000      -0.358861        -9.7651 
  42   2.0000      -0.310014        -8.4359 
  43   2.0000      -0.304403        -8.2832 
  44   2.0000      -0.279470        -7.6048 
  45   0.0000       0.001529         0.0416 
  46   0.0000       0.015115         0.4113 
  47   0.0000       0.065098         1.7714 
  48   0.0000       0.066843         1.8189 
  49   0.0000       0.071686         1.9507 
  50   0.0000       0.085842         2.3359 
  51   0.0000       0.096960         2.6384 
  52   0.0000       0.104916         2.8549 
  53   0.0000       0.116617         3.1733 
  54   0.0000       0.121134         3.2962 
  55   0.0000       0.126877         3.4525 
*Only the first 10 virtual orbitals were printed.

                    ********************************
                    * MULLIKEN POPULATION ANALYSIS *
                    ********************************

-----------------------
MULLIKEN ATOMIC CHARGES
-----------------------
   0 C :   -0.429646
   1 C :   -0.361406
   2 P :    0.162069
   3 C :   -0.347259
   4 C :   -0.436573
   5 C :   -0.128912
   6 C :   -0.150358
   7 C :   -0.169569
   8 C :   -0.133640
   9 C :   -0.153011
  10 C :   -0.090380
  11 H :    0.141963
  12 H :    0.149546
  13 H :    0.158237
  14 H :    0.148764
  15 H :    0.152554
  16 H :    0.149301
  17 H :    0.148444
  18 H :    0.148449
  19 H :    0.142335
  20 H :    0.160012
  21 H :    0.150446
  22 H :    0.144120
  23 H :    0.145780
  24 H :    0.144918
  25 H :    0.153815
Sum of atomic charges:   -0.0000000

--------------------------------
MULLIKEN REDUCED ORBITAL CHARGES
--------------------------------
  0 C s       :     3.319288  s :     3.319288
      pz      :     1.074679  p :     3.048916
      px      :     1.063866
      py      :     0.910371
      dz2     :     0.004375  d :     0.058058
      dxz     :     0.007553
      dyz     :     0.021098
      dx2y2   :     0.013595
      dxy     :     0.011436
      f0      :     0.000409  f :     0.003384
      f+1     :     0.000148
      f-1     :     0.000584
      f+2     :     0.000631
      f-2     :     0.000325
      f+3     :     0.000671
      f-3     :     0.000615

  1 C s       :     3.263174  s :     3.263174
      pz      :     1.021725  p :     3.021734
      px      :     1.047602
      py      :     0.952406
      dz2     :     0.011686  d :     0.072857
      dxz     :     0.007304
      dyz     :     0.022976
      dx2y2   :     0.016948
      dxy     :     0.013944
      f0      :     0.000483  f :     0.003641
      f+1     :     0.000213
      f-1     :     0.000593
      f+2     :     0.000687
      f-2     :     0.000284
      f+3     :     0.000774
      f-3     :     0.000607

  2 P s       :     5.711047  s :     5.711047
      pz      :     3.294274  p :     8.861546
      px      :     2.716207
      py      :     2.851066
      dz2     :     0.032999  d :     0.239729
      dxz     :     0.054652
      dyz     :     0.036097
      dx2y2   :     0.065566
      dxy     :     0.050415
      f0      :     0.003009  f :     0.025608
      f+1     :     0.003450
      f-1     :     0.002785
      f+2     :     0.005152
      f-2     :     0.003514
      f+3     :     0.003212
      f-3     :     0.004487

  3 C s       :     3.257435  s :     3.257435
      pz      :     1.022635  p :     3.012896
      px      :     1.030534
      py      :     0.959727
      dz2     :     0.023349  d :     0.073277
      dxz     :     0.005780
      dyz     :     0.011657
      dx2y2   :     0.023636
      dxy     :     0.008855
      f0      :     0.000644  f :     0.003652
      f+1     :     0.000349
      f-1     :     0.000641
      f+2     :     0.000530
      f-2     :     0.000302
      f+3     :     0.000593
      f-3     :     0.000592

  4 C s       :     3.322725  s :     3.322725
      pz      :     1.021238  p :     3.051548
      px      :     1.025829
      py      :     1.004481
      dz2     :     0.021711  d :     0.058886
      dxz     :     0.004719
      dyz     :     0.003897
      dx2y2   :     0.022669
      dxy     :     0.005889
      f0      :     0.000555  f :     0.003413
      f+1     :     0.000324
      f-1     :     0.000598
      f+2     :     0.000488
      f-2     :     0.000304
      f+3     :     0.000685
      f-3     :     0.000459

  5 C s       :     3.291642  s :     3.291642
      pz      :     0.888157  p :     2.758264
      px      :     0.913019
      py      :     0.957087
      dz2     :     0.015629  d :     0.072131
      dxz     :     0.017751
      dyz     :     0.015157
      dx2y2   :     0.010628
      dxy     :     0.012966
      f0      :     0.001014  f :     0.006875
      f+1     :     0.001666
      f-1     :     0.000960
      f+2     :     0.000938
      f-2     :     0.000679
      f+3     :     0.000809
      f-3     :     0.000809

  6 C s       :     3.173856  s :     3.173856
      pz      :     0.886579  p :     2.903142
      px      :     1.058556
      py      :     0.958006
      dz2     :     0.013245  d :     0.066830
      dxz     :     0.020201
      dyz     :     0.013542
      dx2y2   :     0.007240
      dxy     :     0.012602
      f0      :     0.000982  f :     0.006531
      f+1     :     0.001562
      f-1     :     0.000823
      f+2     :     0.000908
      f-2     :     0.000682
      f+3     :     0.000615
      f-3     :     0.000958

  7 C s       :     3.236447  s :     3.236447
      pz      :     1.004403  p :     2.865743
      px      :     0.896643
      py      :     0.964698
      dz2     :     0.012157  d :     0.061096
      dxz     :     0.015287
      dyz     :     0.005667
      dx2y2   :     0.008285
      dxy     :     0.019699
      f0      :     0.000555  f :     0.006283
      f+1     :     0.001423
      f-1     :     0.000450
      f+2     :     0.000953
      f-2     :     0.000842
      f+3     :     0.000894
      f-3     :     0.001167

  8 C s       :     3.221316  s :     3.221316
      pz      :     0.910349  p :     2.844724
      px      :     0.981291
      py      :     0.953084
      dz2     :     0.014002  d :     0.061295
      dxz     :     0.015484
      dyz     :     0.014242
      dx2y2   :     0.009711
      dxy     :     0.007855
      f0      :     0.001011  f :     0.006306
      f+1     :     0.001381
      f-1     :     0.000916
      f+2     :     0.000967
      f-2     :     0.000612
      f+3     :     0.000844
      f-3     :     0.000575

  9 C s       :     3.230399  s :     3.230399
      pz      :     0.922199  p :     2.855462
      px      :     0.969840
      py      :     0.963423
      dz2     :     0.013237  d :     0.060860
      dxz     :     0.014534
      dyz     :     0.013804
      dx2y2   :     0.008294
      dxy     :     0.010991
      f0      :     0.000984  f :     0.006289
      f+1     :     0.001393
      f-1     :     0.000870
      f+2     :     0.000891
      f-2     :     0.000615
      f+3     :     0.000604
      f-3     :     0.000933

 10 C s       :     3.182969  s :     3.182969
      pz      :     0.994423  p :     2.836637
      px      :     0.891528
      py      :     0.950686
      dz2     :     0.014601  d :     0.064287
      dxz     :     0.015591
      dyz     :     0.005886
      dx2y2   :     0.008064
      dxy     :     0.020145
      f0      :     0.000527  f :     0.006487
      f+1     :     0.001557
      f-1     :     0.000430
      f+2     :     0.000943
      f-2     :     0.000820
      f+3     :     0.001008
      f-3     :     0.001201

 11 H s       :     0.839677  s :     0.839677
      pz      :     0.006815  p :     0.018360
      px      :     0.006096
      py      :     0.005449

 12 H s       :     0.831930  s :     0.831930
      pz      :     0.009168  p :     0.018524
      px      :     0.003546
      py      :     0.005810

 13 H s       :     0.823275  s :     0.823275
      pz      :     0.004450  p :     0.018488
      px      :     0.010603
      py      :     0.003435

 14 H s       :     0.831665  s :     0.831665
      pz      :     0.009911  p :     0.019571
      px      :     0.003817
      py      :     0.005843

 15 H s       :     0.828126  s :     0.828126
      pz      :     0.004554  p :     0.019319
      px      :     0.011109
      py      :     0.003657

 16 H s       :     0.831436  s :     0.831436
      pz      :     0.004027  p :     0.019263
      px      :     0.011118
      py      :     0.004118

 17 H s       :     0.832078  s :     0.832078
      pz      :     0.011468  p :     0.019478
      px      :     0.003553
      py      :     0.004458

 18 H s       :     0.833057  s :     0.833057
      pz      :     0.011304  p :     0.018494
      px      :     0.003525
      py      :     0.003665

 19 H s       :     0.839316  s :     0.839316
      pz      :     0.003577  p :     0.018349
      px      :     0.004180
      py      :     0.010592

 20 H s       :     0.821584  s :     0.821584
      pz      :     0.004136  p :     0.018405
      px      :     0.010834
      py      :     0.003434

 21 H s       :     0.829618  s :     0.829618
      pz      :     0.005816  p :     0.019937
      px      :     0.009689
      py      :     0.004432

 22 H s       :     0.836241  s :     0.836241
      pz      :     0.012324  p :     0.019639
      px      :     0.002790
      py      :     0.004526

 23 H s       :     0.834611  s :     0.834611
      pz      :     0.004667  p :     0.019609
      px      :     0.011235
      py      :     0.003707

 24 H s       :     0.835437  s :     0.835437
      pz      :     0.005733  p :     0.019645
      px      :     0.009533
      py      :     0.004379

 25 H s       :     0.826211  s :     0.826211
      pz      :     0.012588  p :     0.019974
      px      :     0.002918
      py      :     0.004468



                     *******************************
                     * LOEWDIN POPULATION ANALYSIS *
                     *******************************

----------------------
LOEWDIN ATOMIC CHARGES
----------------------
   0 C :   -0.348620
   1 C :   -0.443355
   2 P :    0.591714
   3 C :   -0.440979
   4 C :   -0.348980
   5 C :   -0.285528
   6 C :   -0.141990
   7 C :   -0.144653
   8 C :   -0.140754
   9 C :   -0.142887
  10 C :   -0.146354
  11 H :    0.121622
  12 H :    0.123903
  13 H :    0.125920
  14 H :    0.123571
  15 H :    0.133077
  16 H :    0.132354
  17 H :    0.125005
  18 H :    0.123466
  19 H :    0.121618
  20 H :    0.126144
  21 H :    0.145873
  22 H :    0.147029
  23 H :    0.147022
  24 H :    0.147412
  25 H :    0.148370

-------------------------------
LOEWDIN REDUCED ORBITAL CHARGES
-------------------------------
  0 C s       :     2.847332  s :     2.847332
      pz      :     1.078936  p :     3.208587
      px      :     1.078047
      py      :     1.051604
      dz2     :     0.026551  d :     0.268072
      dxz     :     0.031255
      dyz     :     0.087196
      dx2y2   :     0.068555
      dxy     :     0.054514
      f0      :     0.002978  f :     0.024629
      f+1     :     0.001379
      f-1     :     0.004287
      f+2     :     0.003132
      f-2     :     0.003082
      f+3     :     0.005145
      f-3     :     0.004626

  1 C s       :     2.855268  s :     2.855268
      pz      :     1.083016  p :     3.214311
      px      :     1.067011
      py      :     1.064285
      dz2     :     0.064853  d :     0.345795
      dxz     :     0.042940
      dyz     :     0.096566
      dx2y2   :     0.083238
      dxy     :     0.058198
      f0      :     0.003483  f :     0.027981
      f+1     :     0.002403
      f-1     :     0.004997
      f+2     :     0.004052
      f-2     :     0.002666
      f+3     :     0.005912
      f-3     :     0.004468

  2 P s       :     4.973218  s :     4.973218
      pz      :     3.267454  p :     8.854216
      px      :     2.745846
      py      :     2.840915
      dz2     :     0.077509  d :     0.484392
      dxz     :     0.100926
      dyz     :     0.075110
      dx2y2   :     0.126261
      dxy     :     0.104586
      f0      :     0.010044  f :     0.096459
      f+1     :     0.014081
      f-1     :     0.009007
      f+2     :     0.019167
      f-2     :     0.013255
      f+3     :     0.014995
      f-3     :     0.015911

  3 C s       :     2.855895  s :     2.855895
      pz      :     1.060505  p :     3.211158
      px      :     1.057397
      py      :     1.093256
      dz2     :     0.092525  d :     0.345975
      dxz     :     0.030975
      dyz     :     0.067146
      dx2y2   :     0.104428
      dxy     :     0.050902
      f0      :     0.003760  f :     0.027950
      f+1     :     0.002388
      f-1     :     0.004258
      f+2     :     0.005472
      f-2     :     0.003948
      f+3     :     0.004321
      f-3     :     0.003805

  4 C s       :     2.847505  s :     2.847505
      pz      :     1.072120  p :     3.208577
      px      :     1.073640
      py      :     1.062817
      dz2     :     0.085010  d :     0.268259
      dxz     :     0.027824
      dyz     :     0.028845
      dx2y2   :     0.089288
      dxy     :     0.037291
      f0      :     0.002717  f :     0.024639
      f+1     :     0.002328
      f-1     :     0.004090
      f+2     :     0.004699
      f-2     :     0.003717
      f+3     :     0.004373
      f-3     :     0.002715

  5 C s       :     2.783348  s :     2.783348
      pz      :     1.065147  p :     3.004771
      px      :     1.051150
      py      :     0.888475
      dz2     :     0.111230  d :     0.452718
      dxz     :     0.158467
      dyz     :     0.067281
      dx2y2   :     0.063780
      dxy     :     0.051960
      f0      :     0.006663  f :     0.044691
      f+1     :     0.014241
      f-1     :     0.005492
      f+2     :     0.005032
      f-2     :     0.005427
      f+3     :     0.004133
      f-3     :     0.003703

  6 C s       :     2.775752  s :     2.775752
      pz      :     1.026642  p :     2.941882
      px      :     1.018937
      py      :     0.896303
      dz2     :     0.087172  d :     0.383723
      dxz     :     0.150557
      dyz     :     0.054139
      dx2y2   :     0.044994
      dxy     :     0.046862
      f0      :     0.006582  f :     0.040633
      f+1     :     0.012272
      f-1     :     0.005185
      f+2     :     0.004827
      f-2     :     0.003705
      f+3     :     0.003849
      f-3     :     0.004214

  7 C s       :     2.778638  s :     2.778638
      pz      :     0.984509  p :     2.949705
      px      :     1.065445
      py      :     0.899751
      dz2     :     0.102546  d :     0.375734
      dxz     :     0.099034
      dyz     :     0.023996
      dx2y2   :     0.072511
      dxy     :     0.077647
      f0      :     0.003184  f :     0.040576
      f+1     :     0.012493
      f-1     :     0.001709
      f+2     :     0.006027
      f-2     :     0.006817
      f+3     :     0.005848
      f-3     :     0.004498

  8 C s       :     2.779116  s :     2.779116
      pz      :     1.041287  p :     2.946424
      px      :     1.004681
      py      :     0.900455
      dz2     :     0.098505  d :     0.374655
      dxz     :     0.128502
      dyz     :     0.062341
      dx2y2   :     0.054619
      dxy     :     0.030688
      f0      :     0.006566  f :     0.040559
      f+1     :     0.012021
      f-1     :     0.005560
      f+2     :     0.004548
      f-2     :     0.004849
      f+3     :     0.004278
      f-3     :     0.002738

  9 C s       :     2.778716  s :     2.778716
      pz      :     1.032903  p :     2.949828
      px      :     1.017300
      py      :     0.899625
      dz2     :     0.087367  d :     0.373923
      dxz     :     0.142923
      dyz     :     0.053796
      dx2y2   :     0.044342
      dxy     :     0.045494
      f0      :     0.006701  f :     0.040420
      f+1     :     0.012019
      f-1     :     0.005304
      f+2     :     0.004782
      f-2     :     0.003634
      f+3     :     0.003884
      f-3     :     0.004096

 10 C s       :     2.780013  s :     2.780013
      pz      :     0.986504  p :     2.942829
      px      :     1.067788
      py      :     0.888537
      dz2     :     0.105593  d :     0.383067
      dxz     :     0.099285
      dyz     :     0.024246
      dx2y2   :     0.076032
      dxy     :     0.077910
      f0      :     0.003137  f :     0.040446
      f+1     :     0.012517
      f-1     :     0.001673
      f+2     :     0.005960
      f-2     :     0.006729
      f+3     :     0.005868
      f-3     :     0.004560

 11 H s       :     0.820457  s :     0.820457
      pz      :     0.021627  p :     0.057921
      px      :     0.020320
      py      :     0.015974

 12 H s       :     0.818132  s :     0.818132
      pz      :     0.028860  p :     0.057965
      px      :     0.012255
      py      :     0.016850

 13 H s       :     0.815487  s :     0.815487
      pz      :     0.014919  p :     0.058594
      px      :     0.032260
      py      :     0.011414

 14 H s       :     0.817115  s :     0.817115
      pz      :     0.029534  p :     0.059314
      px      :     0.012730
      py      :     0.017049

 15 H s       :     0.808189  s :     0.808189
      pz      :     0.014876  p :     0.058735
      px      :     0.031624
      py      :     0.012234

 16 H s       :     0.808947  s :     0.808947
      pz      :     0.013980  p :     0.058699
      px      :     0.031361
      py      :     0.013358

 17 H s       :     0.815778  s :     0.815778
      pz      :     0.032864  p :     0.059218
      px      :     0.011975
      py      :     0.014379

 18 H s       :     0.818596  s :     0.818596
      pz      :     0.033244  p :     0.057938
      px      :     0.012058
      py      :     0.012636

 19 H s       :     0.820478  s :     0.820478
      pz      :     0.012490  p :     0.057904
      px      :     0.014652
      py      :     0.030762

 20 H s       :     0.815285  s :     0.815285
      pz      :     0.014252  p :     0.058571
      px      :     0.032512
      py      :     0.011807

 21 H s       :     0.798005  s :     0.798005
      pz      :     0.016851  p :     0.056122
      px      :     0.025761
      py      :     0.013510

 22 H s       :     0.797227  s :     0.797227
      pz      :     0.031970  p :     0.055744
      px      :     0.010099
      py      :     0.013675

 23 H s       :     0.797208  s :     0.797208
      pz      :     0.014431  p :     0.055771
      px      :     0.029598
      py      :     0.011742

 24 H s       :     0.796808  s :     0.796808
      pz      :     0.016860  p :     0.055780
      px      :     0.025574
      py      :     0.013347

 25 H s       :     0.795324  s :     0.795324
      pz      :     0.032816  p :     0.056306
      px      :     0.009928
      py      :     0.013562



                      *****************************
                      * MAYER POPULATION ANALYSIS *
                      *****************************

  NA   - Mulliken gross atomic population
  ZA   - Total nuclear charge
  QA   - Mulliken gross atomic charge
  VA   - Mayer's total valence
  BVA  - Mayer's bonded valence
  FA   - Mayer's free valence

  ATOM       NA         ZA         QA         VA         BVA        FA
  0 C      6.4296     6.0000    -0.4296     3.8358     3.8358    -0.0000
  1 C      6.3614     6.0000    -0.3614     3.7707     3.7707     0.0000
  2 P     14.8379    15.0000     0.1621     3.0227     3.0227    -0.0000
  3 C      6.3473     6.0000    -0.3473     3.7701     3.7701    -0.0000
  4 C      6.4366     6.0000    -0.4366     3.8464     3.8464    -0.0000
  5 C      6.1289     6.0000    -0.1289     3.7417     3.7417     0.0000
  6 C      6.1504     6.0000    -0.1504     3.8546     3.8546    -0.0000
  7 C      6.1696     6.0000    -0.1696     4.0302     4.0302    -0.0000
  8 C      6.1336     6.0000    -0.1336     3.9304     3.9304    -0.0000
  9 C      6.1530     6.0000    -0.1530     3.9591     3.9591     0.0000
 10 C      6.0904     6.0000    -0.0904     3.8628     3.8628     0.0000
 11 H      0.8580     1.0000     0.1420     0.9561     0.9561    -0.0000
 12 H      0.8505     1.0000     0.1495     0.9579     0.9579     0.0000
 13 H      0.8418     1.0000     0.1582     0.9538     0.9538    -0.0000
 14 H      0.8512     1.0000     0.1488     0.9462     0.9462     0.0000
 15 H      0.8474     1.0000     0.1526     0.9503     0.9503     0.0000
 16 H      0.8507     1.0000     0.1493     0.9494     0.9494    -0.0000
 17 H      0.8516     1.0000     0.1484     0.9466     0.9466    -0.0000
 18 H      0.8516     1.0000     0.1484     0.9577     0.9577    -0.0000
 19 H      0.8577     1.0000     0.1423     0.9563     0.9563     0.0000
 20 H      0.8400     1.0000     0.1600     0.9514     0.9514     0.0000
 21 H      0.8496     1.0000     0.1504     0.9654     0.9654    -0.0000
 22 H      0.8559     1.0000     0.1441     0.9661     0.9661     0.0000
 23 H      0.8542     1.0000     0.1458     0.9635     0.9635     0.0000
 24 H      0.8551     1.0000     0.1449     0.9652     0.9652     0.0000
 25 H      0.8462     1.0000     0.1538     0.9773     0.9773     0.0000

  Mayer bond orders larger than 0.100000
B(  0-C ,  1-C ) :   0.9292 B(  0-C , 11-H ) :   0.9720 B(  0-C , 12-H ) :   0.9712 
B(  0-C , 13-H ) :   0.9673 B(  1-C ,  2-P ) :   0.9607 B(  1-C , 14-H ) :   0.9558 
B(  1-C , 15-H ) :   0.9480 B(  2-P ,  3-C ) :   0.9613 B(  2-P ,  5-C ) :   0.9409 
B(  3-C ,  4-C ) :   0.9329 B(  3-C , 16-H ) :   0.9466 B(  3-C , 17-H ) :   0.9546 
B(  4-C , 18-H ) :   0.9719 B(  4-C , 19-H ) :   0.9724 B(  4-C , 20-H ) :   0.9664 
B(  5-C ,  6-C ) :   1.2978 B(  5-C , 10-C ) :   1.3873 B(  6-C ,  7-C ) :   1.4988 
B(  6-C , 21-H ) :   0.9263 B(  7-C ,  8-C ) :   1.4303 B(  7-C , 22-H ) :   0.9437 
B(  8-C ,  9-C ) :   1.4495 B(  8-C , 23-H ) :   0.9460 B(  9-C , 10-C ) :   1.4471 
B(  9-C , 24-H ) :   0.9484 B( 10-C , 25-H ) :   0.9283 

-------
TIMINGS
-------

Total SCF time: 0 days 0 hours 0 min 47 sec 

Total time                  ....      47.407 sec
Sum of individual times     ....      47.410 sec  (100.0%)

SCF preparation             ....       0.175 sec  (  0.4%)
Fock matrix formation       ....      46.061 sec  ( 97.2%)
  Startup                   ....       0.042 sec  (  0.1% of F)
  Split-RI-J                ....       2.734 sec  (  5.9% of F)
  Chain of spheres X        ....      30.785 sec  ( 66.8% of F)
  XC integration            ....      12.361 sec  ( 26.8% of F)
    Basis function eval.    ....       1.826 sec  ( 14.8% of XC)
    Density eval.           ....       5.107 sec  ( 41.3% of XC)
    XC-Functional eval.     ....       0.293 sec  (  2.4% of XC)
    XC-Potential eval.      ....       4.528 sec  ( 36.6% of XC)
Diagonalization             ....       0.000 sec  (  0.0%)
Density matrix formation    ....       0.112 sec  (  0.2%)
Total Energy calculation    ....       0.049 sec  (  0.1%)
Population analysis         ....       0.085 sec  (  0.2%)
Orbital Transformation      ....       0.148 sec  (  0.3%)
Orbital Orthonormalization  ....       0.000 sec  (  0.0%)
DIIS solution               ....       0.513 sec  (  1.1%)
SOSCF solution              ....       0.267 sec  (  0.6%)
Finished LeanSCF after  47.4 sec

Maximum memory used throughout the entire LEANSCF-calculation: 51.3 MB


-------------------------------------------------------------------------------
                          DFT DISPERSION CORRECTION                            
                                                                               
                              DFTD3 V3.1  Rev 1                                
                              USING zero damping                               
-------------------------------------------------------------------------------
The M062X functional is recognized
Active option DFTDOPT                   ...         3   

molecular C6(AA) [au] = 7342.654797 


            DFT-D V3
 parameters
 s6 scaling factor         :     1.0000 
 rs6 scaling factor        :     1.6190 
 s8 scaling factor         :     0.0000 
 rs8 scaling factor        :     1.0000 
 Damping factor alpha6     :    14.0000 
 Damping factor alpha8     :    16.0000 
 ad hoc parameters k1-k3   :    16.0000     1.3333    -4.0000 

 Edisp/kcal,au: -0.716266850356  -0.001141443761 
 E6   /kcal   :  -0.716266850 
 E8   /kcal   :  -0.000000000 
 % E8         :   0.000000000 

-------------------------   ----------------
Dispersion correction           -0.001141444
-------------------------   ----------------


-------------------------   --------------------
FINAL SINGLE POINT ENERGY      -731.399235160238
-------------------------   --------------------



           ************************************************************
           *        Program running with 6 parallel MPI-processes     *
           *              working on a common directory               *
           ************************************************************

------------------------------------------------------------------------------
                              ORCA PROPERTY CALCULATIONS
------------------------------------------------------------------------------

GBWName                                 ... data/single_point_P_M06-2x/74149/74149.gbw
Number of atoms                         ...     26
Number of basis functions               ...    437
Max core memory                         ...   1024 MB

Electric properties:
Dipole moment                           ... YES
Quadrupole moment                       ...  NO
Static polarizability (Dipole/Dipole)   ...  NO
Static polarizability (Dipole/Quad.)    ...  NO
Static polarizability (Quad./Quad.)     ...  NO
Static polarizability (Velocity)        ...  NO

Atomic electric properties:
Dipole moment                           ...  NO
Quadrupole moment                       ...  NO
Static polarizability                   ...  NO

Choice of electric origin               ... Center of mass
Position of electric origin             ...     0.285141    -0.139935     0.225441

General magnetic properties:
Magnetizability                         ...  NO

EPR properties:
g-Tensor (aka g-matrix)                 ...  NO
Zero-Field splitting spin-orbit         ...  NO
Zero-field splitting spin-spin          ...  NO
Hyperfine couplings                     ...  NO (   0 nuclei)
Quadrupole couplings                    ...  NO (   0 nuclei)
Contact density                         ...  NO (   0 nuclei)

NMR properties:
Chemical shifts                         ...  NO (   0 nuclei)
Spin-rotation constants                 ...  NO (   0 nuclei)
Spin-spin couplings                     ...  NO (   0 nuclei,    0 pairs)

Choice of magnetic origin               ... GIAO
Position of magnetic origin             ...     0.000000     0.000000     0.000000

Properties with geometric perturbations:
SCF Hessian                             ...  NO
IR spectrum                             ...  NO
VCD spectrum                            ...  NO
X-ray spectroscopy properties:
SCF XES/XAS/RIXS spectra                ...  NO


-------------
DIPOLE MOMENT
-------------

Method             : SCF
Type of density    : Electron Density
Multiplicity       :   1
Irrep              :   0
Energy             :  -731.3980937164768648 Eh
Relativity type    : 
Basis              : AO
                                X                 Y                 Z
Electronic contribution:      4.905960184      -1.676259766       2.053110162
Nuclear contribution   :     -4.886168782       1.853946454      -2.507743658
                        -----------------------------------------
Total Dipole Moment    :      0.019791401       0.177686689      -0.454633496
                        -----------------------------------------
Magnitude (a.u.)       :      0.488524180
Magnitude (Debye)      :      1.241729784



--------------------
Rotational spectrum 
--------------------
 
Rotational constants in cm-1:             0.040493             0.024010             0.018918 
Rotational constants in MHz :          1213.951112           719.815249           567.162356 

Dipole components along the rotational axes: 
x,y,z [a.u.] :     0.140835    -0.020709     0.467325 
x,y,z [Debye]:     0.357975    -0.052639     1.187845 

 

Dipole moment calculation done in   0.0 sec 

Maximum memory used throughout the entire PROP-calculation: 25.9 MB

--------------------------------
SUGGESTED CITATIONS FOR THIS RUN
--------------------------------

Below you find a list of papers that are relevant to this ORCA run
We neither can nor want to force you to cite these papers, but we appreciate if you do
You receive ORCA, which is the product of decades of hard work by many enthusiastic individuals, for free
The only thing we kindly ask in return is that you cite our papers,
We deeply appreciate it, if you show your appreciation for ORCA by not just citing the generic ORCA reference.

Please note that relegating all ORCA citations to the supporting information does *not* help us.
SI sections are not indexed - citations you put there will not count into any citation statistics
But we need these citations in order to attract the funding resources that allow us to do what we are doing

Therefore, if you are a happy ORCA user, please consider citing a few of the papers listed below in the main body of your paper

In addition to the list printed below, the program has created the file data/single_point_P_M06-2x/74149/74149.bibtex that contains the list in bibtex format
You can import this file easily into all common literature databanks and citation aid programs


List of essential papers. We consider these as the minimum necessary citations

  1. Neese,F.
     Software update: the ORCA program system, version 5.0
     WIRES Comput. Molec. Sci., 2022 12(1)e1606
     doi.org/10.1002/wcms.1606

List of papers to cite with high priority. The work reported in these papers was absolutely
necessary for this run to complete.
Our perspective: the developers of density functionals and basis sets usually get cited in chemistry papers
Good! But without the algorithms to do something with them, the functionals or basis sets would not do anything.
Hence, in our opinion, the algorithm design and method developments papers are equally worthy of getting cited

  1. Neese,F.
     An improvement of the resolution of the identity approximation for the formation of the Coulomb matrix
     J. Comp. Chem., 2003 24(14)1740-1747
     doi.org/10.1002/jcc.10318
  2. Neese,F.; Wennmohs,F.; Hansen,A.; Becker,U.
     Efficient, approximate and parallel Hartree-Fock and hybrid DFT calculations. A 'chain-of-spheres' algorithm for the Hartree-Fock exchange
     Chem. Phys., 2009 356(1-3)98-109
     doi.org/10.1016/j.chemphys.2008.10.036
  3. Helmich-Paris,B.; de Souza,B.; Neese,F.; Izsák,R.
     An improved chain of spheres for exchange algorithm
     J. Chem. Phys., 2021 155 104109
     doi.org/doi: 10.1063/5.0058766.
  4. Neese,F.
     The SHARK Integral Generation and Digestion System
     J. Comp. Chem., 2022  1-16
     doi.org/10.1002/jcc.26942
  5. Grimme,S.; Antony,J.; Ehrlich,S.; Krieg,H.
     A consistent and accurate ab initio parametrization of density functional dispersion correction (DFT-D) for the 94 elements H-Pu
     J. Chem. Phys., 2010 132 154104-XXXX
     doi.org/10.1063/1.3382344

List of suggested additional citations. These are papers that are important in the 'surrounding' of 
of this run, or papers that preceded the highly important papers. If you like your results we are grateful for a citation.

  1. Izsak,R.; Neese,F.
     An overlap fitted chain of spheres exchange method
     J. Chem. Phys., 2011 135 144105
     doi.org/10.1063/1.3646921
  2. Izsak,R.; Hansen,A.; Neese,F.
     The resolution of identity and chain of spheres approximations for the LPNO-CCSD singles Fock term
     Molec. Phys., 2012 110 2413-2417
     doi.org/10.1080/00268976.2012.687466
  3. Neese,F.
     The ORCA program system
     WIRES Comput. Molec. Sci., 2012 2(1)73-78
     doi.org/10.1002/wcms.81
  4. Izsak,R.; Neese,F.; Klopper,W.
     Robust fitting techniques in the chain of spheres approximation to the Fock exchange: The role of the complementary space
     J. Chem. Phys., 2013 139 
     doi.org/10.1063/1.4819264
  5. Neese,F.
     Software update: the ORCA program system, version 4.0
     WIRES Comput. Molec. Sci., 2018 8(1)1-6
     doi.org/10.1002/wcms.1327
  6. Neese,F.; Wennmohs,F.; Becker,U.; Riplinger,C.
     The ORCA quantum chemistry program package
     J. Chem. Phys., 2020 152 Art. No. L224108
     doi.org/10.1063/5.0004608

List of optional additional citations

  1. Neese,F.
     Approximate second-order SCF convergence for spin unrestricted wavefunctions
     Chem. Phys. Lett., 2000 325(1-3)93-98
     doi.org/10.1016/s0009-2614(00)00662-x

Timings for individual modules:

Sum of individual times          ...       51.045 sec (=   0.851 min)
Startup calculation              ...        2.464 sec (=   0.041 min)   4.8 %
SCF iterations                   ...       48.370 sec (=   0.806 min)  94.8 %
Property calculations            ...        0.211 sec (=   0.004 min)   0.4 %
                             ****ORCA TERMINATED NORMALLY****
TOTAL RUN TIME: 0 days 0 hours 0 minutes 51 seconds 278 msec
