
                                 *****************
                                 * O   R   C   A *
                                 *****************

                                            #,                                       
                                            ###                                      
                                            ####                                     
                                            #####                                    
                                            ######                                   
                                           ########,                                 
                                     ,,################,,,,,                         
                               ,,#################################,,                 
                          ,,##########################################,,             
                       ,#########################################, ''#####,          
                    ,#############################################,,   '####,        
                  ,##################################################,,,,####,       
                ,###########''''           ''''###############################       
              ,#####''   ,,,,##########,,,,          '''####'''          '####       
            ,##' ,,,,###########################,,,                        '##       
           ' ,,###''''                  '''############,,,                           
         ,,##''                                '''############,,,,        ,,,,,,###''
      ,#''                                            '''#######################'''  
     '                                                          ''''####''''         
             ,#######,   #######,   ,#######,      ##                                
            ,#'     '#,  ##    ##  ,#'     '#,    #''#        ,####,   ,####,        
            ##       ##  ##   ,#'  ##            #'  '#       #'       #'  '#        
            ##       ##  #######   ##           ,######,      #####,   #    #        
            '#,     ,#'  ##    ##  '#,     ,#' ,#      #,     #,   #   #,  ,#        
             '#######'   ##     ##  '#######'  #'      '#     '####' # '####'        



                #########################################################
                #                        -***-                          #
                #          Department of theory and spectroscopy        #
                #                                                       #
                #                      Frank Neese                      #
                #                                                       #
                #     Directorship, Architecture, Infrastructure        #
                #                    SHARK, DRIVERS                     #
                #        Core code/Algorithms in most modules           #
                #                                                       #
                #        Max Planck Institute fuer Kohlenforschung      #
                #                Kaiser Wilhelm Platz 1                 #
                #                 D-45470 Muelheim/Ruhr                 #
                #                      Germany                          #
                #                                                       #
                #                  All rights reserved                  #
                #                        -***-                          #
                #########################################################


                         Program Version 6.0.0  -   RELEASE   -


 With contributions from (in alphabetic order):
   Daniel Aravena         : Magnetic Suceptibility
   Michael Atanasov       : Ab Initio Ligand Field Theory (pilot matlab implementation)
   Alexander A. Auer      : GIAO ZORA, VPT2 properties, NMR spectrum
   Ute Becker             : All parallelization in ORCA, NUMFREQ, NUMCALC
   Giovanni Bistoni       : ED, misc. LED, open-shell LED, HFLD
   Martin Brehm           : Molecular dynamics
   Dmytro Bykov           : pre 5.0 version of the SCF Hessian
   Marcos Casanova-Páez   : Triplet and SCS-CIS(D). UHF-(DLPNO)-IP/EA/STEOM-CCSD. UHF-CVS-IP/STEOM-CCSD
   Vijay G. Chilkuri      : MRCI spin determinant printing, contributions to CSF-ICE
   Pauline Colinet        : FMM embedding
   Dipayan Datta          : RHF DLPNO-CCSD density
   Achintya Kumar Dutta   : EOM-CC, STEOM-CC
   Nicolas Foglia         : Exact transition moments, OPA infrastructure, MCD improvements
   Dmitry Ganyushin       : Spin-Orbit,Spin-Spin,Magnetic field MRCI
   Miquel Garcia          : C-PCM and meta-GGA Hessian, CCSD/C-PCM, Gaussian charge scheme
   Tiago L. C. Gouveia    : GS-ROHF, GS-ROCIS
   Yang Guo               : DLPNO-NEVPT2, F12-NEVPT2, CIM, IAO-localization
   Andreas Hansen         : Spin unrestricted coupled pair/coupled cluster methods
   Ingolf Harden          : AUTO-CI MPn and infrastructure 
   Benjamin Helmich-Paris : MC-RPA, TRAH-(SCF,CASSCF), AVAS, COSX integrals, SCF dyn. polar.
   Lee Huntington         : MR-EOM, pCC
   Robert Izsak           : Overlap fitted RIJCOSX, COSX-SCS-MP3, EOM
   Riya Kayal             : Wick's Theorem for AUTO-CI, AUTO-CI UHF-CCSDT
   Emily Kempfer          : AUTO-CI, RHF CISDT and CCSDT
   Christian Kollmar      : KDIIS, OOCD, Brueckner-CCSD(T), CCSD density, CASPT2, CASPT2-K, improved NEVPT2
   Axel Koslowski         : Symmetry handling
   Simone Kossmann        : Meta GGA functionals, TD-DFT gradient, OOMP2, (MP2 Hessian; deprecated post 5.0)
   Lucas Lang             : DCDCAS
   Marvin Lechner         : AUTO-CI (C++ implementation), FIC-MRCC
   Spencer Leger          : CASSCF response
   Dagmar Lenk            : GEPOL surface, SMD, ORCA-2-JSON
   Dimitrios Liakos       : Extrapolation schemes; Compound Job, initial MDCI parallelization
   Dimitrios Manganas     : Further ROCIS development; embedding schemes. LFT, Crystal Embedding
   Dimitrios Pantazis     : SARC Basis sets
   Anastasios Papadopoulos: AUTO-CI, single reference methods and gradients
   Taras Petrenko         : pre 6.0 DFT Hessian and TD-DFT gradient, (ASA, deprecated), ECA, 1-Electron XAS/XES, NRVS
   Peter Pinski           : DLPNO-MP2, DLPNO-MP2 Gradient
   Christoph Reimann      : Effective Core Potentials
   Marius Retegan         : Local ZFS, SOC
   Christoph Riplinger    : Optimizer, TS searches, QM/MM, DLPNO-CCSD(T), (RO)-DLPNO pert. Triples
   Michael Roemelt        : Original ROCIS implementation
   Masaaki Saitow         : Open-shell DLPNO-CCSD energy and density
   Barbara Sandhoefer     : DKH picture change effects
   Kantharuban Sivalingam : CASSCF convergence/infrastructure, NEVPT2 and variants, FIC-MRCI
   Bernardo de Souza      : ESD, SOC TD-DFT
   Georgi Stoychev        : AutoAux, RI-MP2 NMR, DLPNO-MP2 response, X2C
   Van Anh Tran           : RI-MP2 g-tensors
   Willem Van den Heuvel  : Paramagnetic NMR
   Zikuan Wang            : NOTCH, Electric field optimization 
   Frank Wennmohs         : Technical directorship and infrastructure
   Hang Xu                : AUTO-CI-Response properties 


 We gratefully acknowledge several colleagues who have allowed us to
 interface, adapt or use parts of their codes:
   Stefan Grimme, W. Hujo, H. Kruse, P. Pracht,  : VdW corrections, initial TS optimization,
                  C. Bannwarth, S. Ehlert,         DFT functionals, gCP, sTDA/sTD-DF
                  L. Wittmann, M. Mueller
   Ed Valeev, F. Pavosevic, A. Kumar             : LibInt (2-el integral package), F12 methods
   Garnet Chan, S. Sharma, J. Yang, R. Olivares  : DMRG
   Ulf Ekstrom                                   : XCFun DFT Library
   Mihaly Kallay                                 : mrcc  (arbitrary order and MRCC methods)
   Frank Weinhold                                : gennbo (NPA and NBO analysis)
   Simon Mueller                                 : openCOSMO-RS
   Christopher J. Cramer and Donald G. Truhlar   : smd solvation model
   Lars Goerigk                                  : TD-DFT with DH, B97 family of functionals
   V. Asgeirsson, H. Jonsson                     : NEB implementation
   FAccTs GmbH                                   : IRC, NEB, NEB-TS, DLPNO-Multilevel, CI-OPT
                                                   MM, QMMM, 2- and 3-layer-ONIOM, Crystal-QMMM,
                                                   LR-CPCM, SF, NACMEs, symmetry and pop. for TD-DFT,
                                                   nearIR, NL-DFT gradient (VV10), updates on ESD,
                                                   ML-optimized integration grids, MBIS, APM,
                                                   GOAT, DOCKER, SOLVATOR, interface openCOSMO-RS
   S Lehtola, MJT Oliveira, MAL Marques          : LibXC Library
   Liviu Ungur et al                             : ANISO software


 Your calculation uses the libint2 library for the computation of 2-el integrals
 For citations please refer to: http://libint.valeyev.net

 Your ORCA version has been built with support for libXC version: 6.2.2
 For citations please refer to: https://libxc.gitlab.io

 This ORCA versions uses:
   CBLAS   interface :  Fast vector & matrix operations
   LAPACKE interface :  Fast linear algebra routines
   Shared memory     :  Shared parallel matrices


Your calculation utilizes the atom-pairwise dispersion correction
with the Becke-Johnson damping scheme (D3BJ)


Warning: RI is on but no J-basis has been assigned. Assigning Def2/J (nothing to worry about!)
================================================================================

----- Orbital basis set information -----
Your calculation utilizes the basis: def2-SVP
   F. Weigend and R. Ahlrichs, Phys. Chem. Chem. Phys. 7, 3297 (2005).

----- AuxJ basis set information -----
Your calculation utilizes the auxiliary basis: def2/J
   F. Weigend, Phys. Chem. Chem. Phys. 8, 1057 (2006).

================================================================================
                                        WARNINGS
                       Please study these warnings very carefully!
================================================================================


WARNING: Geometry Optimization
  ===> : Switching off AutoStart
         For restart on a previous wavefunction, please use MOREAD

================================================================================
                                       INPUT FILE
================================================================================
NAME = data/geom_opt/11437688/11437688.inp
|  1> ! RIJONX B3LYP def2-SVP D3BJ TIGHTSCF Opt
|  2> %pal
|  3> nprocs 6
|  4> end
|  5> 
|  6> * xyz 0 1
|  7> C      5.934957    0.164368   -0.123062
|  8> C      4.980476   -0.744676    0.114453
|  9> C      3.561166   -0.573550   -0.222576
| 10> C      2.595104   -1.177100    0.588396
| 11> C      1.230431   -1.062461    0.290432
| 12> C      0.793658   -0.348330   -0.832589
| 13> C      1.771390    0.237873   -1.653742
| 14> C      3.135240    0.124588   -1.355738
| 15> P     -0.953950   -0.142425   -1.304907
| 16> C     -1.846228   -1.309279   -0.225769
| 17> C     -1.932869   -2.651584   -0.637734
| 18> C     -2.600322   -3.604780    0.136556
| 19> C     -3.196485   -3.232261    1.337164
| 20> C     -3.125019   -1.908656    1.761890
| 21> C     -2.456482   -0.955344    0.986661
| 22> C     -1.400575    1.497822   -0.646445
| 23> C     -2.617963    2.065285   -1.064796
| 24> C     -3.028316    3.319480   -0.604118
| 25> C     -2.226621    4.031520    0.282370
| 26> C     -1.016879    3.489591    0.706892
| 27> C     -0.607072    2.234106    0.245780
| 28> H      5.727411    1.122936   -0.586767
| 29> H      6.963040   -0.032903    0.164636
| 30> H      5.247310   -1.676379    0.608510
| 31> H      2.890554   -1.739408    1.471657
| 32> H      0.524090   -1.541803    0.963388
| 33> H      1.481519    0.794345   -2.543760
| 34> H      3.855110    0.581322   -2.030082
| 35> H     -1.474618   -2.971207   -1.572310
| 36> H     -2.653338   -4.636391   -0.201317
| 37> H     -3.717033   -3.971208    1.940365
| 38> H     -3.590157   -1.612195    2.698620
| 39> H     -2.420769    0.065659    1.357878
| 40> H     -3.265795    1.529623   -1.756884
| 41> H     -3.973780    3.737124   -0.940044
| 42> H     -2.542933    5.007248    0.641190
| 43> H     -0.386399    4.042234    1.398857
| 44> H      0.342147    1.846817    0.606946
| 45> **                         ****END OF INPUT****
================================================================================

                       *****************************
                       * Geometry Optimization Run *
                       *****************************

Geometry optimization settings:
Update method            Update   .... BFGS
Choice of coordinates    CoordSys .... (2022) Redundant Internals
Initial Hessian          InHess   .... Almloef's Model
Max. no of cycles        MaxIter  .... 114

Convergence Tolerances:
Energy Change            TolE     ....  5.0000e-06 Eh
Max. Gradient            TolMAXG  ....  3.0000e-04 Eh/bohr
RMS Gradient             TolRMSG  ....  1.0000e-04 Eh/bohr
Max. Displacement        TolMAXD  ....  4.0000e-03 bohr
RMS Displacement         TolRMSD  ....  2.0000e-03 bohr
Strict Convergence                .... False

------------------------------------------------------------------------------
                        ORCA OPTIMIZATION COORDINATE SETUP
------------------------------------------------------------------------------

The optimization will be done in redundant internal coordinates (2022)
Making redundant internal coordinates   ...  (2022 redundants) done
Evaluating the initial hessian          ...  (Almloef) done
Evaluating the coordinates              ...  done
Calculating the B-matrix                .... done
Calculating the G-matrix                .... done
Diagonalizing the G-matrix              .... done
Small eigenvalue found = 3.368e-03
Small eigenvalue found = 5.010e-03
Small eigenvalue found = 7.964e-03
Small eigenvalue found = 2.101e-02
Small eigenvalue found = 2.495e-02
The first mode is                       ....   87
The number of degrees of freedom        ....  108

    -----------------------------------------------------------------
                    Redundant Internal Coordinates


    -----------------------------------------------------------------
         Definition                    Initial Value    Approx d2E/dq
    -----------------------------------------------------------------
      1. B(C   1,C   0)                  1.3393         0.752623   
      2. B(C   2,C   1)                  1.4688         0.467790   
      3. B(C   3,C   2)                  1.3983         0.606048   
      4. B(C   4,C   3)                  1.4015         0.598908   
      5. B(C   5,C   4)                  1.4007         0.600738   
      6. B(C   6,C   5)                  1.4050         0.591406   
      7. B(C   7,C   2)                  1.3974         0.607929   
      8. B(C   7,C   6)                  1.4006         0.600898   
      9. B(P   8,C   5)                  1.8220         0.429570   
     10. B(C   9,P   8)                  1.8227         0.428432   
     11. B(C  10,C   9)                  1.4068         0.587464   
     12. B(C  11,C  10)                  1.3977         0.607342   
     13. B(C  12,C  11)                  1.3913         0.621882   
     14. B(C  13,C  12)                  1.3919         0.620414   
     15. B(C  14,C   9)                  1.4027         0.596239   
     16. B(C  14,C  13)                  1.3988         0.604854   
     17. B(C  15,P   8)                  1.8230         0.427910   
     18. B(C  16,C  15)                  1.4068         0.587418   
     19. B(C  17,C  16)                  1.3977         0.607328   
     20. B(C  18,C  17)                  1.3913         0.621934   
     21. B(C  19,C  18)                  1.3919         0.620454   
     22. B(C  20,C  19)                  1.3989         0.604788   
     23. B(C  20,C  15)                  1.4028         0.596114   
     24. B(H  21,C   0)                  1.0849         0.366946   
     25. B(H  22,C   0)                  1.0857         0.365898   
     26. B(H  23,C   1)                  1.0878         0.362989   
     27. B(H  24,C   3)                  1.0879         0.362825   
     28. B(H  25,C   4)                  1.0870         0.364098   
     29. B(H  26,C   6)                  1.0890         0.361488   
     30. B(H  27,C   7)                  1.0870         0.364097   
     31. B(H  28,C  10)                  1.0888         0.361630   
     32. B(H  29,C  11)                  1.0868         0.364324   
     33. B(H  30,C  12)                  1.0867         0.364524   
     34. B(H  31,C  13)                  1.0871         0.364007   
     35. B(H  32,C  14)                  1.0870         0.364118   
     36. B(H  33,C  16)                  1.0889         0.361617   
     37. B(H  34,C  17)                  1.0868         0.364333   
     38. B(H  35,C  18)                  1.0867         0.364533   
     39. B(H  36,C  19)                  1.0871         0.363989   
     40. B(H  37,C  20)                  1.0869         0.364164   
     41. A(H  21,C   0,H  22)          117.0640         0.292436   
     42. A(C   1,C   0,H  21)          122.6272         0.365923   
     43. A(C   1,C   0,H  22)          120.3008         0.365744   
     44. A(C   0,C   1,H  23)          119.1471         0.365245   
     45. A(C   2,C   1,H  23)          116.1698         0.337056   
     46. A(C   0,C   1,C   2)          124.6723         0.427272   
     47. A(C   1,C   2,C   3)          118.9631         0.411088   
     48. A(C   1,C   2,C   7)          122.6016         0.411314   
     49. A(C   3,C   2,C   7)          118.3821         0.430769   
     50. A(C   2,C   3,C   4)          120.9383         0.429614   
     51. A(C   2,C   3,H  24)          120.4194         0.352001   
     52. A(C   4,C   3,H  24)          118.6400         0.351297   
     53. A(C   3,C   4,H  25)          117.7126         0.351505   
     54. A(C   5,C   4,H  25)          121.2365         0.351686   
     55. A(C   3,C   4,C   5)          121.0501         0.428936   
     56. A(C   4,C   5,C   6)          117.6667         0.427968   
     57. A(C   4,C   5,P   8)          124.3718         0.431094   
     58. A(C   6,C   5,P   8)          117.9593         0.429884   
     59. A(C   7,C   6,H  26)          118.3225         0.351274   
     60. A(C   5,C   6,H  26)          120.3755         0.350331   
     61. A(C   5,C   6,C   7)          121.3019         0.427988   
     62. A(C   2,C   7,H  27)          120.7381         0.352394   
     63. A(C   2,C   7,C   6)          120.6453         0.430109   
     64. A(C   6,C   7,H  27)          118.6131         0.351702   
     65. A(C   5,P   8,C   9)          104.1065         0.432822   
     66. A(C   9,P   8,C  15)          104.0173         0.432521   
     67. A(C   5,P   8,C  15)          104.0659         0.432727   
     68. A(P   8,C   9,C  10)          117.8794         0.429165   
     69. A(C  10,C   9,C  14)          117.8447         0.426880   
     70. A(P   8,C   9,C  14)          124.2755         0.430308   
     71. A(C   9,C  10,C  11)          121.1915         0.428294   
     72. A(C  11,C  10,H  28)          118.4420         0.351932   
     73. A(C   9,C  10,H  28)          120.3662         0.349959   
     74. A(C  10,C  11,C  12)          120.0050         0.432694   
     75. A(C  12,C  11,H  29)          120.1009         0.353788   
     76. A(C  10,C  11,H  29)          119.8941         0.352374   
     77. A(C  11,C  12,H  30)          120.1461         0.353821   
     78. A(C  13,C  12,H  30)          120.1225         0.353679   
     79. A(C  11,C  12,C  13)          119.7313         0.434355   
     80. A(C  14,C  13,H  31)          119.7486         0.352077   
     81. A(C  12,C  13,H  31)          120.0201         0.353594   
     82. A(C  12,C  13,C  14)          120.2313         0.432192   
     83. A(C  13,C  14,H  32)          117.8124         0.352096   
     84. A(C   9,C  14,H  32)          121.1908         0.351243   
     85. A(C   9,C  14,C  13)          120.9958         0.429118   
     86. A(C  16,C  15,C  20)          117.8350         0.426858   
     87. A(P   8,C  15,C  20)          124.2907         0.430198   
     88. A(P   8,C  15,C  16)          117.8737         0.429065   
     89. A(C  17,C  16,H  33)          118.4409         0.351928   
     90. A(C  15,C  16,H  33)          120.3606         0.349952   
     91. A(C  15,C  16,C  17)          121.1982         0.428286   
     92. A(C  18,C  17,H  34)          120.1038         0.353795   
     93. A(C  16,C  17,H  34)          119.8909         0.352374   
     94. A(C  16,C  17,C  18)          120.0053         0.432699   
     95. A(C  19,C  18,H  35)          120.1242         0.353685   
     96. A(C  17,C  18,H  35)          120.1466         0.353827   
     97. A(C  17,C  18,C  19)          119.7292         0.434367   
     98. A(C  20,C  19,H  36)          119.7480         0.352068   
     99. A(C  18,C  19,H  36)          120.0188         0.353595   
    100. A(C  18,C  19,C  20)          120.2333         0.432188   
    101. A(C  19,C  20,H  37)          117.7813         0.352097   
    102. A(C  15,C  20,H  37)          121.2188         0.351238   
    103. A(C  15,C  20,C  19)          120.9987         0.429094   
    104. D(H  23,C   1,C   0,H  22)      0.6783         0.040423   
    105. D(C   2,C   1,C   0,H  21)      0.4896         0.040423   
    106. D(C   2,C   1,C   0,H  22)    179.4321         0.040423   
    107. D(H  23,C   1,C   0,H  21)   -178.2641         0.040423   
    108. D(C   7,C   2,C   1,C   0)     34.3250         0.014902   
    109. D(C   3,C   2,C   1,H  23)     30.4132         0.014902   
    110. D(C   7,C   2,C   1,H  23)   -146.8877         0.014902   
    111. D(C   3,C   2,C   1,C   0)   -148.3741         0.014902   
    112. D(H  24,C   3,C   2,C   7)    179.2252         0.025348   
    113. D(H  24,C   3,C   2,C   1)      1.8096         0.025348   
    114. D(C   4,C   3,C   2,C   1)   -178.7528         0.025348   
    115. D(C   4,C   3,C   2,C   7)     -1.3372         0.025348   
    116. D(C   5,C   4,C   3,H  24)    179.8879         0.024722   
    117. D(C   5,C   4,C   3,C   2)      0.4404         0.024722   
    118. D(H  25,C   4,C   3,C   2)   -179.2316         0.024722   
    119. D(H  25,C   4,C   3,H  24)      0.2159         0.024722   
    120. D(P   8,C   5,C   4,H  25)     -0.3625         0.024882   
    121. D(P   8,C   5,C   4,C   3)    179.9771         0.024882   
    122. D(C   6,C   5,C   4,H  25)   -179.8135         0.024882   
    123. D(C   6,C   5,C   4,C   3)      0.5261         0.024882   
    124. D(H  26,C   6,C   5,P   8)     -0.1124         0.024075   
    125. D(C   7,C   6,C   5,P   8)    179.9283         0.024075   
    126. D(H  26,C   6,C   5,C   4)    179.3746         0.024075   
    127. D(C   7,C   6,C   5,C   4)     -0.5847         0.024075   
    128. D(C   2,C   7,C   6,H  26)    179.7167         0.024896   
    129. D(C   2,C   7,C   6,C   5)     -0.3232         0.024896   
    130. D(H  27,C   7,C   2,C   3)   -178.0315         0.025515   
    131. D(H  27,C   7,C   2,C   1)     -0.7157         0.025515   
    132. D(H  27,C   7,C   6,C   5)    178.9991         0.024896   
    133. D(C   6,C   7,C   2,C   3)      1.2763         0.025515   
    134. D(C   6,C   7,C   2,C   1)    178.5921         0.025515   
    135. D(H  27,C   7,C   6,H  26)     -0.9610         0.024896   
    136. D(C  15,P   8,C   5,C   6)    -82.7751         0.003798   
    137. D(C  15,P   8,C   5,C   4)     97.7754         0.003798   
    138. D(C   9,P   8,C   5,C   6)    168.5360         0.003798   
    139. D(C   9,P   8,C   5,C   4)    -10.9135         0.003798   
    140. D(C  14,C   9,P   8,C  15)    -12.6739         0.003785   
    141. D(C  14,C   9,P   8,C   5)     96.0509         0.003785   
    142. D(C  10,C   9,P   8,C  15)    167.0872         0.003785   
    143. D(C  10,C   9,P   8,C   5)    -84.1880         0.003785   
    144. D(H  28,C  10,C   9,C  14)    179.9538         0.023740   
    145. D(H  28,C  10,C   9,P   8)      0.1771         0.023740   
    146. D(C  11,C  10,C   9,C  14)     -0.2428         0.023740   
    147. D(C  11,C  10,C   9,P   8)    179.9804         0.023740   
    148. D(H  29,C  11,C  10,H  28)     -0.1156         0.025463   
    149. D(H  29,C  11,C  10,C   9)   -179.9226         0.025463   
    150. D(C  12,C  11,C  10,H  28)    179.9381         0.025463   
    151. D(C  12,C  11,C  10,C   9)      0.1310         0.025463   
    152. D(H  30,C  12,C  11,H  29)     -0.0208         0.026771   
    153. D(H  30,C  12,C  11,C  10)    179.9254         0.026771   
    154. D(C  13,C  12,C  11,H  29)   -179.9369         0.026771   
    155. D(C  13,C  12,C  11,C  10)      0.0093         0.026771   
    156. D(H  31,C  13,C  12,H  30)      0.0123         0.026637   
    157. D(H  31,C  13,C  12,C  11)    179.9284         0.026637   
    158. D(C  14,C  13,C  12,H  30)   -179.9465         0.026637   
    159. D(C  14,C  13,C  12,C  11)     -0.0304         0.026637   
    160. D(C   9,C  14,C  13,H  31)    179.9526         0.025243   
    161. D(C   9,C  14,C  13,C  12)     -0.0885         0.025243   
    162. D(H  32,C  14,C   9,C  10)    179.8431         0.024491   
    163. D(H  32,C  14,C   9,P   8)     -0.3957         0.024491   
    164. D(C  13,C  14,C   9,C  10)      0.2211         0.024491   
    165. D(H  32,C  14,C  13,C  12)   -179.7229         0.025243   
    166. D(C  13,C  14,C   9,P   8)    179.9823         0.024491   
    167. D(H  32,C  14,C  13,H  31)      0.3182         0.025243   
    168. D(C  20,C  15,P   8,C   9)     97.1587         0.003779   
    169. D(C  20,C  15,P   8,C   5)    -11.5962         0.003779   
    170. D(C  16,C  15,P   8,C   9)    -83.1312         0.003779   
    171. D(C  16,C  15,P   8,C   5)    168.1139         0.003779   
    172. D(H  33,C  16,C  15,C  20)    179.9851         0.023736   
    173. D(H  33,C  16,C  15,P   8)      0.2559         0.023736   
    174. D(C  17,C  16,C  15,C  20)     -0.2357         0.023736   
    175. D(C  17,C  16,C  15,P   8)   -179.9649         0.023736   
    176. D(H  34,C  17,C  16,H  33)     -0.1214         0.025461   
    177. D(H  34,C  17,C  16,C  15)   -179.9047         0.025461   
    178. D(C  18,C  17,C  16,H  33)    179.9159         0.025461   
    179. D(C  18,C  17,C  16,C  15)      0.1326         0.025461   
    180. D(H  35,C  18,C  17,H  34)     -0.0258         0.026776   
    181. D(H  35,C  18,C  17,C  16)    179.9368         0.026776   
    182. D(C  19,C  18,C  17,H  34)   -179.9618         0.026776   
    183. D(C  19,C  18,C  17,C  16)      0.0008         0.026776   
    184. D(H  36,C  19,C  18,H  35)      0.0144         0.026641   
    185. D(H  36,C  19,C  18,C  17)    179.9504         0.026641   
    186. D(C  20,C  19,C  18,H  35)   -179.9597         0.026641   
    187. D(C  20,C  19,C  18,C  17)     -0.0237         0.026641   
    188. D(H  37,C  20,C  19,H  36)      0.3318         0.025237   
    189. D(H  37,C  20,C  19,C  18)   -179.6942         0.025237   
    190. D(C  15,C  20,C  19,H  36)    179.9395         0.025237   
    191. D(C  15,C  20,C  19,C  18)     -0.0864         0.025237   
    192. D(H  37,C  20,C  15,C  16)    179.8064         0.024480   
    193. D(H  37,C  20,C  15,P   8)     -0.4833         0.024480   
    194. D(C  19,C  20,C  15,C  16)      0.2122         0.024480   
    195. D(C  19,C  20,C  15,P   8)    179.9224         0.024480   
    -----------------------------------------------------------------

Number of atoms                         .... 38
Number of degrees of freedom            .... 195


         *************************************************************
         *                GEOMETRY OPTIMIZATION CYCLE   1            *
         *************************************************************
---------------------------------
CARTESIAN COORDINATES (ANGSTROEM)
---------------------------------
  C      5.934957    0.164368   -0.123062
  C      4.980476   -0.744676    0.114453
  C      3.561166   -0.573550   -0.222576
  C      2.595104   -1.177100    0.588396
  C      1.230431   -1.062461    0.290432
  C      0.793658   -0.348330   -0.832589
  C      1.771390    0.237873   -1.653742
  C      3.135240    0.124588   -1.355738
  P     -0.953950   -0.142425   -1.304907
  C     -1.846228   -1.309279   -0.225769
  C     -1.932869   -2.651584   -0.637734
  C     -2.600322   -3.604780    0.136556
  C     -3.196485   -3.232261    1.337164
  C     -3.125019   -1.908656    1.761890
  C     -2.456482   -0.955344    0.986661
  C     -1.400575    1.497822   -0.646445
  C     -2.617963    2.065285   -1.064796
  C     -3.028316    3.319480   -0.604118
  C     -2.226621    4.031520    0.282370
  C     -1.016879    3.489591    0.706892
  C     -0.607072    2.234106    0.245780
  H      5.727411    1.122936   -0.586767
  H      6.963040   -0.032903    0.164636
  H      5.247310   -1.676379    0.608510
  H      2.890554   -1.739408    1.471657
  H      0.524090   -1.541803    0.963388
  H      1.481519    0.794345   -2.543760
  H      3.855110    0.581322   -2.030082
  H     -1.474618   -2.971207   -1.572310
  H     -2.653338   -4.636391   -0.201317
  H     -3.717033   -3.971208    1.940365
  H     -3.590157   -1.612195    2.698620
  H     -2.420769    0.065659    1.357878
  H     -3.265795    1.529623   -1.756884
  H     -3.973780    3.737124   -0.940044
  H     -2.542933    5.007248    0.641190
  H     -0.386399    4.042234    1.398857
  H      0.342147    1.846817    0.606946

----------------------------
CARTESIAN COORDINATES (A.U.)
----------------------------
  NO LB      ZA    FRAG     MASS         X           Y           Z
   0 C     6.0000    0    12.011   11.215443    0.310611   -0.232553
   1 C     6.0000    0    12.011    9.411736   -1.407234    0.216285
   2 C     6.0000    0    12.011    6.729628   -1.083852   -0.420608
   3 C     6.0000    0    12.011    4.904036   -2.224397    1.111907
   4 C     6.0000    0    12.011    2.325178   -2.007760    0.548837
   5 C     6.0000    0    12.011    1.499796   -0.658248   -1.573365
   6 C     6.0000    0    12.011    3.347442    0.449515   -3.125119
   7 C     6.0000    0    12.011    5.924745    0.235437   -2.561974
   8 P    15.0000    0    30.974   -1.802704   -0.269144   -2.465917
   9 C     6.0000    0    12.011   -3.488865   -2.474179   -0.426642
  10 C     6.0000    0    12.011   -3.652593   -5.010768   -1.205143
  11 C     6.0000    0    12.011   -4.913896   -6.812047    0.258053
  12 C     6.0000    0    12.011   -6.040481   -6.108088    2.526874
  13 C     6.0000    0    12.011   -5.905430   -3.606837    3.329490
  14 C     6.0000    0    12.011   -4.642078   -1.805339    1.864519
  15 C     6.0000    0    12.011   -2.646703    2.830473   -1.221604
  16 C     6.0000    0    12.011   -4.947233    3.902823   -2.012173
  17 C     6.0000    0    12.011   -5.722688    6.272908   -1.141618
  18 C     6.0000    0    12.011   -4.207704    7.618469    0.533602
  19 C     6.0000    0    12.011   -1.921623    6.594371    1.335832
  20 C     6.0000    0    12.011   -1.147200    4.221848    0.464457
  21 H     1.0000    0     1.008   10.823238    2.122042   -1.108829
  22 H     1.0000    0     1.008   13.158239   -0.062178    0.311117
  23 H     1.0000    0     1.008    9.915979   -3.167897    1.149917
  24 H     1.0000    0     1.008    5.462355   -3.287005    2.781029
  25 H     1.0000    0     1.008    0.990387   -2.913585    1.820539
  26 H     1.0000    0     1.008    2.799665    1.501095   -4.807010
  27 H     1.0000    0     1.008    7.285102    1.098539   -3.836299
  28 H     1.0000    0     1.008   -2.786624   -5.614768   -2.971235
  29 H     1.0000    0     1.008   -5.014082   -8.761509   -0.380434
  30 H     1.0000    0     1.008   -7.024174   -7.504496    3.666758
  31 H     1.0000    0     1.008   -6.784414   -3.046607    5.099653
  32 H     1.0000    0     1.008   -4.574590    0.124078    2.566018
  33 H     1.0000    0     1.008   -6.171458    2.890569   -3.320030
  34 H     1.0000    0     1.008   -7.509356    7.062141   -1.776426
  35 H     1.0000    0     1.008   -4.805447    9.462327    1.211673
  36 H     1.0000    0     1.008   -0.730188    7.638715    2.643457
  37 H     1.0000    0     1.008    0.646564    3.489978    1.146962

--------------------------------
INTERNAL COORDINATES (ANGSTROEM)
--------------------------------
 C      0   0   0     0.000000000000     0.00000000     0.00000000
 C      1   0   0     1.339331306482     0.00000000     0.00000000
 C      2   1   0     1.468779605937   124.67227269     0.00000000
 C      3   2   1     1.398293236459   118.96309393   211.62590982
 C      4   3   2     1.401519547686   120.93827036   181.24724684
 C      5   4   3     1.400689082249   121.05012470     0.44043175
 C      6   5   4     1.404950558006   117.66674973     0.52610648
 C      3   2   1     1.397449728171   122.60157104    34.32501101
 P      6   5   4     1.821981032781   124.37176172   179.97708192
 C      9   6   5     1.822703242342   104.10651466   349.08649143
 C     10   9   6     1.406770961149   117.87936341   275.81199993
 C     11  10   9     1.397712819475   121.19153307   179.98042343
 C     12  11  10     1.391272905506   120.00496541     0.13102721
 C     13  12  11     1.391915859618   119.73131049     0.00000000
 C     14  13  12     1.398830044056   120.23130958   359.96962950
 C      9   6   5     1.823034919325   104.06587596    97.77540066
 C     16   9   6     1.406792578213   117.87369758   168.11394214
 C     17  16   9     1.397719178633   121.19815922   180.03511950
 C     18  17  16     1.391250088506   120.00531150     0.13256256
 C     19  18  17     1.391898586855   119.72920668     0.00000000
 C     20  19  18     1.398859763886   120.23326240   359.97634833
 H      1   2   3     1.084873393427   122.62724944     0.48962438
 H      1   2   3     1.085652173366   120.30080902   179.43208304
 H      2   1   3     1.087824978116   119.14712112   181.24624055
 H      4   3   2     1.087948061024   120.41937773     1.80957667
 H      5   4   3     1.086994084244   117.71257278   180.76841830
 H      7   6   5     1.088952856532   120.37554416   179.37455224
 H      8   3   2     1.086995213417   120.73806227   359.28434019
 H     11  10   9     1.088845783803   120.36619006     0.17706199
 H     12  11  10     1.086825706222   119.89406558   180.07736104
 H     13  12  11     1.086675818961   120.14610473   179.92542861
 H     14  13  12     1.087062820846   120.02008490   179.92841666
 H     15  14  13     1.086979579140   117.81239473   180.27708504
 H     17  16   9     1.088855306371   120.36058681     0.25588893
 H     18  17  16     1.086818735350   119.89089912   180.09528648
 H     19  18  17     1.086669316641   120.14657058   179.93681796
 H     20  19  18     1.087076297724   120.01877059   179.95035177
 H     21  20  19     1.086945425970   117.78128415   180.30583496

---------------------------
INTERNAL COORDINATES (A.U.)
---------------------------
 C      0   0   0     0.000000000000     0.00000000     0.00000000
 C      1   0   0     2.530969371837     0.00000000     0.00000000
 C      2   1   0     2.775591206310   124.67227269     0.00000000
 C      3   2   1     2.642391271823   118.96309393   211.62590982
 C      4   3   2     2.648488116464   120.93827036   181.24724684
 C      5   4   3     2.646918764224   121.05012470     0.44043175
 C      6   5   4     2.654971786332   117.66674973     0.52610648
 C      3   2   1     2.640797272165   122.60157104    34.32501101
 P      6   5   4     3.443045173155   124.37176172   179.97708192
 C      9   6   5     3.444409951437   104.10651466   349.08649143
 C     10   9   6     2.658411849724   117.87936341   275.81199993
 C     11  10   9     2.641294442679   121.19153307   179.98042343
 C     12  11  10     2.629124768950   120.00496541     0.13102721
 C     13  12  11     2.630339776140   119.73131049     0.00000000
 C     14  13  12     2.643405691167   120.23130958   359.96962950
 C      9   6   5     3.445036730099   104.06587596    97.77540066
 C     16   9   6     2.658452700055   117.87369758   168.11394214
 C     17  16   9     2.641306459745   121.19815922   180.03511950
 C     18  17  16     2.629081651071   120.00531150     0.13256256
 C     19  18  17     2.630307135348   119.72920668     0.00000000
 C     20  19  18     2.643461853505   120.23326240   359.97634833
 H      1   2   3     2.050113603554   122.62724944     0.48962438
 H      1   2   3     2.051585284358   120.30080902   179.43208304
 H      2   1   3     2.055691290279   119.14712112   181.24624055
 H      4   3   2     2.055923883265   120.41937773     1.80957667
 H      5   4   3     2.054121128413   117.71257278   180.76841830
 H      7   6   5     2.057822671597   120.37554416   179.37455224
 H      8   3   2     2.054123262242   120.73806227   359.28434019
 H     11  10   9     2.057620333463   120.36619006     0.17706199
 H     12  11  10     2.053802940066   119.89406558   180.07736104
 H     13  12  11     2.053519694190   120.14610473   179.92542861
 H     14  13  12     2.054251021766   120.02008490   179.92841666
 H     15  14  13     2.054093717739   117.81239473   180.27708504
 H     17  16   9     2.057638328508   120.36058681     0.25588893
 H     18  17  16     2.053789767026   119.89089912   180.09528648
 H     19  18  17     2.053507406586   120.14657058   179.93681796
 H     20  19  18     2.054276489376   120.01877059   179.95035177
 H     21  20  19     2.054029177602   117.78128415   180.30583496

---------------------
BASIS SET INFORMATION
---------------------
There are 3 groups of distinct atoms

 Group   1 Type C   : 7s4p1d contracted to 3s2p1d pattern {511/31/1}
 Group   2 Type P   : 10s7p1d contracted to 4s3p1d pattern {5311/511/1}
 Group   3 Type H   : 4s1p contracted to 2s1p pattern {31/1}

Atom   0C    basis set group =>   1
Atom   1C    basis set group =>   1
Atom   2C    basis set group =>   1
Atom   3C    basis set group =>   1
Atom   4C    basis set group =>   1
Atom   5C    basis set group =>   1
Atom   6C    basis set group =>   1
Atom   7C    basis set group =>   1
Atom   8P    basis set group =>   2
Atom   9C    basis set group =>   1
Atom  10C    basis set group =>   1
Atom  11C    basis set group =>   1
Atom  12C    basis set group =>   1
Atom  13C    basis set group =>   1
Atom  14C    basis set group =>   1
Atom  15C    basis set group =>   1
Atom  16C    basis set group =>   1
Atom  17C    basis set group =>   1
Atom  18C    basis set group =>   1
Atom  19C    basis set group =>   1
Atom  20C    basis set group =>   1
Atom  21H    basis set group =>   3
Atom  22H    basis set group =>   3
Atom  23H    basis set group =>   3
Atom  24H    basis set group =>   3
Atom  25H    basis set group =>   3
Atom  26H    basis set group =>   3
Atom  27H    basis set group =>   3
Atom  28H    basis set group =>   3
Atom  29H    basis set group =>   3
Atom  30H    basis set group =>   3
Atom  31H    basis set group =>   3
Atom  32H    basis set group =>   3
Atom  33H    basis set group =>   3
Atom  34H    basis set group =>   3
Atom  35H    basis set group =>   3
Atom  36H    basis set group =>   3
Atom  37H    basis set group =>   3
---------------------------------
AUXILIARY/J BASIS SET INFORMATION
---------------------------------
There are 3 groups of distinct atoms

 Group   1 Type C   : 12s5p4d2f1g contracted to 6s4p3d1f1g pattern {711111/2111/211/2/1}
 Group   2 Type P   : 14s5p5d2f1g contracted to 8s4p3d1f1g pattern {71111111/2111/311/2/1}
 Group   3 Type H   : 5s2p1d contracted to 3s1p1d pattern {311/2/1}

Atom   0C    basis set group =>   1
Atom   1C    basis set group =>   1
Atom   2C    basis set group =>   1
Atom   3C    basis set group =>   1
Atom   4C    basis set group =>   1
Atom   5C    basis set group =>   1
Atom   6C    basis set group =>   1
Atom   7C    basis set group =>   1
Atom   8P    basis set group =>   2
Atom   9C    basis set group =>   1
Atom  10C    basis set group =>   1
Atom  11C    basis set group =>   1
Atom  12C    basis set group =>   1
Atom  13C    basis set group =>   1
Atom  14C    basis set group =>   1
Atom  15C    basis set group =>   1
Atom  16C    basis set group =>   1
Atom  17C    basis set group =>   1
Atom  18C    basis set group =>   1
Atom  19C    basis set group =>   1
Atom  20C    basis set group =>   1
Atom  21H    basis set group =>   3
Atom  22H    basis set group =>   3
Atom  23H    basis set group =>   3
Atom  24H    basis set group =>   3
Atom  25H    basis set group =>   3
Atom  26H    basis set group =>   3
Atom  27H    basis set group =>   3
Atom  28H    basis set group =>   3
Atom  29H    basis set group =>   3
Atom  30H    basis set group =>   3
Atom  31H    basis set group =>   3
Atom  32H    basis set group =>   3
Atom  33H    basis set group =>   3
Atom  34H    basis set group =>   3
Atom  35H    basis set group =>   3
Atom  36H    basis set group =>   3
Atom  37H    basis set group =>   3


           ************************************************************
           *        Program running with 6 parallel MPI-processes     *
           *              working on a common directory               *
           ************************************************************
------------------------------------------------------------------------------
                             ORCA STARTUP CALCULATIONS
                           -- RI-GTO INTEGRALS CHOSEN --
------------------------------------------------------------------------------
------------------------------------------------------------------------------
                   ___                                                        
                  /   \      - P O W E R E D   B Y -                         
                 /     \                                                     
                 |  |  |   _    _      __       _____    __    __             
                 |  |  |  | |  | |    /  \     |  _  \  |  |  /  |          
                  \  \/   | |  | |   /    \    | | | |  |  | /  /          
                 / \  \   | |__| |  /  /\  \   | |_| |  |  |/  /          
                |  |  |   |  __  | /  /__\  \  |    /   |      \           
                |  |  |   | |  | | |   __   |  |    \   |  |\   \          
                \     /   | |  | | |  |  |  |  | |\  \  |  | \   \       
                 \___/    |_|  |_| |__|  |__|  |_| \__\ |__|  \__/        
                                                                              
                      - O R C A' S   B I G   F R I E N D -                    
                                      &                                       
                       - I N T E G R A L  F E E D E R -                       
                                                                              
 v1 FN, 2020, v2 2021, v3 2022-2024                                           
------------------------------------------------------------------------------


----------------------
SHARK INTEGRAL PACKAGE
----------------------

Number of atoms                             ...     38
Number of basis functions                   ...    383
Number of shells                            ...    179
Maximum angular momentum                    ...      2
Integral batch strategy                     ... SHARK/LIBINT Hybrid
RI-J (if used) integral strategy            ... SPLIT-RIJ (Revised 2003 algorithm where possible)
Printlevel                                  ...      1
Contraction scheme used                     ... SEGMENTED contraction
Prescreening option                         ... SCHWARTZ
   Thresh                                   ... 2.500e-11
   Tcut                                     ... 2.500e-12
   Tpresel                                  ... 2.500e-12 
Coulomb Range Separation                    ... NOT USED
Exchange Range Separation                   ... NOT USED
Multipole approximations                    ... NOT USED
Finite Nucleus Model                        ... NOT USED
CABS basis                                  ... NOT available
Auxiliary Coulomb fitting basis             ... AVAILABLE
   # of basis functions in Aux-J            ...   1218
   # of shells in Aux-J                     ...    402
   Maximum angular momentum in Aux-J        ...      4
Auxiliary J/K fitting basis                 ... NOT available
Auxiliary Correlation fitting basis         ... NOT available
Auxiliary 'external' fitting basis          ... NOT available

Checking pre-screening integrals            ... done (  0.0 sec) Dimension = 179
Check shell pair data                       ... done (  0.0 sec)
Shell pair information
Shell pair cut-off parameter TPreSel        ...   2.5e-12
Total number of shell pairs                 ...     16110
Shell pairs after pre-screening             ...     11820
Total number of primitive shell pairs       ...     59330
Primitive shell pairs kept                  ...     27765
          la=0 lb=0:   3651 shell pairs
          la=1 lb=0:   4418 shell pairs
          la=1 lb=1:   1374 shell pairs
          la=2 lb=0:   1390 shell pairs
          la=2 lb=1:    856 shell pairs
          la=2 lb=2:    131 shell pairs

Calculating one electron integrals          ... done (  0.0 sec)
Calculating RI/J V-Matrix + Cholesky decomp.... done (  0.1 sec)
Calculating Nuclear repulsion               ... done (  0.0 sec) ENN=   1610.084415286479 Eh

Diagonalization of the overlap matrix:
Smallest eigenvalue                        ... 2.611e-04
Time for diagonalization                   ...    0.019 sec
Threshold for overlap eigenvalues          ... 1.000e-07
Number of eigenvalues below threshold      ... 0
Time for construction of square roots      ...    0.012 sec
Total time needed                          ...    0.034 sec

-------------------
DFT GRID GENERATION
-------------------

General Integration Accuracy     IntAcc      ... 4.388
Radial Grid Type                 RadialGrid  ... OptM3 with GC (2021)
Angular Grid (max. ang.)         AngularGrid ... 4 (Lebedev-302)
Angular grid pruning method      GridPruning ... 4 (adaptive)
Weight generation scheme         WeightScheme... mBecke (2022)
Basis function cutoff            BFCut       ... 1.0000e-11
Integration weight cutoff        WCut        ... 1.0000e-14
Partially contracted basis set               ... off
Rotationally invariant grid construction     ... off
Angular grids for H and He will be reduced by one unit

Total number of grid points                  ...   181053
Total number of batches                      ...     2849
Average number of points per batch           ...       63
Average number of grid points per atom       ...     4765
Initializing property integral containers    ... done (  0.0 sec)

SHARK setup successfully completed in   1.5 seconds

Maximum memory used throughout the entire STARTUP-calculation: 47.6 MB


           ************************************************************
           *        Program running with 6 parallel MPI-processes     *
           *              working on a common directory               *
           ************************************************************
-------------------------------------------------------------------------------
                                 ORCA GUESS
                   Start orbitals & Density for SCF / CASSCF
-------------------------------------------------------------------------------

------------
SCF SETTINGS
------------
Hamiltonian:
 Density Functional     Method          .... DFT(GTOs)
 Exchange Functional    Exchange        .... B88
   X-Alpha parameter    XAlpha          ....  0.666667
   Becke's b parameter  XBeta           ....  0.004200
 Correlation Functional Correlation     .... LYP
 LDA part of GGA corr.  LDAOpt          .... VWN-5
 Gradients option       PostSCFGGA      .... off
 Hybrid DFT is turned on
   Fraction HF Exchange ScalHFX         ....  0.200000
   Scaling of DF-GGA-X  ScalDFX         ....  0.720000
   Scaling of DF-GGA-C  ScalDFC         ....  0.810000
   Scaling of DF-LDA-C  ScalLDAC        ....  1.000000
   Perturbative correction              ....  0.000000
   NL short-range parameter             ....  4.800000
 RI-approximation to the Coulomb term is turned on
   Number of AuxJ basis functions       .... 1218
   RIJ-ON(X) (HFX calculated with O(N)) .... on


General Settings:
 Integral files         IntName         .... data/geom_opt/11437688/11437688
 Hartree-Fock type      HFTyp           .... RHF
 Total Charge           Charge          ....    0
 Multiplicity           Mult            ....    1
 Number of Electrons    NEL             ....  152
 Basis Dimension        Dim             ....  383
 Nuclear Repulsion      ENuc            ....   1610.0844152865 Eh

Convergence Acceleration:
 AO-DIIS                CNVDIIS         .... on
   Start iteration      DIISMaxIt       ....    12
   Startup error        DIISStart       ....  0.200000
   # of expansion vecs  DIISMaxEq       ....     5
   Bias factor          DIISBfac        ....   1.050
   Max. coefficient     DIISMaxC        ....  10.000
 MO-DIIS                CNVKDIIS        .... off
 Trust-Rad. Augm. Hess. CNVTRAH         .... auto
   Auto Start mean grad. ratio tolernc. ....  1.125000
   Auto Start start iteration           ....    50
   Auto Start num. interpolation iter.  ....    10
   Max. Number of Micro iterations      ....    24
   Max. Number of Macro iterations      .... Maxiter - #DIIS iter
   Number of Davidson start vectors     ....     2
   Converg. threshold    (grad. norm)   ....   1.000e-05
   Grad. Scal. Fac. for Micro threshold ....   0.100
   Minimum threshold for Micro iter.    ....   1.000e-02
   NR start threshold (gradient norm)   ....   1.000e-04
   Initial trust radius                 ....   0.400
   Minimum AH scaling param. (alpha)    ....   1.000
   Maximum AH scaling param. (alpha)    .... 1000.000
   Quad. conv. algorithm                .... NR
   White noise on init. David. guess    .... on
   Maximum white noise                  ....   0.010
   Pseudo random numbers                .... off
   Inactive MOs                         .... canonical
   Orbital update algorithm             .... Taylor
   Preconditioner                       .... Diag
   Full preconditioner red. dimension   ....   250
   COSX micro iterations for RIJONX calc.... off
 SOSCF                  CNVSOSCF        .... on
   Start iteration      SOSCFMaxIt      ....   150
   Startup grad/error   SOSCFStart      ....  0.003300
   Hessian update       SOSCFHessUp     .... L-BFGS
 Level Shifting         CNVShift        .... on
   Level shift para.    LevelShift      ....    0.2500
   Turn off err/grad.   ShiftErr        ....    0.0010
 Zerner damping         CNVZerner       .... off
 Static damping         CNVDamp         .... on
   Fraction old density DampFac         ....    0.7000
   Max. Damping (<1)    DampMax         ....    0.9800
   Min. Damping (>=0)   DampMin         ....    0.0000
   Turn off err/grad.   DampErr         ....    0.1000

SCF Procedure:
 Maximum # iterations   MaxIter         ....   125
 SCF integral mode      SCFMode         .... Direct
   Integral package                     .... SHARK and LIBINT hybrid scheme
 Reset frequency        DirectResetFreq ....    20
 Integral Threshold     Thresh          ....  2.500e-11 Eh
 Primitive CutOff       TCut            ....  2.500e-12 Eh

Convergence Tolerance:
 Convergence Check Mode ConvCheckMode   .... Total+1el-Energy
 Convergence forced     ConvForced      .... 0
 Energy Change          TolE            ....  1.000e-08 Eh
 1-El. energy change                    ....  1.000e-05 Eh
 Orbital Gradient       TolG            ....  1.000e-05
 Orbital Rotation angle TolX            ....  1.000e-05
 DIIS Error             TolErr          ....  5.000e-07

------------------------------
INITIAL GUESS: MODEL POTENTIAL
------------------------------
Loading Hartree-Fock densities                     ... done
Calculating cut-offs                               ... done
Initializing the effective Hamiltonian             ... done
Setting up the integral package (SHARK)            ... done
Starting the Coulomb interaction                   ... done (   0.2 sec)
Making the grid                                    ... done (   0.3 sec)
Mapping shells                                     ... done
Starting the XC term evaluation                    ... done (   0.2 sec)
  promolecular density results
     # of electrons  =    151.997460059
     EX              =   -130.480291726
     EC              =     -5.176030111
     EX+EC           =   -135.656321836
Transforming the Hamiltonian                       ... done (   0.0 sec)
Diagonalizing the Hamiltonian                      ... done (   0.0 sec)
Back transforming the eigenvectors                 ... done (   0.0 sec)
Now organizing SCF variables                       ... done
                      ------------------
                      INITIAL GUESS DONE (   0.7 sec)
                      ------------------
             **** ENERGY FILE WAS UPDATED (data/geom_opt/11437688/11437688.en.tmp) ****
Finished Guess after   0.8 sec
Maximum memory used throughout the entire GUESS-calculation: 27.0 MB


           ************************************************************
           *        Program running with 6 parallel MPI-processes     *
           *              working on a common directory               *
           ************************************************************

-------------------------------------------------------------------------------------------
                                      ORCA LEAN-SCF
                              memory conserving SCF solver
-------------------------------------------------------------------------------------------

----------------------------------------D-I-I-S--------------------------------------------
Iteration    Energy (Eh)           Delta-E    RMSDP     MaxDP     DIISErr   Damp  Time(sec)
-------------------------------------------------------------------------------------------
               ***  Starting incremental Fock matrix formation  ***
    1    -1112.0702308282063768     0.00e+00  2.36e-03  6.24e-02  1.24e-01  0.700   5.6
    2    -1112.2588072566425126    -1.89e-01  1.69e-03  5.33e-02  6.90e-02  0.700   4.7
                               ***Turning on AO-DIIS***
    3    -1112.3424486332094148    -8.36e-02  7.98e-04  3.56e-02  3.09e-02  0.700   4.4
    4    -1112.3907633662036005    -4.83e-02  1.54e-03  8.02e-02  1.65e-02  0.000   4.5
    5    -1112.4936382441944716    -1.03e-01  2.00e-04  1.25e-02  4.76e-03  0.000   4.8
                              *** Initializing SOSCF ***
---------------------------------------S-O-S-C-F--------------------------------------
Iteration    Energy (Eh)           Delta-E    RMSDP     MaxDP     MaxGrad    Time(sec)
--------------------------------------------------------------------------------------
    6    -1112.4941938603167273    -5.56e-04  7.22e-05  3.70e-03  1.18e-03     4.5
               *** Restarting incremental Fock matrix formation ***
    7    -1112.4942319907324872    -3.81e-05  4.97e-05  1.53e-03  2.68e-04     5.7
    8    -1112.4942275951364081     4.40e-06  2.35e-05  6.57e-04  5.13e-04     4.4
    9    -1112.4942370871769981    -9.49e-06  1.34e-05  7.07e-04  9.76e-05     4.9
   10    -1112.4942368561680723     2.31e-07  6.53e-06  2.04e-04  6.93e-05     3.4
   11    -1112.4942376788719685    -8.23e-07  3.22e-06  2.35e-04  2.56e-05     3.0
   12    -1112.4942376442893419     3.46e-08  1.96e-06  1.22e-04  3.84e-05     2.7
   13    -1112.4942377067852703    -6.25e-08  4.30e-07  3.85e-05  2.05e-06     2.8
                  *** Gradient check signals convergence ***

               *****************************************************
               *                     SUCCESS                       *
               *           SCF CONVERGED AFTER  13 CYCLES          *
               *****************************************************

             **** ENERGY FILE WAS UPDATED (data/geom_opt/11437688/11437688.en.tmp) ****

----------------
TOTAL SCF ENERGY
----------------

Total Energy       :      -1112.49423770678527 Eh          -30272.50723 eV

Components:
Nuclear Repulsion  :       1610.08441528647859 Eh           43812.62433 eV
Electronic Energy  :      -2722.57865299326386 Eh          -74085.13156 eV
One Electron Energy:      -4712.86098740146281 Eh         -128243.46724 eV
Two Electron Energy:       1990.28233440819895 Eh           54158.33568 eV

Virial components:
Potential Energy   :      -2215.86013529156935 Eh          -60296.61970 eV
Kinetic Energy     :       1103.36589758478408 Eh           30024.11247 eV
Virial Ratio       :          2.00827317587210

DFT components:
N(Alpha)           :       75.999940527247 electrons
N(Beta)            :       75.999940527247 electrons
N(Total)           :      151.999881054494 electrons
E(X)               :     -104.921329273864 Eh       
E(C)               :       -6.104776975218 Eh       
E(XC)              :     -111.026106249082 Eh       

---------------
SCF CONVERGENCE
---------------

  Last Energy change         ...    6.2496e-08  Tolerance :   1.0000e-08
  Last MAX-Density change    ...    3.8545e-05  Tolerance :   1.0000e-07
  Last RMS-Density change    ...    4.3042e-07  Tolerance :   5.0000e-09
  Last DIIS Error            ...    1.1816e-03  Tolerance :   5.0000e-07
  Last Orbital Gradient      ...    2.0536e-06  Tolerance :   1.0000e-05
  Last Orbital Rotation      ...    3.7369e-06  Tolerance :   1.0000e-05


----------------
ORBITAL ENERGIES
----------------

  NO   OCC          E(Eh)            E(eV) 
   0   2.0000     -77.046857     -2096.5516 
   1   2.0000     -10.195321      -277.4288 
   2   2.0000     -10.192546      -277.3533 
   3   2.0000     -10.191895      -277.3356 
   4   2.0000     -10.191831      -277.3338 
   5   2.0000     -10.191725      -277.3309 
   6   2.0000     -10.191141      -277.3150 
   7   2.0000     -10.191052      -277.3126 
   8   2.0000     -10.190934      -277.3094 
   9   2.0000     -10.189800      -277.2786 
  10   2.0000     -10.189459      -277.2693 
  11   2.0000     -10.189296      -277.2648 
  12   2.0000     -10.189292      -277.2647 
  13   2.0000     -10.189073      -277.2588 
  14   2.0000     -10.189072      -277.2587 
  15   2.0000     -10.188914      -277.2544 
  16   2.0000     -10.188701      -277.2486 
  17   2.0000     -10.188497      -277.2431 
  18   2.0000     -10.188346      -277.2390 
  19   2.0000     -10.188299      -277.2377 
  20   2.0000     -10.184951      -277.1466 
  21   2.0000      -6.543585      -178.0600 
  22   2.0000      -4.709024      -128.1391 
  23   2.0000      -4.709000      -128.1384 
  24   2.0000      -4.706050      -128.0581 
  25   2.0000      -0.855955       -23.2917 
  26   2.0000      -0.848655       -23.0931 
  27   2.0000      -0.845125       -22.9970 
  28   2.0000      -0.788232       -21.4489 
  29   2.0000      -0.758517       -20.6403 
  30   2.0000      -0.739172       -20.1139 
  31   2.0000      -0.737519       -20.0689 
  32   2.0000      -0.736913       -20.0524 
  33   2.0000      -0.734164       -19.9776 
  34   2.0000      -0.719595       -19.5812 
  35   2.0000      -0.648144       -17.6369 
  36   2.0000      -0.612756       -16.6739 
  37   2.0000      -0.601970       -16.3804 
  38   2.0000      -0.599505       -16.3133 
  39   2.0000      -0.595177       -16.1956 
  40   2.0000      -0.590784       -16.0761 
  41   2.0000      -0.560246       -15.2451 
  42   2.0000      -0.553391       -15.0585 
  43   2.0000      -0.516490       -14.0544 
  44   2.0000      -0.510430       -13.8895 
  45   2.0000      -0.489818       -13.3286 
  46   2.0000      -0.467813       -12.7299 
  47   2.0000      -0.456393       -12.4191 
  48   2.0000      -0.455174       -12.3859 
  49   2.0000      -0.449087       -12.2203 
  50   2.0000      -0.447391       -12.1741 
  51   2.0000      -0.441669       -12.0184 
  52   2.0000      -0.436013       -11.8645 
  53   2.0000      -0.420451       -11.4411 
  54   2.0000      -0.419925       -11.4268 
  55   2.0000      -0.418789       -11.3958 
  56   2.0000      -0.411980       -11.2105 
  57   2.0000      -0.408268       -11.1095 
  58   2.0000      -0.383059       -10.4236 
  59   2.0000      -0.370638       -10.0856 
  60   2.0000      -0.370490       -10.0816 
  61   2.0000      -0.367045        -9.9878 
  62   2.0000      -0.356212        -9.6930 
  63   2.0000      -0.346398        -9.4260 
  64   2.0000      -0.346098        -9.4178 
  65   2.0000      -0.345341        -9.3972 
  66   2.0000      -0.326339        -8.8801 
  67   2.0000      -0.325933        -8.8691 
  68   2.0000      -0.299763        -8.1570 
  69   2.0000      -0.272135        -7.4052 
  70   2.0000      -0.261423        -7.1137 
  71   2.0000      -0.259085        -7.0501 
  72   2.0000      -0.253706        -6.9037 
  73   2.0000      -0.252590        -6.8733 
  74   2.0000      -0.240830        -6.5533 
  75   2.0000      -0.204921        -5.5762 
  76   0.0000      -0.040434        -1.1003 
  77   0.0000      -0.024957        -0.6791 
  78   0.0000      -0.020902        -0.5688 
  79   0.0000      -0.010995        -0.2992 
  80   0.0000      -0.004822        -0.1312 
  81   0.0000      -0.003447        -0.0938 
  82   0.0000       0.032512         0.8847 
  83   0.0000       0.063984         1.7411 
  84   0.0000       0.065672         1.7870 
  85   0.0000       0.072232         1.9655 
  86   0.0000       0.082948         2.2571 
*Only the first 10 virtual orbitals were printed.

                    ********************************
                    * MULLIKEN POPULATION ANALYSIS *
                    ********************************

-----------------------
MULLIKEN ATOMIC CHARGES
-----------------------
   0 C :   -0.014915
   1 C :   -0.020444
   2 C :    0.095074
   3 C :   -0.012713
   4 C :    0.016242
   5 C :   -0.134811
   6 C :    0.022351
   7 C :   -0.011350
   8 P :    0.342258
   9 C :   -0.139696
  10 C :    0.020345
  11 C :    0.024542
  12 C :    0.025932
  13 C :    0.027689
  14 C :    0.013064
  15 C :   -0.138394
  16 C :    0.020628
  17 C :    0.024507
  18 C :    0.025906
  19 C :    0.027590
  20 C :    0.011654
  21 H :    0.017656
  22 H :    0.020268
  23 H :   -0.004261
  24 H :   -0.032588
  25 H :   -0.008046
  26 H :   -0.019448
  27 H :   -0.028195
  28 H :   -0.018148
  29 H :   -0.019075
  30 H :   -0.019767
  31 H :   -0.021466
  32 H :   -0.007032
  33 H :   -0.018301
  34 H :   -0.019129
  35 H :   -0.019878
  36 H :   -0.021429
  37 H :   -0.006619
Sum of atomic charges:   -0.0000000

--------------------------------
MULLIKEN REDUCED ORBITAL CHARGES
--------------------------------
  0 C s       :     3.102644  s :     3.102644
      pz      :     0.981015  p :     2.885605
      px      :     0.953328
      py      :     0.951262
      dz2     :     0.001637  d :     0.026666
      dxz     :     0.003887
      dyz     :     0.003968
      dx2y2   :     0.010513
      dxy     :     0.006661

  1 C s       :     3.151801  s :     3.151801
      pz      :     0.971501  p :     2.833148
      px      :     0.941083
      py      :     0.920564
      dz2     :     0.002620  d :     0.035495
      dxz     :     0.006580
      dyz     :     0.004561
      dx2y2   :     0.012283
      dxy     :     0.009451

  2 C s       :     3.040739  s :     3.040739
      pz      :     0.937970  p :     2.820772
      px      :     0.908223
      py      :     0.974580
      dz2     :     0.009091  d :     0.043414
      dxz     :     0.011736
      dyz     :     0.005760
      dx2y2   :     0.008437
      dxy     :     0.008390

  3 C s       :     3.225536  s :     3.225536
      pz      :     0.867318  p :     2.752764
      px      :     0.940387
      py      :     0.945059
      dz2     :     0.006060  d :     0.034413
      dxz     :     0.009561
      dyz     :     0.004132
      dx2y2   :     0.006908
      dxy     :     0.007751

  4 C s       :     3.226811  s :     3.226811
      pz      :     0.919993  p :     2.721835
      px      :     0.844953
      py      :     0.956889
      dz2     :     0.006678  d :     0.035112
      dxz     :     0.010487
      dyz     :     0.004597
      dx2y2   :     0.006140
      dxy     :     0.007210

  5 C s       :     3.076298  s :     3.076298
      pz      :     0.993360  p :     3.021730
      px      :     1.002695
      py      :     1.025674
      dz2     :     0.008369  d :     0.036783
      dxz     :     0.010589
      dyz     :     0.005526
      dx2y2   :     0.006930
      dxy     :     0.005369

  6 C s       :     3.215267  s :     3.215267
      pz      :     0.888351  p :     2.727384
      px      :     0.903452
      py      :     0.935581
      dz2     :     0.006144  d :     0.034998
      dxz     :     0.009735
      dyz     :     0.004270
      dx2y2   :     0.007212
      dxy     :     0.007637

  7 C s       :     3.224532  s :     3.224532
      pz      :     0.928239  p :     2.752404
      px      :     0.868322
      py      :     0.955843
      dz2     :     0.006665  d :     0.034414
      dxz     :     0.010335
      dyz     :     0.004571
      dx2y2   :     0.005986
      dxy     :     0.006858

  8 P s       :     5.636984  s :     5.636984
      pz      :     3.318737  p :     8.840012
      px      :     2.766378
      py      :     2.754897
      dz2     :     0.017731  d :     0.180746
      dxz     :     0.029997
      dyz     :     0.040927
      dx2y2   :     0.054618
      dxy     :     0.037473

  9 C s       :     3.080686  s :     3.080686
      pz      :     0.986072  p :     3.022402
      px      :     1.020432
      py      :     1.015898
      dz2     :     0.008783  d :     0.036608
      dxz     :     0.005248
      dyz     :     0.010207
      dx2y2   :     0.005653
      dxy     :     0.006717

 10 C s       :     3.212401  s :     3.212401
      pz      :     0.866048  p :     2.732392
      px      :     0.935923
      py      :     0.930421
      dz2     :     0.006770  d :     0.034862
      dxz     :     0.004107
      dyz     :     0.009698
      dx2y2   :     0.006902
      dxy     :     0.007385

 11 C s       :     3.158373  s :     3.158373
      pz      :     0.954561  p :     2.781905
      px      :     0.981834
      py      :     0.845510
      dz2     :     0.008689  d :     0.035180
      dxz     :     0.005867
      dyz     :     0.009301
      dx2y2   :     0.006684
      dxy     :     0.004639

 12 C s       :     3.158338  s :     3.158338
      pz      :     0.924959  p :     2.780248
      px      :     0.945694
      py      :     0.909594
      dz2     :     0.007454  d :     0.035482
      dxz     :     0.005057
      dyz     :     0.010756
      dx2y2   :     0.005491
      dxy     :     0.006724

 13 C s       :     3.158214  s :     3.158214
      pz      :     0.868980  p :     2.778926
      px      :     0.959252
      py      :     0.950694
      dz2     :     0.006947  d :     0.035171
      dxz     :     0.004173
      dyz     :     0.009657
      dx2y2   :     0.007116
      dxy     :     0.007278

 14 C s       :     3.224149  s :     3.224149
      pz      :     0.930161  p :     2.727775
      px      :     0.963150
      py      :     0.834463
      dz2     :     0.008420  d :     0.035012
      dxz     :     0.005841
      dyz     :     0.009504
      dx2y2   :     0.006634
      dxy     :     0.004613

 15 C s       :     3.080402  s :     3.080402
      pz      :     0.992323  p :     3.021395
      px      :     1.019877
      py      :     1.009195
      dz2     :     0.006256  d :     0.036597
      dxz     :     0.006500
      dyz     :     0.006845
      dx2y2   :     0.008728
      dxy     :     0.008269

 16 C s       :     3.212121  s :     3.212121
      pz      :     0.917847  p :     2.732398
      px      :     0.922544
      py      :     0.892007
      dz2     :     0.003760  d :     0.034853
      dxz     :     0.006243
      dyz     :     0.006412
      dx2y2   :     0.008838
      dxy     :     0.009600

 17 C s       :     3.158299  s :     3.158299
      pz      :     0.963256  p :     2.782003
      px      :     0.869587
      py      :     0.949160
      dz2     :     0.005674  d :     0.035190
      dxz     :     0.005103
      dyz     :     0.006965
      dx2y2   :     0.008604
      dxy     :     0.008845

 18 C s       :     3.158297  s :     3.158297
      pz      :     0.956838  p :     2.780318
      px      :     0.960013
      py      :     0.863466
      dz2     :     0.005583  d :     0.035479
      dxz     :     0.006886
      dyz     :     0.005324
      dx2y2   :     0.009154
      dxy     :     0.008531

 19 C s       :     3.158244  s :     3.158244
      pz      :     0.921643  p :     2.778989
      px      :     0.918659
      py      :     0.938687
      dz2     :     0.003848  d :     0.035177
      dxz     :     0.006282
      dyz     :     0.006350
      dx2y2   :     0.009000
      dxy     :     0.009697

 20 C s       :     3.224261  s :     3.224261
      pz      :     0.942032  p :     2.729075
      px      :     0.885578
      py      :     0.901465
      dz2     :     0.005524  d :     0.035011
      dxz     :     0.005165
      dyz     :     0.006936
      dx2y2   :     0.008855
      dxy     :     0.008530

 21 H s       :     0.958370  s :     0.958370
      pz      :     0.006724  p :     0.023975
      px      :     0.004619
      py      :     0.012632

 22 H s       :     0.955823  s :     0.955823
      pz      :     0.005525  p :     0.023909
      px      :     0.013698
      py      :     0.004686

 23 H s       :     0.981135  s :     0.981135
      pz      :     0.006609  p :     0.023126
      px      :     0.004330
      py      :     0.012187

 24 H s       :     1.009595  s :     1.009595
      pz      :     0.011412  p :     0.022994
      px      :     0.004210
      py      :     0.007372

 25 H s       :     0.984396  s :     0.984396
      pz      :     0.008147  p :     0.023650
      px      :     0.008935
      py      :     0.006567

 26 H s       :     0.996391  s :     0.996391
      pz      :     0.011505  p :     0.023057
      px      :     0.004333
      py      :     0.007219

 27 H s       :     1.005082  s :     1.005082
      pz      :     0.008242  p :     0.023114
      px      :     0.008532
      py      :     0.006340

 28 H s       :     0.995078  s :     0.995078
      pz      :     0.012297  p :     0.023070
      px      :     0.006393
      py      :     0.004380

 29 H s       :     0.996068  s :     0.996068
      pz      :     0.004841  p :     0.023007
      px      :     0.004380
      py      :     0.013786

 30 H s       :     0.996793  s :     0.996793
      pz      :     0.007235  p :     0.022974
      px      :     0.006980
      py      :     0.008759

 31 H s       :     0.998509  s :     0.998509
      pz      :     0.012211  p :     0.022958
      px      :     0.006458
      py      :     0.004288

 32 H s       :     0.983394  s :     0.983394
      pz      :     0.005018  p :     0.023637
      px      :     0.004372
      py      :     0.014247

 33 H s       :     0.995228  s :     0.995228
      pz      :     0.008869  p :     0.023073
      px      :     0.007635
      py      :     0.006569

 34 H s       :     0.996121  s :     0.996121
      pz      :     0.005305  p :     0.023008
      px      :     0.012368
      py      :     0.005335

 35 H s       :     0.996902  s :     0.996902
      pz      :     0.005418  p :     0.022976
      px      :     0.004655
      py      :     0.012903

 36 H s       :     0.998472  s :     0.998472
      pz      :     0.008809  p :     0.022957
      px      :     0.007537
      py      :     0.006611

 37 H s       :     0.982984  s :     0.982984
      pz      :     0.005406  p :     0.023636
      px      :     0.012771
      py      :     0.005459



                     *******************************
                     * LOEWDIN POPULATION ANALYSIS *
                     *******************************

----------------------
LOEWDIN ATOMIC CHARGES
----------------------
   0 C :   -0.041458
   1 C :   -0.018574
   2 C :   -0.025606
   3 C :   -0.019491
   4 C :   -0.026396
   5 C :   -0.180195
   6 C :   -0.021872
   7 C :   -0.016216
   8 P :    0.519779
   9 C :   -0.178089
  10 C :   -0.024350
  11 C :   -0.025045
  12 C :   -0.021893
  13 C :   -0.024841
  14 C :   -0.027944
  15 C :   -0.177850
  16 C :   -0.024212
  17 C :   -0.024894
  18 C :   -0.022092
  19 C :   -0.024835
  20 C :   -0.028566
  21 H :    0.020801
  22 H :    0.023927
  23 H :    0.028199
  24 H :    0.024806
  25 H :    0.027642
  26 H :    0.024714
  27 H :    0.025939
  28 H :    0.024064
  29 H :    0.026535
  30 H :    0.025529
  31 H :    0.025903
  32 H :    0.027320
  33 H :    0.024053
  34 H :    0.026525
  35 H :    0.025488
  36 H :    0.025918
  37 H :    0.027277

-------------------------------
LOEWDIN REDUCED ORBITAL CHARGES
-------------------------------
  0 C s       :     2.881594  s :     2.881594
      pz      :     0.989510  p :     3.090563
      px      :     1.051734
      py      :     1.049319
      dz2     :     0.004411  d :     0.069301
      dxz     :     0.008656
      dyz     :     0.009430
      dx2y2   :     0.027959
      dxy     :     0.018845

  1 C s       :     2.867675  s :     2.867675
      pz      :     0.969750  p :     3.059336
      px      :     1.041143
      py      :     1.048443
      dz2     :     0.006404  d :     0.091563
      dxz     :     0.015143
      dyz     :     0.010799
      dx2y2   :     0.032943
      dxy     :     0.026275

  2 C s       :     2.846898  s :     2.846898
      pz      :     1.040951  p :     3.067575
      px      :     1.039435
      py      :     0.987189
      dz2     :     0.022873  d :     0.111132
      dxz     :     0.031150
      dyz     :     0.015419
      dx2y2   :     0.021672
      dxy     :     0.020019

  3 C s       :     2.861106  s :     2.861106
      pz      :     1.016602  p :     3.068413
      px      :     1.057262
      py      :     0.994550
      dz2     :     0.015531  d :     0.089972
      dxz     :     0.025663
      dyz     :     0.010080
      dx2y2   :     0.019667
      dxy     :     0.019031

  4 C s       :     2.864614  s :     2.864614
      pz      :     1.020173  p :     3.069925
      px      :     1.056607
      py      :     0.993145
      dz2     :     0.016942  d :     0.091858
      dxz     :     0.028690
      dyz     :     0.011824
      dx2y2   :     0.016706
      dxy     :     0.017696

  5 C s       :     2.911210  s :     2.911210
      pz      :     1.063695  p :     3.176542
      px      :     1.086409
      py      :     1.026438
      dz2     :     0.019888  d :     0.092443
      dxz     :     0.028178
      dyz     :     0.014907
      dx2y2   :     0.016353
      dxy     :     0.013117

  6 C s       :     2.865492  s :     2.865492
      pz      :     1.018242  p :     3.065029
      px      :     1.063726
      py      :     0.983061
      dz2     :     0.015824  d :     0.091351
      dxz     :     0.026250
      dyz     :     0.010278
      dx2y2   :     0.020349
      dxy     :     0.018649

  7 C s       :     2.859492  s :     2.859492
      pz      :     1.027741  p :     3.066904
      px      :     1.049106
      py      :     0.990057
      dz2     :     0.016851  d :     0.089820
      dxz     :     0.028314
      dyz     :     0.011601
      dx2y2   :     0.016438
      dxy     :     0.016616

  8 P s       :     5.230489  s :     5.230489
      pz      :     3.390861  p :     8.999456
      px      :     2.810406
      py      :     2.798190
      dz2     :     0.025658  d :     0.250277
      dxz     :     0.039385
      dyz     :     0.056023
      dx2y2   :     0.077400
      dxy     :     0.051812

  9 C s       :     2.912519  s :     2.912519
      pz      :     1.070397  p :     3.173632
      px      :     1.025083
      py      :     1.078152
      dz2     :     0.021919  d :     0.091938
      dxz     :     0.013092
      dyz     :     0.027019
      dx2y2   :     0.014960
      dxy     :     0.014947

 10 C s       :     2.865805  s :     2.865805
      pz      :     1.024657  p :     3.067423
      px      :     0.983907
      py      :     1.058859
      dz2     :     0.017630  d :     0.091122
      dxz     :     0.009875
      dyz     :     0.026262
      dx2y2   :     0.018712
      dxy     :     0.018643

 11 C s       :     2.859963  s :     2.859963
      pz      :     1.042458  p :     3.073857
      px      :     0.995675
      py      :     1.035724
      dz2     :     0.022311  d :     0.091225
      dxz     :     0.015576
      dyz     :     0.025474
      dx2y2   :     0.016391
      dxy     :     0.011472

 12 C s       :     2.859561  s :     2.859561
      pz      :     1.034718  p :     3.070372
      px      :     0.984015
      py      :     1.051638
      dz2     :     0.019292  d :     0.091961
      dxz     :     0.012668
      dyz     :     0.029269
      dx2y2   :     0.014721
      dxy     :     0.016011

 13 C s       :     2.860575  s :     2.860575
      pz      :     1.021525  p :     3.073063
      px      :     0.989014
      py      :     1.062524
      dz2     :     0.017567  d :     0.091203
      dxz     :     0.010033
      dyz     :     0.026364
      dx2y2   :     0.019098
      dxy     :     0.018140

 14 C s       :     2.864918  s :     2.864918
[...]
      pz      :     1.035867  p :     3.166096
      px      :     1.062369
      py      :     1.067860
      dz2     :     0.013925  d :     0.090609
      dxz     :     0.017933
      dyz     :     0.016967
      dx2y2   :     0.021041
      dxy     :     0.020743

 16 C s       :     2.867041  s :     2.867041
      pz      :     0.999718  p :     3.070160
      px      :     1.033946
      py      :     1.036496
      dz2     :     0.010168  d :     0.091353
      dxz     :     0.016229
      dyz     :     0.016512
      dx2y2   :     0.022556
      dxy     :     0.025888

 17 C s       :     2.863328  s :     2.863328
      pz      :     1.010566  p :     3.071876
      px      :     1.021385
      py      :     1.039924
      dz2     :     0.013931  d :     0.090211
      dxz     :     0.014017
      dyz     :     0.018979
      dx2y2   :     0.020999
      dxy     :     0.022285

 18 C s       :     2.864301  s :     2.864301
      pz      :     1.006237  p :     3.068555
      px      :     1.041925
      py      :     1.020394
      dz2     :     0.013047  d :     0.089886
      dxz     :     0.018829
      dyz     :     0.014049
      dx2y2   :     0.022318
      dxy     :     0.021643

 19 C s       :     2.863565  s :     2.863565
      pz      :     0.998767  p :     3.071423
      px      :     1.034526
      py      :     1.038130
      dz2     :     0.009738  d :     0.090334
      dxz     :     0.016138
      dyz     :     0.016036
      dx2y2   :     0.023091
      dxy     :     0.025331

 20 C s       :     2.866964  s :     2.866964
      pz      :     1.001842  p :     3.071970
      px      :     1.030083
      py      :     1.040044
      dz2     :     0.013807  d :     0.091264
      dxz     :     0.013969
      dyz     :     0.019506
      dx2y2   :     0.021671
      dxy     :     0.022312

 21 H s       :     0.911231  s :     0.911231
      pz      :     0.033612  p :     0.068127
      px      :     0.011498
      py      :     0.023017

 22 H s       :     0.905347  s :     0.905347
      pz      :     0.016993  p :     0.067820
      px      :     0.036292
      py      :     0.014535

 23 H s       :     0.907242  s :     0.907242
      pz      :     0.032637  p :     0.065420
      px      :     0.011159
      py      :     0.021624

 24 H s       :     0.907482  s :     0.907482
      pz      :     0.032698  p :     0.067153
      px      :     0.012891
      py      :     0.021564

 25 H s       :     0.900248  s :     0.900248
      pz      :     0.022110  p :     0.069617
      px      :     0.027891
      py      :     0.019616

 26 H s       :     0.907374  s :     0.907374
      pz      :     0.033098  p :     0.067147
      px      :     0.012951
      py      :     0.021099

 27 H s       :     0.906504  s :     0.906504
      pz      :     0.022202  p :     0.067784
      px      :     0.025963
      py      :     0.019619

 28 H s       :     0.907839  s :     0.907839
      pz      :     0.035488  p :     0.067341
      px      :     0.018669
      py      :     0.013184

 29 H s       :     0.905843  s :     0.905843
      pz      :     0.014126  p :     0.066497
      px      :     0.013235
      py      :     0.039136

 30 H s       :     0.906470  s :     0.906470
      pz      :     0.021873  p :     0.066550
      px      :     0.019552
      py      :     0.025124

 31 H s       :     0.906298  s :     0.906298
      pz      :     0.034530  p :     0.066515
      px      :     0.018570
      py      :     0.013416

 32 H s       :     0.900925  s :     0.900925
      pz      :     0.014096  p :     0.069683
      px      :     0.013473
      py      :     0.042115

 33 H s       :     0.907899  s :     0.907899
      pz      :     0.027090  p :     0.067329
      px      :     0.021498
      py      :     0.018740

 34 H s       :     0.905859  s :     0.905859
      pz      :     0.015408  p :     0.066496
      px      :     0.034518
      py      :     0.016570

 35 H s       :     0.906438  s :     0.906438
      pz      :     0.016792  p :     0.066550
      px      :     0.014286
      py      :     0.035473

 36 H s       :     0.906154  s :     0.906154
      pz      :     0.026450  p :     0.066527
      px      :     0.021628
      py      :     0.018449

 37 H s       :     0.900869  s :     0.900869
      pz      :     0.015444  p :     0.069648
      px      :     0.036286
      py      :     0.017918



                      *****************************
                      * MAYER POPULATION ANALYSIS *
                      *****************************

  NA   - Mulliken gross atomic population
  ZA   - Total nuclear charge
  QA   - Mulliken gross atomic charge
  VA   - Mayer's total valence
  BVA  - Mayer's bonded valence
  FA   - Mayer's free valence

  ATOM       NA         ZA         QA         VA         BVA        FA
  0 C      6.0208     6.0000    -0.0208     3.9138     3.9138    -0.0000
  1 C      6.0029     6.0000    -0.0029     3.9973     3.9973    -0.0000
  2 C      5.9003     6.0000     0.0997     3.8163     3.8163    -0.0000
  3 C      6.0203     6.0000    -0.0203     3.8001     3.8001    -0.0000
  4 C      5.9730     6.0000     0.0270     3.8627     3.8627    -0.0000
  5 C      6.1647     6.0000    -0.1647     3.7986     3.7986    -0.0000
  6 C      5.9664     6.0000     0.0336     3.8661     3.8661    -0.0000
  7 C      6.0180     6.0000    -0.0180     3.8468     3.8468    -0.0000
  8 P     14.6361    15.0000     0.3639     2.9324     2.9324    -0.0000
  9 C      6.1668     6.0000    -0.1668     3.8200     3.8200    -0.0000
 10 C      5.9754     6.0000     0.0246     3.8703     3.8703    -0.0000
 11 C      5.9794     6.0000     0.0206     3.8522     3.8522    -0.0000
 12 C      5.9767     6.0000     0.0233     3.8247     3.8247    -0.0000
 13 C      5.9749     6.0000     0.0251     3.8315     3.8315    -0.0000
 14 C      5.9817     6.0000     0.0183     3.8786     3.8786    -0.0000
 15 C      6.1670     6.0000    -0.1670     3.8212     3.8212    -0.0000
 16 C      5.9739     6.0000     0.0261     3.8687     3.8687    -0.0000
 17 C      5.9795     6.0000     0.0205     3.8520     3.8520    -0.0000
 18 C      5.9765     6.0000     0.0235     3.8248     3.8248    -0.0000
 19 C      5.9753     6.0000     0.0247     3.8317     3.8317    -0.0000
 20 C      5.9814     6.0000     0.0186     3.8775     3.8775    -0.0000
 21 H      0.9841     1.0000     0.0159     0.9808     0.9808    -0.0000
 22 H      0.9768     1.0000     0.0232     0.9742     0.9742    -0.0000
 23 H      1.0177     1.0000    -0.0177     0.9821     0.9821    -0.0000
 24 H      1.0289     1.0000    -0.0289     0.9844     0.9844     0.0000
 25 H      1.0026     1.0000    -0.0026     0.9904     0.9904    -0.0000
 26 H      1.0186     1.0000    -0.0186     0.9891     0.9891    -0.0000
 27 H      1.0303     1.0000    -0.0303     0.9849     0.9849    -0.0000
 28 H      1.0157     1.0000    -0.0157     0.9899     0.9899     0.0000
 29 H      1.0152     1.0000    -0.0152     0.9777     0.9777    -0.0000
 30 H      1.0154     1.0000    -0.0154     0.9774     0.9774    -0.0000
 31 H      1.0177     1.0000    -0.0177     0.9775     0.9775    -0.0000
 32 H      1.0015     1.0000    -0.0015     0.9913     0.9913     0.0000
 33 H      1.0160     1.0000    -0.0160     0.9899     0.9899     0.0000
 34 H      1.0152     1.0000    -0.0152     0.9777     0.9777     0.0000
 35 H      1.0153     1.0000    -0.0153     0.9775     0.9775    -0.0000
 36 H      1.0173     1.0000    -0.0173     0.9775     0.9775    -0.0000
 37 H      1.0007     1.0000    -0.0007     0.9909     0.9909    -0.0000

  Mayer bond orders larger than 0.100000
B(  0-C ,  1-C ) :   1.9298 B(  0-C , 21-H ) :   0.9433 B(  0-C , 22-H ) :   0.9445 
B(  1-C ,  2-C ) :   1.0805 B(  1-C , 23-H ) :   0.9610 B(  2-C ,  3-C ) :   1.3409 
B(  2-C ,  7-C ) :   1.3300 B(  3-C ,  4-C ) :   1.3682 B(  3-C , 24-H ) :   0.9886 
B(  4-C ,  5-C ) :   1.3844 B(  4-C , 25-H ) :   0.9790 B(  5-C ,  6-C ) :   1.3392 
B(  5-C ,  8-P ) :   0.9319 B(  6-C ,  7-C ) :   1.4307 B(  6-C , 26-H ) :   0.9788 
B(  7-C , 27-H ) :   0.9840 B(  8-P ,  9-C ) :   0.9304 B(  8-P , 15-C ) :   0.9310 
B(  9-C , 10-C ) :   1.3706 B(  9-C , 14-C ) :   1.3863 B( 10-C , 11-C ) :   1.4048 
B( 10-C , 28-H ) :   0.9817 B( 11-C , 12-C ) :   1.3758 B( 11-C , 29-H ) :   0.9849 
B( 12-C , 13-C ) :   1.3818 B( 12-C , 30-H ) :   0.9844 B( 13-C , 14-C ) :   1.3835 
B( 13-C , 31-H ) :   0.9838 B( 14-C , 32-H ) :   0.9794 B( 15-C , 16-C ) :   1.3708 
B( 15-C , 20-C ) :   1.3850 B( 16-C , 17-C ) :   1.4043 B( 16-C , 33-H ) :   0.9818 
B( 17-C , 18-C ) :   1.3761 B( 17-C , 34-H ) :   0.9849 B( 18-C , 19-C ) :   1.3814 
B( 18-C , 35-H ) :   0.9844 B( 19-C , 20-C ) :   1.3836 B( 19-C , 36-H ) :   0.9839 
B( 20-C , 37-H ) :   0.9793 

-------
TIMINGS
-------

Total SCF time: 0 days 0 hours 0 min 18 sec 

Total time                  ....      18.195 sec
Sum of individual times     ....      18.108 sec  ( 99.5%)

SCF preparation             ....       0.130 sec  (  0.7%)
Fock matrix formation       ....      17.519 sec  ( 96.3%)
  Startup                   ....       0.020 sec  (  0.1% of F)
  Exchange formation        ....      13.649 sec  ( 77.9% of F)
  Split-RI-J                ....       1.344 sec  (  7.7% of F)
  XC integration            ....       2.428 sec  ( 13.9% of F)
    Basis function eval.    ....       0.713 sec  ( 29.4% of XC)
    Density eval.           ....       0.722 sec  ( 29.7% of XC)
    XC-Functional eval.     ....       0.086 sec  (  3.5% of XC)
    XC-Potential eval.      ....       0.542 sec  ( 22.3% of XC)
Diagonalization             ....       0.000 sec  (  0.0%)
Density matrix formation    ....       0.046 sec  (  0.3%)
Total Energy calculation    ....       0.017 sec  (  0.1%)
Population analysis         ....       0.101 sec  (  0.6%)
Orbital Transformation      ....       0.046 sec  (  0.3%)
Orbital Orthonormalization  ....       0.000 sec  (  0.0%)
DIIS solution               ....       0.054 sec  (  0.3%)
SOSCF solution              ....       0.195 sec  (  1.1%)
Finished LeanSCF after  18.2 sec

Maximum memory used throughout the entire LEANSCF-calculation: 40.7 MB


-------------------------------------------------------------------------------
                          DFT DISPERSION CORRECTION                            
                                                                               
                              DFTD3 V3.1  Rev 1                                
                          USING Becke-Johnson damping                          
-------------------------------------------------------------------------------
The B3LYP functional is recognized
Active option DFTDOPT                   ...         4   

molecular C6(AA) [au] = 20274.467021 


            DFT-D V3
 parameters
 s6 scaling factor         :     1.0000 
 a1 scaling factor         :     0.3981 
 s8 scaling factor         :     1.9889 
 a2 scaling factor         :     4.4211 
 ad hoc parameters k1-k3   :    16.0000     1.3333    -4.0000 

 Edisp/kcal,au: -59.350754771552  -0.094581438040 
 E6   /kcal   : -26.941676957 
 E8   /kcal   : -32.409077815 
 % E8         :  54.606007858 

-------------------------   ----------------
Dispersion correction           -0.094581438
-------------------------   ----------------


-------------------------   --------------------
FINAL SINGLE POINT ENERGY     -1112.592792018107
-------------------------   --------------------

                                *** OPTIMIZATION RUN DONE ***



           ************************************************************
           *        Program running with 6 parallel MPI-processes     *
           *              working on a common directory               *
           ************************************************************

------------------------------------------------------------------------------
                              ORCA PROPERTY CALCULATIONS
------------------------------------------------------------------------------

GBWName                                 ... data/geom_opt/11437688/11437688.gbw
Number of atoms                         ...     38
Number of basis functions               ...    383
Max core memory                         ...   1024 MB

Electric properties:
Dipole moment                           ... YES
Quadrupole moment                       ...  NO
Static polarizability (Dipole/Dipole)   ...  NO
Static polarizability (Dipole/Quad.)    ...  NO
Static polarizability (Quad./Quad.)     ...  NO
Static polarizability (Velocity)        ...  NO

Atomic electric properties:
Dipole moment                           ...  NO
Quadrupole moment                       ...  NO
Static polarizability                   ...  NO

Choice of electric origin               ... Center of mass
Position of electric origin             ...    -0.344749    -0.044890    -0.338612

General magnetic properties:
Magnetizability                         ...  NO

EPR properties:
g-Tensor (aka g-matrix)                 ...  NO
Zero-Field splitting spin-orbit         ...  NO
Zero-field splitting spin-spin          ...  NO
Hyperfine couplings                     ...  NO (   0 nuclei)
Quadrupole couplings                    ...  NO (   0 nuclei)
Contact density                         ...  NO (   0 nuclei)

NMR properties:
Chemical shifts                         ...  NO (   0 nuclei)
Spin-rotation constants                 ...  NO (   0 nuclei)
Spin-spin couplings                     ...  NO (   0 nuclei,    0 pairs)

Choice of magnetic origin               ... GIAO
Position of magnetic origin             ...     0.000000     0.000000     0.000000

Properties with geometric perturbations:
SCF Hessian                             ...  NO
IR spectrum                             ...  NO
VCD spectrum                            ...  NO
X-ray spectroscopy properties:
SCF XES/XAS/RIXS spectra                ...  NO


-------------
DIPOLE MOMENT
-------------

Method             : SCF
Type of density    : Electron Density
Multiplicity       :   1
Irrep              :   0
Energy             : -1112.4982105800670524 Eh
Relativity type    : 
Basis              : AO
                                X                 Y                 Z
Electronic contribution:     -6.507414401      -0.773433599      -5.558733202
Nuclear contribution   :      6.527062013       0.842278246       6.073862280
                        -----------------------------------------
Total Dipole Moment    :      0.019647611       0.068844648       0.515129077
                        -----------------------------------------
Magnitude (a.u.)       :      0.520080360
Magnitude (Debye)      :      1.321939218



--------------------
Rotational spectrum 
--------------------
 
Rotational constants in cm-1:             0.011656             0.007096             0.005060 
Rotational constants in MHz :           349.426021           212.728707           151.700702 

Dipole components along the rotational axes: 
x,y,z [a.u.] :    -0.021611    -0.003152     0.519622 
x,y,z [Debye]:    -0.054932    -0.008011     1.320773 

 

Dipole moment calculation done in   0.0 sec 

Maximum memory used throughout the entire PROP-calculation: 20.5 MB

--------------------------------
SUGGESTED CITATIONS FOR THIS RUN
--------------------------------

Below you find a list of papers that are relevant to this ORCA run
We neither can nor want to force you to cite these papers, but we appreciate if you do
You receive ORCA, which is the product of decades of hard work by many enthusiastic individuals, for free
The only thing we kindly ask in return is that you cite our papers,
We deeply appreciate it, if you show your appreciation for ORCA by not just citing the generic ORCA reference.

Please note that relegating all ORCA citations to the supporting information does *not* help us.
SI sections are not indexed - citations you put there will not count into any citation statistics
But we need these citations in order to attract the funding resources that allow us to do what we are doing

Therefore, if you are a happy ORCA user, please consider citing a few of the papers listed below in the main body of your paper

In addition to the list printed below, the program has created the file data/geom_opt/11437688/11437688.bibtex that contains the list in bibtex format
You can import this file easily into all common literature databanks and citation aid programs


List of essential papers. We consider these as the minimum necessary citations

  1. Neese,F.
     Software update: the ORCA program system, version 5.0
     WIRES Comput. Molec. Sci., 2022 12(1)e1606
     doi.org/10.1002/wcms.1606

List of papers to cite with high priority. The work reported in these papers was absolutely
necessary for this run to complete.
Our perspective: the developers of density functionals and basis sets usually get cited in chemistry papers
Good! But without the algorithms to do something with them, the functionals or basis sets would not do anything.
Hence, in our opinion, the algorithm design and method developments papers are equally worthy of getting cited

  1. Neese,F.
     An improvement of the resolution of the identity approximation for the formation of the Coulomb matrix
     J. Comp. Chem., 2003 24(14)1740-1747
     doi.org/10.1002/jcc.10318
  2. Neese,F.
     The SHARK Integral Generation and Digestion System
     J. Comp. Chem., 2022  1-16
     doi.org/10.1002/jcc.26942
  3. Grimme,S.; Antony,J.; Ehrlich,S.; Krieg,H.
     A consistent and accurate ab initio parametrization of density functional dispersion correction (DFT-D) for the 94 elements H-Pu
     J. Chem. Phys., 2010 132 154104-XXXX
     doi.org/10.1063/1.3382344
  4. Grimme,S.; Ehrlich,S.; Goerigk,L.
     Effect of the damping function in dispersion corrected density functional theory
     J. Comput. Chem., 2011 32(7)1456-1465
     doi.org/10.1002/jcc.21759

List of suggested additional citations. These are papers that are important in the 'surrounding' of 
of this run, or papers that preceded the highly important papers. If you like your results we are grateful for a citation.

  1. Neese,F.
     The ORCA program system
     WIRES Comput. Molec. Sci., 2012 2(1)73-78
     doi.org/10.1002/wcms.81
  2. Neese,F.
     Software update: the ORCA program system, version 4.0
     WIRES Comput. Molec. Sci., 2018 8(1)1-6
     doi.org/10.1002/wcms.1327
  3. Neese,F.; Wennmohs,F.; Becker,U.; Riplinger,C.
     The ORCA quantum chemistry program package
     J. Chem. Phys., 2020 152 Art. No. L224108
     doi.org/10.1063/5.0004608

List of optional additional citations

  1. Neese,F.
     Approximate second-order SCF convergence for spin unrestricted wavefunctions
     Chem. Phys. Lett., 2000 325(1-3)93-98
     doi.org/10.1016/s0009-2614(00)00662-x

Timings for individual modules:

Sum of individual times          ...      591.925 sec (=   9.865 min)
Startup calculation              ...       16.476 sec (=   0.275 min)   2.8 %
SCF iterations                   ...      385.212 sec (=   6.420 min)  65.1 %
Property calculations            ...        0.277 sec (=   0.005 min)   0.0 %
SCF Gradient evaluation          ...      189.770 sec (=   3.163 min)  32.1 %
Geometry relaxation              ...        0.190 sec (=   0.003 min)   0.0 %
                             ****ORCA TERMINATED NORMALLY****
TOTAL RUN TIME: 0 days 0 hours 9 minutes 55 seconds 287 msec
