
                                 *****************
                                 * O   R   C   A *
                                 *****************

                                            #,                                       
                                            ###                                      
                                            ####                                     
                                            #####                                    
                                            ######                                   
                                           ########,                                 
                                     ,,################,,,,,                         
                               ,,#################################,,                 
                          ,,##########################################,,             
                       ,#########################################, ''#####,          
                    ,#############################################,,   '####,        
                  ,##################################################,,,,####,       
                ,###########''''           ''''###############################       
              ,#####''   ,,,,##########,,,,          '''####'''          '####       
            ,##' ,,,,###########################,,,                        '##       
           ' ,,###''''                  '''############,,,                           
         ,,##''                                '''############,,,,        ,,,,,,###''
      ,#''                                            '''#######################'''  
     '                                                          ''''####''''         
             ,#######,   #######,   ,#######,      ##                                
            ,#'     '#,  ##    ##  ,#'     '#,    #''#        ,####,   ,####,        
            ##       ##  ##   ,#'  ##            #'  '#       #'       #'  '#        
            ##       ##  #######   ##           ,######,      #####,   #    #        
            '#,     ,#'  ##    ##  '#,     ,#' ,#      #,     #,   #   #,  ,#        
             '#######'   ##     ##  '#######'  #'      '#     '####' # '####'        



                #########################################################
                #                        -***-                          #
                #          Department of theory and spectroscopy        #
                #                                                       #
                #                      Frank Neese                      #
                #                                                       #
                #     Directorship, Architecture, Infrastructure        #
                #                    SHARK, DRIVERS                     #
                #        Core code/Algorithms in most modules           #
                #                                                       #
                #        Max Planck Institute fuer Kohlenforschung      #
                #                Kaiser Wilhelm Platz 1                 #
                #                 D-45470 Muelheim/Ruhr                 #
                #                      Germany                          #
                #                                                       #
                #                  All rights reserved                  #
                #                        -***-                          #
                #########################################################


                         Program Version 6.0.0  -   RELEASE   -


 With contributions from (in alphabetic order):
   Daniel Aravena         : Magnetic Suceptibility
   Michael Atanasov       : Ab Initio Ligand Field Theory (pilot matlab implementation)
   Alexander A. Auer      : GIAO ZORA, VPT2 properties, NMR spectrum
   Ute Becker             : All parallelization in ORCA, NUMFREQ, NUMCALC
   Giovanni Bistoni       : ED, misc. LED, open-shell LED, HFLD
   Martin Brehm           : Molecular dynamics
   Dmytro Bykov           : pre 5.0 version of the SCF Hessian
   Marcos Casanova-Páez   : Triplet and SCS-CIS(D). UHF-(DLPNO)-IP/EA/STEOM-CCSD. UHF-CVS-IP/STEOM-CCSD
   Vijay G. Chilkuri      : MRCI spin determinant printing, contributions to CSF-ICE
   Pauline Colinet        : FMM embedding
   Dipayan Datta          : RHF DLPNO-CCSD density
   Achintya Kumar Dutta   : EOM-CC, STEOM-CC
   Nicolas Foglia         : Exact transition moments, OPA infrastructure, MCD improvements
   Dmitry Ganyushin       : Spin-Orbit,Spin-Spin,Magnetic field MRCI
   Miquel Garcia          : C-PCM and meta-GGA Hessian, CCSD/C-PCM, Gaussian charge scheme
   Tiago L. C. Gouveia    : GS-ROHF, GS-ROCIS
   Yang Guo               : DLPNO-NEVPT2, F12-NEVPT2, CIM, IAO-localization
   Andreas Hansen         : Spin unrestricted coupled pair/coupled cluster methods
   Ingolf Harden          : AUTO-CI MPn and infrastructure 
   Benjamin Helmich-Paris : MC-RPA, TRAH-(SCF,CASSCF), AVAS, COSX integrals, SCF dyn. polar.
   Lee Huntington         : MR-EOM, pCC
   Robert Izsak           : Overlap fitted RIJCOSX, COSX-SCS-MP3, EOM
   Riya Kayal             : Wick's Theorem for AUTO-CI, AUTO-CI UHF-CCSDT
   Emily Kempfer          : AUTO-CI, RHF CISDT and CCSDT
   Christian Kollmar      : KDIIS, OOCD, Brueckner-CCSD(T), CCSD density, CASPT2, CASPT2-K, improved NEVPT2
   Axel Koslowski         : Symmetry handling
   Simone Kossmann        : Meta GGA functionals, TD-DFT gradient, OOMP2, (MP2 Hessian; deprecated post 5.0)
   Lucas Lang             : DCDCAS
   Marvin Lechner         : AUTO-CI (C++ implementation), FIC-MRCC
   Spencer Leger          : CASSCF response
   Dagmar Lenk            : GEPOL surface, SMD, ORCA-2-JSON
   Dimitrios Liakos       : Extrapolation schemes; Compound Job, initial MDCI parallelization
   Dimitrios Manganas     : Further ROCIS development; embedding schemes. LFT, Crystal Embedding
   Dimitrios Pantazis     : SARC Basis sets
   Anastasios Papadopoulos: AUTO-CI, single reference methods and gradients
   Taras Petrenko         : pre 6.0 DFT Hessian and TD-DFT gradient, (ASA, deprecated), ECA, 1-Electron XAS/XES, NRVS
   Peter Pinski           : DLPNO-MP2, DLPNO-MP2 Gradient
   Christoph Reimann      : Effective Core Potentials
   Marius Retegan         : Local ZFS, SOC
   Christoph Riplinger    : Optimizer, TS searches, QM/MM, DLPNO-CCSD(T), (RO)-DLPNO pert. Triples
   Michael Roemelt        : Original ROCIS implementation
   Masaaki Saitow         : Open-shell DLPNO-CCSD energy and density
   Barbara Sandhoefer     : DKH picture change effects
   Kantharuban Sivalingam : CASSCF convergence/infrastructure, NEVPT2 and variants, FIC-MRCI
   Bernardo de Souza      : ESD, SOC TD-DFT
   Georgi Stoychev        : AutoAux, RI-MP2 NMR, DLPNO-MP2 response, X2C
   Van Anh Tran           : RI-MP2 g-tensors
   Willem Van den Heuvel  : Paramagnetic NMR
   Zikuan Wang            : NOTCH, Electric field optimization 
   Frank Wennmohs         : Technical directorship and infrastructure
   Hang Xu                : AUTO-CI-Response properties 


 We gratefully acknowledge several colleagues who have allowed us to
 interface, adapt or use parts of their codes:
   Stefan Grimme, W. Hujo, H. Kruse, P. Pracht,  : VdW corrections, initial TS optimization,
                  C. Bannwarth, S. Ehlert,         DFT functionals, gCP, sTDA/sTD-DF
                  L. Wittmann, M. Mueller
   Ed Valeev, F. Pavosevic, A. Kumar             : LibInt (2-el integral package), F12 methods
   Garnet Chan, S. Sharma, J. Yang, R. Olivares  : DMRG
   Ulf Ekstrom                                   : XCFun DFT Library
   Mihaly Kallay                                 : mrcc  (arbitrary order and MRCC methods)
   Frank Weinhold                                : gennbo (NPA and NBO analysis)
   Simon Mueller                                 : openCOSMO-RS
   Christopher J. Cramer and Donald G. Truhlar   : smd solvation model
   Lars Goerigk                                  : TD-DFT with DH, B97 family of functionals
   V. Asgeirsson, H. Jonsson                     : NEB implementation
   FAccTs GmbH                                   : IRC, NEB, NEB-TS, DLPNO-Multilevel, CI-OPT
                                                   MM, QMMM, 2- and 3-layer-ONIOM, Crystal-QMMM,
                                                   LR-CPCM, SF, NACMEs, symmetry and pop. for TD-DFT,
                                                   nearIR, NL-DFT gradient (VV10), updates on ESD,
                                                   ML-optimized integration grids, MBIS, APM,
                                                   GOAT, DOCKER, SOLVATOR, interface openCOSMO-RS
   S Lehtola, MJT Oliveira, MAL Marques          : LibXC Library
   Liviu Ungur et al                             : ANISO software


 Your calculation uses the libint2 library for the computation of 2-el integrals
 For citations please refer to: http://libint.valeyev.net

 Your ORCA version has been built with support for libXC version: 6.2.2
 For citations please refer to: https://libxc.gitlab.io

 This ORCA versions uses:
   CBLAS   interface :  Fast vector & matrix operations
   LAPACKE interface :  Fast linear algebra routines
   Shared memory     :  Shared parallel matrices


Your calculation utilizes the atom-pairwise dispersion correction
with the Becke-Johnson damping scheme (D3BJ)


Warning: RI is on but no J-basis has been assigned. Assigning Def2/J (nothing to worry about!)
================================================================================

----- Orbital basis set information -----
Your calculation utilizes the basis: def2-SVP
   F. Weigend and R. Ahlrichs, Phys. Chem. Chem. Phys. 7, 3297 (2005).

----- AuxJ basis set information -----
Your calculation utilizes the auxiliary basis: def2/J
   F. Weigend, Phys. Chem. Chem. Phys. 8, 1057 (2006).

================================================================================
                                        WARNINGS
                       Please study these warnings very carefully!
================================================================================


WARNING: Geometry Optimization
  ===> : Switching off AutoStart
         For restart on a previous wavefunction, please use MOREAD

================================================================================
                                       INPUT FILE
================================================================================
NAME = data/geom_opt/119411/119411.inp
|  1> ! RIJONX B3LYP def2-SVP D3BJ TIGHTSCF Opt
|  2> %pal
|  3> nprocs 6
|  4> end
|  5> 
|  6> * xyz 0 1
|  7> C     -2.095146   -1.696748    0.738402
|  8> C     -0.758087   -1.447327    0.047849
|  9> P      0.106602    0.061776    0.702668
| 10> C     -0.879363    1.386367   -0.150092
| 11> C     -0.374019    2.788154    0.176131
| 12> C     -1.230774    3.830414   -0.487017
| 13> O     -2.192249    3.647029   -1.213328
| 14> O     -0.819309    5.080334   -0.196700
| 15> C      1.620808    0.051317   -0.374801
| 16> C      2.642561   -0.990924    0.068546
| 17> C      3.873473   -0.929257   -0.792357
| 18> O      4.078886   -0.190846   -1.740063
| 19> O      4.803051   -1.825762   -0.407587
| 20> C     -2.735063   -2.954683    0.220519
| 21> O     -2.309377   -3.701161   -0.643861
| 22> O     -3.908820   -3.211155    0.830769
| 23> H     -2.787476   -0.867645    0.556940
| 24> H     -1.951742   -1.807526    1.819574
| 25> H     -0.105411   -2.313006    0.208106
| 26> H     -0.899345   -1.353484   -1.035222
| 27> H     -0.867335    1.218626   -1.233384
| 28> H     -1.923065    1.298027    0.172322
| 29> H      0.653995    2.923155   -0.176886
| 30> H     -0.402053    2.961993    1.258149
| 31> H     -1.444492    5.659396   -0.681193
| 32> H      1.332188   -0.116930   -1.418924
| 33> H      2.080527    1.045143   -0.329680
| 34> H      2.227063   -2.001279   -0.010209
| 35> H      2.943935   -0.812481    1.107344
| 36> H      5.543150   -1.691664   -1.036214
| 37> H     -4.223115   -4.039854    0.411989
| 38> **                         ****END OF INPUT****
================================================================================

                       *****************************
                       * Geometry Optimization Run *
                       *****************************

Geometry optimization settings:
Update method            Update   .... BFGS
Choice of coordinates    CoordSys .... (2022) Redundant Internals
Initial Hessian          InHess   .... Almloef's Model
Max. no of cycles        MaxIter  .... 93

Convergence Tolerances:
Energy Change            TolE     ....  5.0000e-06 Eh
Max. Gradient            TolMAXG  ....  3.0000e-04 Eh/bohr
RMS Gradient             TolRMSG  ....  1.0000e-04 Eh/bohr
Max. Displacement        TolMAXD  ....  4.0000e-03 bohr
RMS Displacement         TolRMSD  ....  2.0000e-03 bohr
Strict Convergence                .... False

------------------------------------------------------------------------------
                        ORCA OPTIMIZATION COORDINATE SETUP
------------------------------------------------------------------------------

The optimization will be done in redundant internal coordinates (2022)
Making redundant internal coordinates   ...  (2022 redundants) done
Evaluating the initial hessian          ...  (Almloef) done
Evaluating the coordinates              ...  done
Calculating the B-matrix                .... done
Calculating the G-matrix                .... done
Diagonalizing the G-matrix              .... done
Small eigenvalue found = 5.562e-03
Small eigenvalue found = 5.836e-03
Small eigenvalue found = 9.954e-03
The first mode is                       ....   48
The number of degrees of freedom        ....   87

    -----------------------------------------------------------------
                    Redundant Internal Coordinates


    -----------------------------------------------------------------
         Definition                    Initial Value    Approx d2E/dq
    -----------------------------------------------------------------
      1. B(C   1,C   0)                  1.5254         0.379961   
      2. B(P   2,C   1)                  1.8585         0.375697   
      3. B(C   3,P   2)                  1.8585         0.375696   
      4. B(C   4,C   3)                  1.5254         0.379962   
      5. B(C   5,C   4)                  1.5034         0.411979   
      6. B(O   6,C   5)                  1.2188         1.049389   
      7. B(O   7,C   5)                  1.3475         0.654039   
      8. B(C   8,P   2)                  1.8585         0.375696   
      9. B(C   9,C   8)                  1.5254         0.379961   
     10. B(C  10,C   9)                  1.5034         0.411979   
     11. B(O  11,C  10)                  1.2188         1.049389   
     12. B(O  12,C  10)                  1.3475         0.654042   
     13. B(C  13,C   0)                  1.5034         0.411981   
     14. B(O  14,C  13)                  1.2188         1.049391   
     15. B(O  15,C  13)                  1.3475         0.654038   
     16. B(H  16,C   0)                  1.0953         0.353169   
     17. B(H  17,C   0)                  1.0963         0.351923   
     18. B(H  18,C   1)                  1.0959         0.352337   
     19. B(H  19,C   1)                  1.0963         0.351903   
     20. B(H  20,C   3)                  1.0963         0.351903   
     21. B(H  21,C   3)                  1.0959         0.352337   
     22. B(H  22,C   4)                  1.0953         0.353170   
     23. B(H  23,C   4)                  1.0963         0.351923   
     24. B(H  24,O   7)                  0.9803         0.482671   
     25. B(H  25,C   8)                  1.0963         0.351904   
     26. B(H  26,C   8)                  1.0959         0.352337   
     27. B(H  27,C   9)                  1.0953         0.353171   
     28. B(H  28,C   9)                  1.0963         0.351923   
     29. B(H  29,O  12)                  0.9803         0.482670   
     30. B(H  30,O  15)                  0.9803         0.482671   
     31. A(C   1,C   0,H  17)          110.3858         0.323999   
     32. A(C  13,C   0,H  17)          108.1117         0.328342   
     33. A(C  13,C   0,H  16)          107.8945         0.328533   
     34. A(C   1,C   0,H  16)          110.8106         0.324187   
     35. A(H  16,C   0,H  17)          108.8187         0.288912   
     36. A(C   1,C   0,C  13)          110.7306         0.370574   
     37. A(H  18,C   1,H  19)          106.7876         0.288802   
     38. A(C   0,C   1,H  18)          109.0661         0.324061   
     39. A(C   0,C   1,P   2)          112.4016         0.388189   
     40. A(P   2,C   1,H  18)          108.2282         0.343382   
     41. A(C   0,C   1,H  19)          110.3840         0.323996   
     42. A(P   2,C   1,H  19)          109.7883         0.343311   
     43. A(C   1,P   2,C   8)           99.8018         0.412780   
     44. A(C   1,P   2,C   3)           99.8018         0.412780   
     45. A(C   3,P   2,C   8)           99.8018         0.412780   
     46. A(C   4,C   3,H  20)          110.3839         0.323996   
     47. A(P   2,C   3,H  20)          109.7882         0.343311   
     48. A(P   2,C   3,C   4)          112.4015         0.388189   
     49. A(H  20,C   3,H  21)          106.7876         0.288802   
     50. A(C   4,C   3,H  21)          109.0662         0.324061   
     51. A(P   2,C   3,H  21)          108.2282         0.343382   
     52. A(C   5,C   4,H  22)          107.8945         0.328533   
     53. A(H  22,C   4,H  23)          108.8188         0.288912   
     54. A(C   5,C   4,H  23)          108.1117         0.328341   
     55. A(C   3,C   4,H  23)          110.3859         0.323999   
     56. A(C   3,C   4,H  22)          110.8106         0.324187   
     57. A(C   3,C   4,C   5)          110.7306         0.370574   
     58. A(O   6,C   5,O   7)          120.5842         0.475997   
     59. A(C   4,C   5,O   7)          111.9633         0.404783   
     60. A(C   4,C   5,O   6)          127.4522         0.440450   
     61. A(C   5,O   7,H  24)          104.2827         0.368786   
     62. A(H  25,C   8,H  26)          106.7876         0.288802   
     63. A(C   9,C   8,H  26)          109.0661         0.324061   
     64. A(P   2,C   8,H  26)          108.2282         0.343382   
     65. A(C   9,C   8,H  25)          110.3839         0.323996   
     66. A(P   2,C   8,H  25)          109.7882         0.343311   
     67. A(P   2,C   8,C   9)          112.4015         0.388188   
     68. A(H  27,C   9,H  28)          108.8188         0.288912   
     69. A(C  10,C   9,H  28)          108.1117         0.328341   
     70. A(C   8,C   9,H  28)          110.3858         0.323998   
     71. A(C  10,C   9,H  27)          107.8944         0.328533   
     72. A(C   8,C   9,H  27)          110.8107         0.324187   
     73. A(C   8,C   9,C  10)          110.7306         0.370574   
     74. A(O  11,C  10,O  12)          120.5843         0.475997   
     75. A(C   9,C  10,O  12)          111.9633         0.404783   
     76. A(C   9,C  10,O  11)          127.4522         0.440450   
     77. A(C  10,O  12,H  29)          104.2826         0.368786   
     78. A(O  14,C  13,O  15)          120.5842         0.475997   
     79. A(C   0,C  13,O  15)          111.9633         0.404783   
     80. A(C   0,C  13,O  14)          127.4523         0.440450   
     81. A(C  13,O  15,H  30)          104.2826         0.368785   
     82. D(P   2,C   1,C   0,H  16)     62.6086         0.011506   
     83. D(H  18,C   1,C   0,H  17)     62.0143         0.011506   
     84. D(H  18,C   1,C   0,C  13)    -57.6719         0.011506   
     85. D(P   2,C   1,C   0,H  17)    -58.0146         0.011506   
     86. D(P   2,C   1,C   0,C  13)   -177.7008         0.011506   
     87. D(H  18,C   1,C   0,H  16)   -177.3626         0.011506   
     88. D(C   3,P   2,C   1,C   0)    -76.9549         0.003404   
     89. D(C   8,P   2,C   1,H  18)     60.6925         0.003404   
     90. D(C   8,P   2,C   1,C   0)   -178.7942         0.003404   
     91. D(C   3,P   2,C   1,H  18)    162.5318         0.003404   
     92. D(C   3,P   2,C   1,H  19)     46.3222         0.003404   
     93. D(H  20,C   3,P   2,C   1)    -55.5171         0.003404   
     94. D(H  20,C   3,P   2,C   8)     46.3222         0.003404   
     95. D(C   4,C   3,P   2,C   1)   -178.7942         0.003404   
     96. D(C   4,C   3,P   2,C   8)    -76.9549         0.003404   
     97. D(H  21,C   3,P   2,C   1)     60.6924         0.003404   
     98. D(H  22,C   4,C   3,H  21)   -177.3625         0.011506   
     99. D(H  22,C   4,C   3,H  20)    -60.3344         0.011506   
    100. D(H  22,C   4,C   3,P   2)     62.6086         0.011506   
    101. D(C   5,C   4,C   3,H  21)    -57.6719         0.011506   
    102. D(C   5,C   4,C   3,H  20)     59.3562         0.011506   
    103. D(C   5,C   4,C   3,P   2)   -177.7008         0.011506   
    104. D(O   7,C   5,C   4,C   3)    178.9588         0.012566   
    105. D(O   6,C   5,C   4,H  23)   -122.2663         0.012566   
    106. D(O   6,C   5,C   4,H  22)    120.2011         0.012566   
    107. D(O   7,C   5,C   4,H  22)    -59.6156         0.012566   
    108. D(O   6,C   5,C   4,C   3)     -1.2245         0.012566   
    109. D(H  24,O   7,C   5,O   6)      0.0002         0.031646   
    110. D(H  24,O   7,C   5,C   4)    179.8311         0.031646   
    111. D(C   9,C   8,P   2,C   3)   -178.7942         0.003404   
    112. D(C   9,C   8,P   2,C   1)    -76.9549         0.003404   
    113. D(H  26,C   8,P   2,C   1)    162.5318         0.003404   
    114. D(H  25,C   8,P   2,C   3)    -55.5172         0.003404   
    115. D(H  25,C   8,P   2,C   1)     46.3222         0.003404   
    116. D(H  27,C   9,C   8,H  26)   -177.3625         0.011506   
    117. D(H  27,C   9,C   8,H  25)    -60.3344         0.011506   
    118. D(H  27,C   9,C   8,P   2)     62.6086         0.011506   
    119. D(C  10,C   9,C   8,H  26)    -57.6719         0.011506   
    120. D(C  10,C   9,C   8,H  25)     59.3562         0.011506   
    121. D(C  10,C   9,C   8,P   2)   -177.7008         0.011506   
    122. D(O  12,C  10,C   9,H  27)    -59.6154         0.012566   
    123. D(O  12,C  10,C   9,C   8)    178.9589         0.012566   
    124. D(O  11,C  10,C   9,H  28)   -122.2661         0.012566   
    125. D(O  11,C  10,C   9,H  27)    120.2013         0.012566   
    126. D(O  11,C  10,C   9,C   8)     -1.2244         0.012566   
    127. D(H  29,O  12,C  10,O  11)      0.0002         0.031647   
    128. D(H  29,O  12,C  10,C   9)    179.8311         0.031647   
    129. D(O  15,C  13,C   0,H  16)    -59.6154         0.012566   
    130. D(O  15,C  13,C   0,C   1)    178.9589         0.012566   
    131. D(O  14,C  13,C   0,H  17)   -122.2661         0.012566   
    132. D(O  14,C  13,C   0,H  16)    120.2013         0.012566   
    133. D(O  14,C  13,C   0,C   1)     -1.2244         0.012566   
    134. D(H  30,O  15,C  13,O  14)      0.0001         0.031646   
    135. D(H  30,O  15,C  13,C   0)    179.8310         0.031646   
    -----------------------------------------------------------------

Number of atoms                         .... 31
Number of degrees of freedom            .... 135


         *************************************************************
         *                GEOMETRY OPTIMIZATION CYCLE   1            *
         *************************************************************
---------------------------------
CARTESIAN COORDINATES (ANGSTROEM)
---------------------------------
  C     -2.095146   -1.696748    0.738402
  C     -0.758087   -1.447327    0.047849
  P      0.106602    0.061776    0.702668
  C     -0.879363    1.386367   -0.150092
  C     -0.374019    2.788154    0.176131
  C     -1.230774    3.830414   -0.487017
  O     -2.192249    3.647029   -1.213328
  O     -0.819309    5.080334   -0.196700
  C      1.620808    0.051317   -0.374801
  C      2.642561   -0.990924    0.068546
  C      3.873473   -0.929257   -0.792357
  O      4.078886   -0.190846   -1.740063
  O      4.803051   -1.825762   -0.407587
  C     -2.735063   -2.954683    0.220519
  O     -2.309377   -3.701161   -0.643861
  O     -3.908820   -3.211155    0.830769
  H     -2.787476   -0.867645    0.556940
  H     -1.951742   -1.807526    1.819574
  H     -0.105411   -2.313006    0.208106
  H     -0.899345   -1.353484   -1.035222
  H     -0.867335    1.218626   -1.233384
  H     -1.923065    1.298027    0.172322
  H      0.653995    2.923155   -0.176886
  H     -0.402053    2.961993    1.258149
  H     -1.444492    5.659396   -0.681193
  H      1.332188   -0.116930   -1.418924
  H      2.080527    1.045143   -0.329680
  H      2.227063   -2.001279   -0.010209
  H      2.943935   -0.812481    1.107344
  H      5.543150   -1.691664   -1.036214
  H     -4.223115   -4.039854    0.411989

----------------------------
CARTESIAN COORDINATES (A.U.)
----------------------------
  NO LB      ZA    FRAG     MASS         X           Y           Z
   0 C     6.0000    0    12.011   -3.959252   -3.206389    1.395378
   1 C     6.0000    0    12.011   -1.432577   -2.735052    0.090422
   2 P    15.0000    0    30.974    0.201449    0.116740    1.327850
   3 C     6.0000    0    12.011   -1.661755    2.619854   -0.283633
   4 C     6.0000    0    12.011   -0.706793    5.268847    0.332839
   5 C     6.0000    0    12.011   -2.325826    7.238433   -0.920329
   6 O     8.0000    0    15.999   -4.142750    6.891886   -2.292858
   7 O     8.0000    0    15.999   -1.548270    9.600440   -0.371709
   8 C     6.0000    0    12.011    3.062883    0.096975   -0.708271
   9 C     6.0000    0    12.011    4.993717   -1.872575    0.129533
  10 C     6.0000    0    12.011    7.319803   -1.756041   -1.497338
  11 O     8.0000    0    15.999    7.707977   -0.360647   -3.288243
  12 O     8.0000    0    15.999    9.076451   -3.450190   -0.770228
  13 C     6.0000    0    12.011   -5.168520   -5.583542    0.416721
  14 O     8.0000    0    15.999   -4.364090   -6.994181   -1.216721
  15 O     8.0000    0    15.999   -7.386599   -6.068204    1.569926
  16 H     1.0000    0     1.008   -5.267566   -1.639611    1.052464
  17 H     1.0000    0     1.008   -3.688258   -3.415729    3.438497
  18 H     1.0000    0     1.008   -0.199198   -4.370948    0.393263
  19 H     1.0000    0     1.008   -1.699516   -2.557714   -1.956286
  20 H     1.0000    0     1.008   -1.639026    2.302869   -2.330758
  21 H     1.0000    0     1.008   -3.634066    2.452916    0.325641
  22 H     1.0000    0     1.008    1.235871    5.523962   -0.334266
  23 H     1.0000    0     1.008   -0.759770    5.597356    2.377557
  24 H     1.0000    0     1.008   -2.729694   10.694709   -1.287268
  25 H     1.0000    0     1.008    2.517470   -0.220966   -2.681378
  26 H     1.0000    0     1.008    3.931626    1.975034   -0.623005
  27 H     1.0000    0     1.008    4.208539   -3.781869   -0.019292
  28 H     1.0000    0     1.008    5.563231   -1.535367    2.092577
  29 H     1.0000    0     1.008   10.475035   -3.196782   -1.958161
  30 H     1.0000    0     1.008   -7.980531   -7.634218    0.778546

--------------------------------
INTERNAL COORDINATES (ANGSTROEM)
--------------------------------
 C      0   0   0     0.000000000000     0.00000000     0.00000000
 C      1   0   0     1.525385541603     0.00000000     0.00000000
 P      2   1   0     1.858458192721   112.40156946     0.00000000
 C      3   2   1     1.858458478446    99.80179581   283.04511079
 C      4   3   2     1.525385458641   112.40152465   181.20580265
 C      5   4   3     1.503362999255   110.73058595   182.29923109
 O      6   5   4     1.218848597067   127.45224737   358.77545185
 O      6   5   4     1.347548668180   111.96325476   178.95878222
 C      3   2   1     1.858458675106    99.80177252   181.20580373
 C      9   3   2     1.525385871673   112.40150814   283.04512397
 C     10   9   3     1.503363278134   110.73060279   182.29920326
 O     11  10   9     1.218848623877   127.45217941   358.77564815
 O     11  10   9     1.347547559832   111.96328500   178.95893845
 C      1   2   3     1.503361910121   110.73060424   182.29920665
 O     14   1   2     1.218848128144   127.45227446   358.77564674
 O     14   1   2     1.347549050808   111.96327341   178.95892008
 H      1   2   3     1.095290404848   110.81063049    62.60857205
 H      1   2   3     1.096252418964   110.38583493   301.98543385
 H      2   1   3     1.095932661283   109.06609778   120.02886899
 H      2   1   3     1.096267815022   110.38395481   237.05689733
 H      4   3   2     1.096267883835   109.78824683   304.48286791
 H      4   3   2     1.095932756970   108.22815676    60.69243542
 H      5   4   3     1.095289485244   110.81064479    62.60861412
 H      5   4   3     1.096252186042   110.38585069   301.98538240
 H      8   6   5     0.980255094545   104.28265385   179.83114476
 H      9   3   2     1.096267027935   109.78823218    46.32216152
 H      9   3   2     1.095932288911   108.22818807   162.53178146
 H     10   9   3     1.095289077848   110.81065417    62.60860400
 H     10   9   3     1.096252469520   110.38582334   301.98538434
 H     13  11  10     0.980255430250   104.28264797   179.83113951
 H     16  14   1     0.980255103545   104.28264302   179.83104965

---------------------------
INTERNAL COORDINATES (A.U.)
---------------------------
 C      0   0   0     0.000000000000     0.00000000     0.00000000
 C      1   0   0     2.882560922273     0.00000000     0.00000000
 P      2   1   0     3.511977015585   112.40156946     0.00000000
 C      3   2   1     3.511977555526    99.80179581   283.04511079
 C      4   3   2     2.882560765498   112.40152465   181.20580265
 C      5   4   3     2.840944348462   110.73058595   182.29923109
 O      6   5   4     2.303290047170   127.45224737   358.77545185
 O      6   5   4     2.546497934991   111.96325476   178.95878222
 C      3   2   1     3.511977927161    99.80177252   181.20580373
 C      9   3   2     2.882561546014   112.40150814   283.04512397
 C     10   9   3     2.840944875467   110.73060279   182.29920326
 O     11  10   9     2.303290097834   127.45217941   358.77564815
 O     11  10   9     2.546495840516   111.96328500   178.95893845
 C      1   2   3     2.840942290298   110.73060424   182.29920665
 O     14   1   2     2.303289161035   127.45227446   358.77564674
 O     14   1   2     2.546498658052   111.96327341   178.95892008
 H      1   2   3     2.069798902275   110.81063049    62.60857205
 H      1   2   3     2.071616845490   110.38583493   301.98543385
 H      2   1   3     2.071012591044   109.06609778   120.02886899
 H      2   1   3     2.071645939825   110.38395481   237.05689733
 H      4   3   2     2.071646069862   109.78824683   304.48286791
 H      4   3   2     2.071012771867   108.22815676    60.69243542
 H      5   4   3     2.069797164475   110.81064479    62.60861412
 H      5   4   3     2.071616405331   110.38585069   301.98538240
 H      8   6   5     1.852413670072   104.28265385   179.83114476
 H      9   3   2     2.071644452445   109.78823218    46.32216152
 H      9   3   2     2.071011887364   108.22818807   162.53178146
 H     10   9   3     2.069796394609   110.81065417    62.60860400
 H     10   9   3     2.071616941028   110.38582334   301.98538434
 H     13  11  10     1.852414304461   104.28264797   179.83113951
 H     16  14   1     1.852413687079   104.28264302   179.83104965

---------------------
BASIS SET INFORMATION
---------------------
There are 4 groups of distinct atoms

 Group   1 Type C   : 7s4p1d contracted to 3s2p1d pattern {511/31/1}
 Group   2 Type P   : 10s7p1d contracted to 4s3p1d pattern {5311/511/1}
 Group   3 Type O   : 7s4p1d contracted to 3s2p1d pattern {511/31/1}
 Group   4 Type H   : 4s1p contracted to 2s1p pattern {31/1}

Atom   0C    basis set group =>   1
Atom   1C    basis set group =>   1
Atom   2P    basis set group =>   2
Atom   3C    basis set group =>   1
Atom   4C    basis set group =>   1
Atom   5C    basis set group =>   1
Atom   6O    basis set group =>   3
Atom   7O    basis set group =>   3
Atom   8C    basis set group =>   1
Atom   9C    basis set group =>   1
Atom  10C    basis set group =>   1
Atom  11O    basis set group =>   3
Atom  12O    basis set group =>   3
Atom  13C    basis set group =>   1
Atom  14O    basis set group =>   3
Atom  15O    basis set group =>   3
Atom  16H    basis set group =>   4
Atom  17H    basis set group =>   4
Atom  18H    basis set group =>   4
Atom  19H    basis set group =>   4
Atom  20H    basis set group =>   4
Atom  21H    basis set group =>   4
Atom  22H    basis set group =>   4
Atom  23H    basis set group =>   4
Atom  24H    basis set group =>   4
Atom  25H    basis set group =>   4
Atom  26H    basis set group =>   4
Atom  27H    basis set group =>   4
Atom  28H    basis set group =>   4
Atom  29H    basis set group =>   4
Atom  30H    basis set group =>   4
---------------------------------
AUXILIARY/J BASIS SET INFORMATION
---------------------------------
There are 4 groups of distinct atoms

 Group   1 Type C   : 12s5p4d2f1g contracted to 6s4p3d1f1g pattern {711111/2111/211/2/1}
 Group   2 Type P   : 14s5p5d2f1g contracted to 8s4p3d1f1g pattern {71111111/2111/311/2/1}
 Group   3 Type O   : 12s5p4d2f1g contracted to 6s4p3d1f1g pattern {711111/2111/211/2/1}
 Group   4 Type H   : 5s2p1d contracted to 3s1p1d pattern {311/2/1}

Atom   0C    basis set group =>   1
Atom   1C    basis set group =>   1
Atom   2P    basis set group =>   2
Atom   3C    basis set group =>   1
Atom   4C    basis set group =>   1
Atom   5C    basis set group =>   1
Atom   6O    basis set group =>   3
Atom   7O    basis set group =>   3
Atom   8C    basis set group =>   1
Atom   9C    basis set group =>   1
Atom  10C    basis set group =>   1
Atom  11O    basis set group =>   3
Atom  12O    basis set group =>   3
Atom  13C    basis set group =>   1
Atom  14O    basis set group =>   3
Atom  15O    basis set group =>   3
Atom  16H    basis set group =>   4
Atom  17H    basis set group =>   4
Atom  18H    basis set group =>   4
Atom  19H    basis set group =>   4
Atom  20H    basis set group =>   4
Atom  21H    basis set group =>   4
Atom  22H    basis set group =>   4
Atom  23H    basis set group =>   4
Atom  24H    basis set group =>   4
Atom  25H    basis set group =>   4
Atom  26H    basis set group =>   4
Atom  27H    basis set group =>   4
Atom  28H    basis set group =>   4
Atom  29H    basis set group =>   4
Atom  30H    basis set group =>   4


           ************************************************************
           *        Program running with 6 parallel MPI-processes     *
           *              working on a common directory               *
           ************************************************************
------------------------------------------------------------------------------
                             ORCA STARTUP CALCULATIONS
                           -- RI-GTO INTEGRALS CHOSEN --
------------------------------------------------------------------------------
------------------------------------------------------------------------------
                   ___                                                        
                  /   \      - P O W E R E D   B Y -                         
                 /     \                                                     
                 |  |  |   _    _      __       _____    __    __             
                 |  |  |  | |  | |    /  \     |  _  \  |  |  /  |          
                  \  \/   | |  | |   /    \    | | | |  |  | /  /          
                 / \  \   | |__| |  /  /\  \   | |_| |  |  |/  /          
                |  |  |   |  __  | /  /__\  \  |    /   |      \           
                |  |  |   | |  | | |   __   |  |    \   |  |\   \          
                \     /   | |  | | |  |  |  |  | |\  \  |  | \   \       
                 \___/    |_|  |_| |__|  |__|  |_| \__\ |__|  \__/        
                                                                              
                      - O R C A' S   B I G   F R I E N D -                    
                                      &                                       
                       - I N T E G R A L  F E E D E R -                       
                                                                              
 v1 FN, 2020, v2 2021, v3 2022-2024                                           
------------------------------------------------------------------------------


----------------------
SHARK INTEGRAL PACKAGE
----------------------

Number of atoms                             ...     31
Number of basis functions                   ...    303
Number of shells                            ...    143
Maximum angular momentum                    ...      2
Integral batch strategy                     ... SHARK/LIBINT Hybrid
RI-J (if used) integral strategy            ... SPLIT-RIJ (Revised 2003 algorithm where possible)
Printlevel                                  ...      1
Contraction scheme used                     ... SEGMENTED contraction
Prescreening option                         ... SCHWARTZ
   Thresh                                   ... 2.500e-11
   Tcut                                     ... 2.500e-12
   Tpresel                                  ... 2.500e-12 
Coulomb Range Separation                    ... NOT USED
Exchange Range Separation                   ... NOT USED
Multipole approximations                    ... NOT USED
Finite Nucleus Model                        ... NOT USED
CABS basis                                  ... NOT available
Auxiliary Coulomb fitting basis             ... AVAILABLE
   # of basis functions in Aux-J            ...    951
   # of shells in Aux-J                     ...    317
   Maximum angular momentum in Aux-J        ...      4
Auxiliary J/K fitting basis                 ... NOT available
Auxiliary Correlation fitting basis         ... NOT available
Auxiliary 'external' fitting basis          ... NOT available

Checking pre-screening integrals            ... done (  0.0 sec) Dimension = 143
Check shell pair data                       ... done (  0.0 sec)
Shell pair information
Shell pair cut-off parameter TPreSel        ...   2.5e-12
Total number of shell pairs                 ...     10296
Shell pairs after pre-screening             ...      7470
Total number of primitive shell pairs       ...     37664
Primitive shell pairs kept                  ...     18044
          la=0 lb=0:   2401 shell pairs
          la=1 lb=0:   2829 shell pairs
          la=1 lb=1:    861 shell pairs
          la=2 lb=0:    832 shell pairs
          la=2 lb=1:    472 shell pairs
          la=2 lb=2:     75 shell pairs

Calculating one electron integrals          ... done (  0.0 sec)
Calculating RI/J V-Matrix + Cholesky decomp.... done (  0.0 sec)
Calculating Nuclear repulsion               ... done (  0.0 sec) ENN=   1200.088594383785 Eh

Diagonalization of the overlap matrix:
Smallest eigenvalue                        ... 1.071e-03
Time for diagonalization                   ...    0.011 sec
Threshold for overlap eigenvalues          ... 1.000e-07
Number of eigenvalues below threshold      ... 0
Time for construction of square roots      ...    0.008 sec
Total time needed                          ...    0.019 sec

-------------------
DFT GRID GENERATION
-------------------

General Integration Accuracy     IntAcc      ... 4.388
Radial Grid Type                 RadialGrid  ... OptM3 with GC (2021)
Angular Grid (max. ang.)         AngularGrid ... 4 (Lebedev-302)
Angular grid pruning method      GridPruning ... 4 (adaptive)
Weight generation scheme         WeightScheme... mBecke (2022)
Basis function cutoff            BFCut       ... 1.0000e-11
Integration weight cutoff        WCut        ... 1.0000e-14
Partially contracted basis set               ... off
Rotationally invariant grid construction     ... off
Angular grids for H and He will be reduced by one unit

Total number of grid points                  ...   145477
Total number of batches                      ...     2291
Average number of points per batch           ...       63
Average number of grid points per atom       ...     4693
Initializing property integral containers    ... done (  0.0 sec)

SHARK setup successfully completed in   0.9 seconds

Maximum memory used throughout the entire STARTUP-calculation: 38.0 MB


           ************************************************************
           *        Program running with 6 parallel MPI-processes     *
           *              working on a common directory               *
           ************************************************************
-------------------------------------------------------------------------------
                                 ORCA GUESS
                   Start orbitals & Density for SCF / CASSCF
-------------------------------------------------------------------------------

------------
SCF SETTINGS
------------
Hamiltonian:
 Density Functional     Method          .... DFT(GTOs)
 Exchange Functional    Exchange        .... B88
   X-Alpha parameter    XAlpha          ....  0.666667
   Becke's b parameter  XBeta           ....  0.004200
 Correlation Functional Correlation     .... LYP
 LDA part of GGA corr.  LDAOpt          .... VWN-5
 Gradients option       PostSCFGGA      .... off
 Hybrid DFT is turned on
   Fraction HF Exchange ScalHFX         ....  0.200000
   Scaling of DF-GGA-X  ScalDFX         ....  0.720000
   Scaling of DF-GGA-C  ScalDFC         ....  0.810000
   Scaling of DF-LDA-C  ScalLDAC        ....  1.000000
   Perturbative correction              ....  0.000000
   NL short-range parameter             ....  4.800000
 RI-approximation to the Coulomb term is turned on
   Number of AuxJ basis functions       .... 951
   RIJ-ON(X) (HFX calculated with O(N)) .... on


General Settings:
 Integral files         IntName         .... data/geom_opt/119411/119411
 Hartree-Fock type      HFTyp           .... RHF
 Total Charge           Charge          ....    0
 Multiplicity           Mult            ....    1
 Number of Electrons    NEL             ....  132
 Basis Dimension        Dim             ....  303
 Nuclear Repulsion      ENuc            ....   1200.0885943838 Eh

Convergence Acceleration:
 AO-DIIS                CNVDIIS         .... on
   Start iteration      DIISMaxIt       ....    12
   Startup error        DIISStart       ....  0.200000
   # of expansion vecs  DIISMaxEq       ....     5
   Bias factor          DIISBfac        ....   1.050
   Max. coefficient     DIISMaxC        ....  10.000
 MO-DIIS                CNVKDIIS        .... off
 Trust-Rad. Augm. Hess. CNVTRAH         .... auto
   Auto Start mean grad. ratio tolernc. ....  1.125000
   Auto Start start iteration           ....    50
   Auto Start num. interpolation iter.  ....    10
   Max. Number of Micro iterations      ....    24
   Max. Number of Macro iterations      .... Maxiter - #DIIS iter
   Number of Davidson start vectors     ....     2
   Converg. threshold    (grad. norm)   ....   1.000e-05
   Grad. Scal. Fac. for Micro threshold ....   0.100
   Minimum threshold for Micro iter.    ....   1.000e-02
   NR start threshold (gradient norm)   ....   1.000e-04
   Initial trust radius                 ....   0.400
   Minimum AH scaling param. (alpha)    ....   1.000
   Maximum AH scaling param. (alpha)    .... 1000.000
   Quad. conv. algorithm                .... NR
   White noise on init. David. guess    .... on
   Maximum white noise                  ....   0.010
   Pseudo random numbers                .... off
   Inactive MOs                         .... canonical
   Orbital update algorithm             .... Taylor
   Preconditioner                       .... Diag
   Full preconditioner red. dimension   ....   250
   COSX micro iterations for RIJONX calc.... off
 SOSCF                  CNVSOSCF        .... on
   Start iteration      SOSCFMaxIt      ....   150
   Startup grad/error   SOSCFStart      ....  0.003300
   Hessian update       SOSCFHessUp     .... L-BFGS
 Level Shifting         CNVShift        .... on
   Level shift para.    LevelShift      ....    0.2500
   Turn off err/grad.   ShiftErr        ....    0.0010
 Zerner damping         CNVZerner       .... off
 Static damping         CNVDamp         .... on
   Fraction old density DampFac         ....    0.7000
   Max. Damping (<1)    DampMax         ....    0.9800
   Min. Damping (>=0)   DampMin         ....    0.0000
   Turn off err/grad.   DampErr         ....    0.1000

SCF Procedure:
 Maximum # iterations   MaxIter         ....   125
 SCF integral mode      SCFMode         .... Direct
   Integral package                     .... SHARK and LIBINT hybrid scheme
 Reset frequency        DirectResetFreq ....    20
 Integral Threshold     Thresh          ....  2.500e-11 Eh
 Primitive CutOff       TCut            ....  2.500e-12 Eh

Convergence Tolerance:
 Convergence Check Mode ConvCheckMode   .... Total+1el-Energy
 Convergence forced     ConvForced      .... 0
 Energy Change          TolE            ....  1.000e-08 Eh
 1-El. energy change                    ....  1.000e-05 Eh
 Orbital Gradient       TolG            ....  1.000e-05
 Orbital Rotation angle TolX            ....  1.000e-05
 DIIS Error             TolErr          ....  5.000e-07

------------------------------
INITIAL GUESS: MODEL POTENTIAL
------------------------------
Loading Hartree-Fock densities                     ... done
Calculating cut-offs                               ... done
Initializing the effective Hamiltonian             ... done
Setting up the integral package (SHARK)            ... done
Starting the Coulomb interaction                   ... done (   0.1 sec)
Making the grid                                    ... done (   0.2 sec)
Mapping shells                                     ... done
Starting the XC term evaluation                    ... done (   0.1 sec)
  promolecular density results
     # of electrons  =    131.995842261
     EX              =   -122.587907555
     EC              =     -4.645021308
     EX+EC           =   -127.232928862
Transforming the Hamiltonian                       ... done (   0.0 sec)
Diagonalizing the Hamiltonian                      ... done (   0.0 sec)
Back transforming the eigenvectors                 ... done (   0.0 sec)
Now organizing SCF variables                       ... done
                      ------------------
                      INITIAL GUESS DONE (   0.4 sec)
                      ------------------
             **** ENERGY FILE WAS UPDATED (data/geom_opt/119411/119411.en.tmp) ****
Finished Guess after   0.5 sec
Maximum memory used throughout the entire GUESS-calculation: 20.9 MB


           ************************************************************
           *        Program running with 6 parallel MPI-processes     *
           *              working on a common directory               *
           ************************************************************

-------------------------------------------------------------------------------------------
                                      ORCA LEAN-SCF
                              memory conserving SCF solver
-------------------------------------------------------------------------------------------

----------------------------------------D-I-I-S--------------------------------------------
Iteration    Energy (Eh)           Delta-E    RMSDP     MaxDP     DIISErr   Damp  Time(sec)
-------------------------------------------------------------------------------------------
               ***  Starting incremental Fock matrix formation  ***
    1    -1142.9721124087418502     0.00e+00  3.58e-03  1.27e-01  2.64e-01  0.700   2.2
    2    -1143.2649710085415791    -2.93e-01  2.20e-03  7.83e-02  9.64e-02  0.700   2.0
                               ***Turning on AO-DIIS***
    3    -1143.3648835504363888    -9.99e-02  7.86e-04  3.36e-02  3.46e-02  0.700   2.0
    4    -1143.4281651256942496    -6.33e-02  1.31e-03  8.39e-02  1.42e-02  0.000   2.0
    5    -1143.5709439179918263    -1.43e-01  2.78e-04  8.52e-03  7.51e-03  0.000   1.9
                              *** Initializing SOSCF ***
---------------------------------------S-O-S-C-F--------------------------------------
Iteration    Energy (Eh)           Delta-E    RMSDP     MaxDP     MaxGrad    Time(sec)
--------------------------------------------------------------------------------------
    6    -1143.5718526210775963    -9.09e-04  8.29e-05  3.25e-03  1.39e-03     1.8
               *** Restarting incremental Fock matrix formation ***
    7    -1143.5719020781111794    -4.95e-05  5.52e-05  1.41e-03  3.37e-04     2.2
    8    -1143.5719054939877424    -3.42e-06  1.71e-05  6.72e-04  1.85e-04     1.6
    9    -1143.5719090197230798    -3.53e-06  9.30e-06  4.78e-04  7.46e-05     1.4
   10    -1143.5719088535347510     1.66e-07  4.30e-06  1.12e-04  1.30e-04     1.3
   11    -1143.5719091974642652    -3.44e-07  2.90e-06  2.30e-04  1.08e-05     1.2
   12    -1143.5719091964288054     1.04e-09  1.26e-06  8.69e-05  1.93e-05     1.2
                 **** Energy Check signals convergence ****

               *****************************************************
               *                     SUCCESS                       *
               *           SCF CONVERGED AFTER  12 CYCLES          *
               *****************************************************

             **** ENERGY FILE WAS UPDATED (data/geom_opt/119411/119411.en.tmp) ****

----------------
TOTAL SCF ENERGY
----------------

Total Energy       :      -1143.57190919642881 Eh          -31118.17367 eV

Components:
Nuclear Repulsion  :       1200.08859438378477 Eh           32656.07086 eV
Electronic Energy  :      -2343.66050358021312 Eh          -63774.24452 eV
One Electron Energy:      -3953.46749560003946 Eh         -107579.31978 eV
Two Electron Energy:       1609.80699201982611 Eh           43805.07526 eV

Virial components:
Potential Energy   :      -2279.57333472520122 Eh          -62030.34400 eV
Kinetic Energy     :       1136.00142552877242 Eh           30912.17033 eV
Virial Ratio       :          2.00666414979553

DFT components:
N(Alpha)           :       66.000029295619 electrons
N(Beta)            :       66.000029295619 electrons
N(Total)           :      132.000058591239 electrons
E(X)               :      -98.533392436790 Eh       
E(C)               :       -5.465366237485 Eh       
E(XC)              :     -103.998758674275 Eh       

---------------
SCF CONVERGENCE
---------------

  Last Energy change         ...   -1.0355e-09  Tolerance :   1.0000e-08
  Last MAX-Density change    ...    8.6946e-05  Tolerance :   1.0000e-07
  Last RMS-Density change    ...    1.2649e-06  Tolerance :   5.0000e-09
  Last DIIS Error            ...    1.3946e-03  Tolerance :   5.0000e-07
  Last Orbital Gradient      ...    1.9295e-05  Tolerance :   1.0000e-05
  Last Orbital Rotation      ...    9.7305e-06  Tolerance :   1.0000e-05


----------------
ORBITAL ENERGIES
----------------

  NO   OCC          E(Eh)            E(eV) 
   0   2.0000     -77.043583     -2096.4625 
   1   2.0000     -19.181836      -521.9643 
   2   2.0000     -19.181831      -521.9642 
   3   2.0000     -19.181829      -521.9641 
   4   2.0000     -19.125659      -520.4356 
   5   2.0000     -19.125652      -520.4355 
   6   2.0000     -19.125649      -520.4354 
   7   2.0000     -10.319082      -280.7965 
   8   2.0000     -10.319080      -280.7964 
   9   2.0000     -10.319079      -280.7964 
  10   2.0000     -10.210239      -277.8347 
  11   2.0000     -10.210235      -277.8346 
  12   2.0000     -10.210226      -277.8344 
  13   2.0000     -10.192769      -277.3593 
  14   2.0000     -10.192752      -277.3589 
  15   2.0000     -10.192696      -277.3574 
  16   2.0000      -6.541799      -178.0114 
  17   2.0000      -4.707128      -128.0875 
  18   2.0000      -4.707125      -128.0874 
  19   2.0000      -4.704105      -128.0052 
  20   2.0000      -1.098458       -29.8906 
  21   2.0000      -1.098455       -29.8905 
  22   2.0000      -1.098454       -29.8904 
  23   2.0000      -0.999720       -27.2038 
  24   2.0000      -0.999712       -27.2035 
  25   2.0000      -0.999711       -27.2035 
  26   2.0000      -0.811787       -22.0899 
  27   2.0000      -0.790262       -21.5041 
  28   2.0000      -0.790256       -21.5040 
  29   2.0000      -0.714250       -19.4357 
  30   2.0000      -0.666813       -18.1449 
  31   2.0000      -0.666808       -18.1448 
  32   2.0000      -0.598946       -16.2982 
  33   2.0000      -0.582671       -15.8553 
  34   2.0000      -0.582668       -15.8552 
  35   2.0000      -0.538250       -14.6465 
  36   2.0000      -0.502660       -13.6781 
  37   2.0000      -0.502658       -13.6780 
  38   2.0000      -0.492499       -13.4016 
  39   2.0000      -0.492496       -13.4015 
  40   2.0000      -0.492494       -13.4014 
  41   2.0000      -0.480641       -13.0789 
  42   2.0000      -0.480547       -13.0764 
  43   2.0000      -0.480547       -13.0763 
  44   2.0000      -0.475159       -12.9297 
  45   2.0000      -0.434174       -11.8145 
  46   2.0000      -0.429791       -11.6952 
  47   2.0000      -0.429789       -11.6951 
  48   2.0000      -0.408943       -11.1279 
  49   2.0000      -0.408943       -11.1279 
  50   2.0000      -0.397441       -10.8149 
  51   2.0000      -0.390566       -10.6279 
  52   2.0000      -0.388376       -10.5682 
  53   2.0000      -0.388372       -10.5681 
  54   2.0000      -0.377710       -10.2780 
  55   2.0000      -0.363767        -9.8986 
  56   2.0000      -0.363762        -9.8985 
  57   2.0000      -0.325005        -8.8438 
  58   2.0000      -0.325001        -8.8437 
  59   2.0000      -0.322329        -8.7710 
  60   2.0000      -0.321056        -8.7364 
  61   2.0000      -0.321054        -8.7363 
  62   2.0000      -0.282524        -7.6879 
  63   2.0000      -0.281977        -7.6730 
  64   2.0000      -0.281976        -7.6730 
  65   2.0000      -0.230162        -6.2630 
  66   0.0000       0.001183         0.0322 
  67   0.0000       0.001184         0.0322 
  68   0.0000       0.002541         0.0691 
  69   0.0000       0.043435         1.1819 
  70   0.0000       0.043446         1.1822 
  71   0.0000       0.050302         1.3688 
  72   0.0000       0.059741         1.6256 
  73   0.0000       0.060881         1.6567 
  74   0.0000       0.060883         1.6567 
  75   0.0000       0.078569         2.1380 
  76   0.0000       0.078575         2.1381 
*Only the first 10 virtual orbitals were printed.

                    ********************************
                    * MULLIKEN POPULATION ANALYSIS *
                    ********************************

-----------------------
MULLIKEN ATOMIC CHARGES
-----------------------
   0 C :    0.053764
   1 C :   -0.140306
   2 P :    0.147223
   3 C :   -0.140546
   4 C :    0.053844
   5 C :    0.112895
   6 O :   -0.234723
   7 O :   -0.180192
   8 C :   -0.140869
   9 C :    0.053930
  10 C :    0.112959
  11 O :   -0.234728
  12 O :   -0.180207
  13 C :    0.112952
  14 O :   -0.234733
  15 O :   -0.180193
  16 H :    0.042828
  17 H :    0.043609
  18 H :    0.038218
  19 H :    0.032898
  20 H :    0.032925
  21 H :    0.038292
  22 H :    0.042856
  23 H :    0.043580
  24 H :    0.182001
  25 H :    0.032984
  26 H :    0.038313
  27 H :    0.042835
  28 H :    0.043593
  29 H :    0.182002
  30 H :    0.181995
Sum of atomic charges:   -0.0000000

--------------------------------
MULLIKEN REDUCED ORBITAL CHARGES
--------------------------------
  0 C s       :     2.944632  s :     2.944632
      pz      :     1.027564  p :     2.967390
      px      :     0.950777
      py      :     0.989049
      dz2     :     0.009521  d :     0.034214
      dxz     :     0.005200
      dyz     :     0.003535
      dx2y2   :     0.005494
      dxy     :     0.010464

  1 C s       :     3.081080  s :     3.081080
      pz      :     1.023253  p :     3.028942
      px      :     0.991495
      py      :     1.014194
      dz2     :     0.009558  d :     0.030284
      dxz     :     0.005256
      dyz     :     0.002931
      dx2y2   :     0.004564
      dxy     :     0.007975

  2 P s       :     5.793160  s :     5.793160
      pz      :     3.314349  p :     8.890967
      px      :     2.791282
      py      :     2.785337
      dz2     :     0.017585  d :     0.168650
      dxz     :     0.041814
      dyz     :     0.031352
      dx2y2   :     0.033885
      dxy     :     0.044014

  3 C s       :     3.081030  s :     3.081030
      pz      :     1.025835  p :     3.029231
      px      :     1.024688
      py      :     0.978708
      dz2     :     0.008912  d :     0.030285
      dxz     :     0.003141
      dyz     :     0.005302
      dx2y2   :     0.007314
      dxy     :     0.005616

  4 C s       :     2.944608  s :     2.944608
      pz      :     1.025145  p :     2.967334
      px      :     1.028914
      py      :     0.913275
      dz2     :     0.007954  d :     0.034214
      dxz     :     0.003683
      dyz     :     0.006738
      dx2y2   :     0.007521
      dxy     :     0.008319

  5 C s       :     3.076052  s :     3.076052
      pz      :     0.872172  p :     2.678780
      px      :     0.915528
      py      :     0.891080
      dz2     :     0.021426  d :     0.132273
      dxz     :     0.016037
      dyz     :     0.026790
      dx2y2   :     0.031032
      dxy     :     0.036987

  6 O s       :     3.745891  s :     3.745891
      pz      :     1.373881  p :     4.470916
      px      :     1.351742
      py      :     1.745293
      dz2     :     0.003909  d :     0.017916
      dxz     :     0.005905
      dyz     :     0.001588
      dx2y2   :     0.003880
      dxy     :     0.002634

  7 O s       :     3.688006  s :     3.688006
      pz      :     1.665997  p :     4.478328
      px      :     1.593411
      py      :     1.218920
      dz2     :     0.001605  d :     0.013858
      dxz     :     0.002434
      dyz     :     0.003026
      dx2y2   :     0.002504
      dxy     :     0.004288

  8 C s       :     3.081156  s :     3.081156
      pz      :     1.023846  p :     3.029427
      px      :     0.991444
      py      :     1.014136
      dz2     :     0.008693  d :     0.030287
      dxz     :     0.006361
      dyz     :     0.002389
      dx2y2   :     0.006130
      dxy     :     0.006712

  9 C s       :     2.944542  s :     2.944542
      pz      :     1.025502  p :     2.967314
      px      :     0.933143
      py      :     1.008669
      dz2     :     0.007394  d :     0.034214
      dxz     :     0.008923
      dyz     :     0.002693
      dx2y2   :     0.008960
      dxy     :     0.006244

 10 C s       :     3.076030  s :     3.076030
      pz      :     0.914372  p :     2.678740
      px      :     0.942542
      py      :     0.821826
      dz2     :     0.027539  d :     0.132271
      dxz     :     0.031818
      dyz     :     0.019952
      dx2y2   :     0.023656
      dxy     :     0.029306

 11 O s       :     3.745891  s :     3.745891
      pz      :     1.353720  p :     4.470921
      px      :     1.684938
      py      :     1.432264
      dz2     :     0.005430  d :     0.017916
      dxz     :     0.002638
      dyz     :     0.005857
      dx2y2   :     0.002077
      dxy     :     0.001914

 12 O s       :     3.688010  s :     3.688010
      pz      :     1.594423  p :     4.478339
      px      :     1.272496
      py      :     1.611419
      dz2     :     0.001912  d :     0.013858
      dxz     :     0.004249
      dyz     :     0.002322
      dx2y2   :     0.002149
      dxy     :     0.003226

 13 C s       :     3.076046  s :     3.076046
      pz      :     0.860823  p :     2.678730
      px      :     0.836100
      py      :     0.981807
      dz2     :     0.026006  d :     0.132273
      dxz     :     0.029904
      dyz     :     0.020834
      dx2y2   :     0.032413
      dxy     :     0.023115

 14 O s       :     3.745894  s :     3.745894
      pz      :     1.362511  p :     4.470923
      px      :     1.621385
      py      :     1.487027
      dz2     :     0.004817  d :     0.017916
      dxz     :     0.003012
      dyz     :     0.005113
      dx2y2   :     0.002117
      dxy     :     0.002856

 15 O s       :     3.688011  s :     3.688011
      pz      :     1.646721  p :     4.478324
      px      :     1.401676
      py      :     1.429927
      dz2     :     0.001882  d :     0.013858
      dxz     :     0.003822
      dyz     :     0.002806
      dx2y2   :     0.003844
      dxy     :     0.001504

 16 H s       :     0.933885  s :     0.933885
      pz      :     0.005009  p :     0.023286
      px      :     0.008017
      py      :     0.010260

 17 H s       :     0.933338  s :     0.933338
      pz      :     0.014250  p :     0.023054
      px      :     0.004400
      py      :     0.004404

 18 H s       :     0.938648  s :     0.938648
      pz      :     0.004907  p :     0.023135
      px      :     0.007507
      py      :     0.010721

 19 H s       :     0.944310  s :     0.944310
      pz      :     0.013908  p :     0.022792
      px      :     0.004010
      py      :     0.004874

 20 H s       :     0.944287  s :     0.944287
      pz      :     0.014017  p :     0.022788
      px      :     0.004657
      py      :     0.004114

 21 H s       :     0.938577  s :     0.938577
      pz      :     0.005612  p :     0.023131
      px      :     0.013234
      py      :     0.004285

 22 H s       :     0.933856  s :     0.933856
      pz      :     0.005769  p :     0.023288
      px      :     0.013267
      py      :     0.004252

 23 H s       :     0.933366  s :     0.933366
      pz      :     0.014424  p :     0.023053
      px      :     0.004531
      py      :     0.004099

 24 H s       :     0.752925  s :     0.752925
      pz      :     0.020069  p :     0.065074
      px      :     0.023106
      py      :     0.021899

 25 H s       :     0.944232  s :     0.944232
      pz      :     0.013367  p :     0.022784
      px      :     0.005028
      py      :     0.004390

 26 H s       :     0.938557  s :     0.938557
      pz      :     0.004836  p :     0.023130
      px      :     0.006213
      py      :     0.012081

 27 H s       :     0.933878  s :     0.933878
      pz      :     0.004779  p :     0.023286
      px      :     0.005803
      py      :     0.012705

 28 H s       :     0.933353  s :     0.933353
      pz      :     0.013647  p :     0.023054
      px      :     0.004654
      py      :     0.004753

 29 H s       :     0.752924  s :     0.752924
      pz      :     0.023275  p :     0.065075
      px      :     0.027620
      py      :     0.014179

 30 H s       :     0.752931  s :     0.752931
      pz      :     0.018040  p :     0.065074
      px      :     0.016162
      py      :     0.030872



                     *******************************
                     * LOEWDIN POPULATION ANALYSIS *
                     *******************************

----------------------
LOEWDIN ATOMIC CHARGES
----------------------
   0 C :   -0.063709
   1 C :   -0.167550
   2 P :    0.448462
   3 C :   -0.167598
   4 C :   -0.063692
   5 C :    0.089315
   6 O :   -0.193923
   7 O :   -0.046778
   8 C :   -0.167639
   9 C :   -0.063690
  10 C :    0.089319
  11 O :   -0.193926
  12 O :   -0.046780
  13 C :    0.089320
  14 O :   -0.193926
  15 O :   -0.046778
  16 H :    0.042724
  17 H :    0.044945
  18 H :    0.025505
  19 H :    0.021554
  20 H :    0.021554
  21 H :    0.025513
  22 H :    0.042725
  23 H :    0.044944
  24 H :    0.098448
  25 H :    0.021564
  26 H :    0.025529
  27 H :    0.042729
  28 H :    0.044945
  29 H :    0.098449
  30 H :    0.098445

-------------------------------
LOEWDIN REDUCED ORBITAL CHARGES
-------------------------------
  0 C s       :     2.841417  s :     2.841417
      pz      :     1.060034  p :     3.134368
      px      :     1.036806
      py      :     1.037529
      dz2     :     0.023967  d :     0.087923
      dxz     :     0.013131
      dyz     :     0.009141
      dx2y2   :     0.014920
      dxy     :     0.026764

  1 C s       :     2.888551  s :     2.888551
      pz      :     1.078257  p :     3.204711
      px      :     1.038918
      py      :     1.087535
      dz2     :     0.023007  d :     0.074289
      dxz     :     0.013069
      dyz     :     0.006950
      dx2y2   :     0.011311
      dxy     :     0.019952

  2 P s       :     5.306551  s :     5.306551
      pz      :     3.410090  p :     9.022199
      px      :     2.809487
      py      :     2.802621
      dz2     :     0.023019  d :     0.222788
      dxz     :     0.054741
      dyz     :     0.039486
      dx2y2   :     0.045503
      dxy     :     0.060039

  3 C s       :     2.888547  s :     2.888547
      pz      :     1.088056  p :     3.204764
      px      :     1.078737
      py      :     1.037972
      dz2     :     0.022237  d :     0.074287
      dxz     :     0.007656
      dyz     :     0.012011
      dx2y2   :     0.018970
      dxy     :     0.013411

  4 C s       :     2.841412  s :     2.841412
      pz      :     1.060622  p :     3.134356
      px      :     1.053061
      py      :     1.020673
      dz2     :     0.021288  d :     0.087924
      dxz     :     0.009493
      dyz     :     0.015618
      dx2y2   :     0.020488
      dxy     :     0.021036

  5 C s       :     2.852247  s :     2.852247
      pz      :     0.886769  p :     2.772954
      px      :     0.955364
      py      :     0.930821
      dz2     :     0.039841  d :     0.285484
      dxz     :     0.037867
      dyz     :     0.058714
      dx2y2   :     0.064896
      dxy     :     0.084166

  6 O s       :     3.554515  s :     3.554515
      pz      :     1.420720  p :     4.608728
      px      :     1.436890
      py      :     1.751118
      dz2     :     0.004722  d :     0.030680
      dxz     :     0.012256
      dyz     :     0.002563
      dx2y2   :     0.006812
      dxy     :     0.004328

  7 O s       :     3.439443  s :     3.439443
      pz      :     1.668083  p :     4.580228
      px      :     1.625987
      py      :     1.286158
      dz2     :     0.002590  d :     0.027107
      dxz     :     0.003961
      dyz     :     0.006061
      dx2y2   :     0.005577
      dxy     :     0.008919

  8 C s       :     2.888546  s :     2.888546
      pz      :     1.087483  p :     3.204808
      px      :     1.062999
      py      :     1.054326
      dz2     :     0.021316  d :     0.074285
      dxz     :     0.015692
      dyz     :     0.005449
      dx2y2   :     0.014024
      dxy     :     0.017805

  9 C s       :     2.841409  s :     2.841409
      pz      :     1.055298  p :     3.134357
      px      :     1.024058
      py      :     1.055002
      dz2     :     0.019515  d :     0.087924
      dxz     :     0.023430
      dyz     :     0.005853
      dx2y2   :     0.021070
      dxy     :     0.018056

 10 C s       :     2.852247  s :     2.852247
      pz      :     0.952822  p :     2.772952
      px      :     0.943710
      py      :     0.876420
      dz2     :     0.053991  d :     0.285483
      dxz     :     0.071647
      dyz     :     0.047498
      dx2y2   :     0.049689
      dxy     :     0.062658

 11 O s       :     3.554515  s :     3.554515
      pz      :     1.436228  p :     4.608731
      px      :     1.689236
      py      :     1.483267
      dz2     :     0.007843  d :     0.030680
      dxz     :     0.004286
      dyz     :     0.012293
      dx2y2   :     0.003395
      dxy     :     0.002864

 12 O s       :     3.439442  s :     3.439442
      pz      :     1.625483  p :     4.580231
      px      :     1.326368
      py      :     1.628380
      dz2     :     0.002774  d :     0.027107
      dxz     :     0.009219
      dyz     :     0.003369
      dx2y2   :     0.004379
      dxy     :     0.007366

 13 C s       :     2.852248  s :     2.852248
      pz      :     0.905902  p :     2.772946
      px      :     0.887371
      py      :     0.979673
      dz2     :     0.049770  d :     0.285485
      dxz     :     0.068877
      dyz     :     0.048015
      dx2y2   :     0.071729
      dxy     :     0.047094

 14 O s       :     3.554514  s :     3.554514
      pz      :     1.431121  p :     4.608732
      px      :     1.640194
      py      :     1.537417
      dz2     :     0.006325  d :     0.030680
      dxz     :     0.005600
      dyz     :     0.010670
      dx2y2   :     0.003489
      dxy     :     0.004595

 15 O s       :     3.439446  s :     3.439446
      pz      :     1.663516  p :     4.580225
      px      :     1.442661
      py      :     1.474048
      dz2     :     0.002515  d :     0.027107
      dxz     :     0.007378
      dyz     :     0.005160
      dx2y2   :     0.008196
      dxy     :     0.003858

 16 H s       :     0.888671  s :     0.888671
      pz      :     0.013770  p :     0.068604
      px      :     0.024504
      py      :     0.030330

 17 H s       :     0.886594  s :     0.886594
      pz      :     0.041925  p :     0.068461
      px      :     0.013114
      py      :     0.013422

 18 H s       :     0.904375  s :     0.904375
      pz      :     0.013280  p :     0.070120
      px      :     0.022894
      py      :     0.033946

 19 H s       :     0.907541  s :     0.907541
      pz      :     0.042870  p :     0.070905
      px      :     0.013532
      py      :     0.014502

 20 H s       :     0.907540  s :     0.907540
      pz      :     0.043370  p :     0.070906
      px      :     0.013402
      py      :     0.014134

 21 H s       :     0.904364  s :     0.904364
      pz      :     0.015067  p :     0.070123
      px      :     0.040773
      py      :     0.014283

 22 H s       :     0.888670  s :     0.888670
      pz      :     0.015903  p :     0.068605
      px      :     0.039123
      py      :     0.013579

 23 H s       :     0.886596  s :     0.886596
      pz      :     0.041940  p :     0.068460
      px      :     0.013128
      py      :     0.013392

 24 H s       :     0.731922  s :     0.731922
      pz      :     0.055635  p :     0.169629
      px      :     0.064367
      py      :     0.049628

 25 H s       :     0.907528  s :     0.907528
      pz      :     0.042275  p :     0.070908
      px      :     0.015659
      py      :     0.012974

 26 H s       :     0.904348  s :     0.904348
      pz      :     0.013382  p :     0.070123
      px      :     0.020408
      py      :     0.036333

 27 H s       :     0.888667  s :     0.888667
      pz      :     0.013360  p :     0.068604
      px      :     0.017544
      py      :     0.037700

 28 H s       :     0.886594  s :     0.886594
      pz      :     0.040099  p :     0.068461
      px      :     0.014941
      py      :     0.013421

 29 H s       :     0.731921  s :     0.731921
      pz      :     0.064723  p :     0.169630
      px      :     0.066267
      py      :     0.038640

 30 H s       :     0.731927  s :     0.731927
      pz      :     0.050770  p :     0.169629
      px      :     0.038259
      py      :     0.080600



                      *****************************
                      * MAYER POPULATION ANALYSIS *
                      *****************************

  NA   - Mulliken gross atomic population
  ZA   - Total nuclear charge
  QA   - Mulliken gross atomic charge
  VA   - Mayer's total valence
  BVA  - Mayer's bonded valence
  FA   - Mayer's free valence

  ATOM       NA         ZA         QA         VA         BVA        FA
  0 C      5.9462     6.0000     0.0538     3.8580     3.8580    -0.0000
  1 C      6.1403     6.0000    -0.1403     3.9453     3.9453    -0.0000
  2 P     14.8528    15.0000     0.1472     3.0443     3.0443    -0.0000
  3 C      6.1405     6.0000    -0.1405     3.9455     3.9455    -0.0000
  4 C      5.9462     6.0000     0.0538     3.8582     3.8582    -0.0000
  5 C      5.8871     6.0000     0.1129     4.3859     4.3859    -0.0000
  6 O      8.2347     8.0000    -0.2347     2.2550     2.2550    -0.0000
  7 O      8.1802     8.0000    -0.1802     2.2430     2.2430    -0.0000
  8 C      6.1409     6.0000    -0.1409     3.9455     3.9455    -0.0000
  9 C      5.9461     6.0000     0.0539     3.8581     3.8581    -0.0000
 10 C      5.8870     6.0000     0.1130     4.3859     4.3859    -0.0000
 11 O      8.2347     8.0000    -0.2347     2.2550     2.2550    -0.0000
 12 O      8.1802     8.0000    -0.1802     2.2430     2.2430    -0.0000
 13 C      5.8870     6.0000     0.1130     4.3859     4.3859    -0.0000
 14 O      8.2347     8.0000    -0.2347     2.2550     2.2550    -0.0000
 15 O      8.1802     8.0000    -0.1802     2.2430     2.2430    -0.0000
 16 H      0.9572     1.0000     0.0428     1.0036     1.0036     0.0000
 17 H      0.9564     1.0000     0.0436     1.0015     1.0015    -0.0000
 18 H      0.9618     1.0000     0.0382     0.9946     0.9946    -0.0000
 19 H      0.9671     1.0000     0.0329     0.9927     0.9927    -0.0000
 20 H      0.9671     1.0000     0.0329     0.9926     0.9926    -0.0000
 21 H      0.9617     1.0000     0.0383     0.9946     0.9946    -0.0000
 22 H      0.9571     1.0000     0.0429     1.0036     1.0036    -0.0000
 23 H      0.9564     1.0000     0.0436     1.0015     1.0015    -0.0000
 24 H      0.8180     1.0000     0.1820     1.0365     1.0365    -0.0000
 25 H      0.9670     1.0000     0.0330     0.9926     0.9926    -0.0000
 26 H      0.9617     1.0000     0.0383     0.9946     0.9946    -0.0000
 27 H      0.9572     1.0000     0.0428     1.0036     1.0036    -0.0000
 28 H      0.9564     1.0000     0.0436     1.0016     1.0016    -0.0000
 29 H      0.8180     1.0000     0.1820     1.0365     1.0365    -0.0000
 30 H      0.8180     1.0000     0.1820     1.0365     1.0365    -0.0000

  Mayer bond orders larger than 0.100000
B(  0-C ,  1-C ) :   1.0616 B(  0-C , 13-C ) :   0.9793 B(  0-C , 16-H ) :   0.9183 
B(  0-C , 17-H ) :   0.9178 B(  1-C ,  2-P ) :   0.9685 B(  1-C , 18-H ) :   0.9385 
B(  1-C , 19-H ) :   0.9235 B(  2-P ,  3-C ) :   0.9686 B(  2-P ,  8-C ) :   0.9687 
B(  3-C ,  4-C ) :   1.0616 B(  3-C , 20-H ) :   0.9234 B(  3-C , 21-H ) :   0.9385 
B(  4-C ,  5-C ) :   0.9793 B(  4-C , 22-H ) :   0.9183 B(  4-C , 23-H ) :   0.9178 
B(  5-C ,  6-O ) :   2.0825 B(  5-C ,  7-O ) :   1.2417 B(  7-O , 24-H ) :   0.9441 
B(  8-C ,  9-C ) :   1.0616 B(  8-C , 25-H ) :   0.9234 B(  8-C , 26-H ) :   0.9385 
B(  9-C , 10-C ) :   0.9793 B(  9-C , 27-H ) :   0.9183 B(  9-C , 28-H ) :   0.9178 
B( 10-C , 11-O ) :   2.0825 B( 10-C , 12-O ) :   1.2417 B( 12-O , 29-H ) :   0.9441 
B( 13-C , 14-O ) :   2.0825 B( 13-C , 15-O ) :   1.2417 B( 15-O , 30-H ) :   0.9442 


-------
TIMINGS
-------

Total SCF time: 0 days 0 hours 0 min 21 sec 

Total time                  ....      21.016 sec
Sum of individual times     ....      20.960 sec  ( 99.7%)

SCF preparation             ....       0.098 sec  (  0.5%)
Fock matrix formation       ....      20.233 sec  ( 96.3%)
  Startup                   ....       0.037 sec  (  0.2% of F)
  Exchange formation        ....      14.806 sec  ( 73.2% of F)
  Split-RI-J                ....       1.873 sec  (  9.3% of F)
  XC integration            ....       3.383 sec  ( 16.7% of F)
    Basis function eval.    ....       1.007 sec  ( 29.8% of XC)
    Density eval.           ....       0.836 sec  ( 24.7% of XC)
    XC-Functional eval.     ....       0.098 sec  (  2.9% of XC)
    XC-Potential eval.      ....       0.761 sec  ( 22.5% of XC)
Diagonalization             ....       0.000 sec  (  0.0%)
Density matrix formation    ....       0.084 sec  (  0.4%)
Total Energy calculation    ....       0.035 sec  (  0.2%)
Population analysis         ....       0.050 sec  (  0.2%)
Orbital Transformation      ....       0.051 sec  (  0.2%)
Orbital Orthonormalization  ....       0.000 sec  (  0.0%)
DIIS solution               ....       0.255 sec  (  1.2%)
SOSCF solution              ....       0.154 sec  (  0.7%)
Finished LeanSCF after  21.0 sec

Maximum memory used throughout the entire LEANSCF-calculation: 28.8 MB


-------------------------------------------------------------------------------
                          DFT DISPERSION CORRECTION                            
                                                                               
                              DFTD3 V3.1  Rev 1                                
                          USING Becke-Johnson damping                          
-------------------------------------------------------------------------------
The B3LYP functional is recognized
Active option DFTDOPT                   ...         4   

molecular C6(AA) [au] = 9828.618637 


            DFT-D V3
 parameters
 s6 scaling factor         :     1.0000 
 a1 scaling factor         :     0.3981 
 s8 scaling factor         :     1.9889 
 a2 scaling factor         :     4.4211 
 ad hoc parameters k1-k3   :    16.0000     1.3333    -4.0000 

 Edisp/kcal,au: -35.040376736371  -0.055840388786 
 E6   /kcal   : -16.507908915 
 E8   /kcal   : -18.532467822 
 % E8         :  52.888894321 

-------------------------   ----------------
Dispersion correction           -0.055840389
-------------------------   ----------------


-------------------------   --------------------
FINAL SINGLE POINT ENERGY     -1143.627749585215
-------------------------   --------------------



           ************************************************************
[...]
      dxz     :     0.009501
      dyz     :     0.001046
      dx2y2   :     0.010952
      dxy     :     0.006228

  7 O s       :     3.432217  s :     3.432217
      pz      :     1.700426  p :     4.584754
      px      :     1.607344
      py      :     1.276984
      dz2     :     0.003379  d :     0.027064
      dxz     :     0.002764
      dyz     :     0.003586
      dx2y2   :     0.004851
      dxy     :     0.012485

  8 C s       :     2.893548  s :     2.893548
      pz      :     1.083397  p :     3.203304
      px      :     1.063651
      py      :     1.056256
      dz2     :     0.021576  d :     0.073206
      dxz     :     0.015023
      dyz     :     0.004957
      dx2y2   :     0.013200
      dxy     :     0.018451

  9 C s       :     2.847719  s :     2.847719
      pz      :     1.059101  p :     3.134962
      px      :     1.021750
      py      :     1.054111
      dz2     :     0.021095  d :     0.086615
      dxz     :     0.018904
      dyz     :     0.005305
      dx2y2   :     0.023416
      dxy     :     0.017895

 10 C s       :     2.850003  s :     2.850003
      pz      :     0.886657  p :     2.775422
      px      :     0.958951
      py      :     0.929813
      dz2     :     0.039492  d :     0.291555
      dxz     :     0.043284
      dyz     :     0.051184
      dx2y2   :     0.073912
      dxy     :     0.083682

 11 O s       :     3.544934  s :     3.544934
      pz      :     1.426944  p :     4.604550
      px      :     1.672968
      py      :     1.504638
      dz2     :     0.004559  d :     0.031803
      dxz     :     0.003057
      dyz     :     0.011553
      dx2y2   :     0.006634
      dxy     :     0.006000

 12 O s       :     3.432202  s :     3.432202
      pz      :     1.668609  p :     4.584742
      px      :     1.328729
      py      :     1.587404
      dz2     :     0.002675  d :     0.027064
      dxz     :     0.006149
      dyz     :     0.003229
      dx2y2   :     0.006661
      dxy     :     0.008350

 13 C s       :     2.849995  s :     2.849995
      pz      :     0.844485  p :     2.775428
      px      :     0.905659
      py      :     1.025285
      dz2     :     0.033801  d :     0.291573
      dxz     :     0.055397
      dyz     :     0.034537
      dx2y2   :     0.104421
      dxy     :     0.063416

 14 O s       :     3.544925  s :     3.544925
      pz      :     1.409572  p :     4.604561
      px      :     1.650417
      py      :     1.544572
      dz2     :     0.004206  d :     0.031804
      dxz     :     0.004555
      dyz     :     0.008477
      dx2y2   :     0.005715
      dxy     :     0.008852

 15 O s       :     3.432182  s :     3.432182
      pz      :     1.705128  p :     4.584759
      px      :     1.409205
      py      :     1.470426
      dz2     :     0.003400  d :     0.027064
      dxz     :     0.005211
      dyz     :     0.002337
      dx2y2   :     0.011861
      dxy     :     0.004255

 16 H s       :     0.892264  s :     0.892264
      pz      :     0.014433  p :     0.067611
      px      :     0.025211
      py      :     0.027968

 17 H s       :     0.886502  s :     0.886502
      pz      :     0.041532  p :     0.067326
      px      :     0.012378
      py      :     0.013416

 18 H s       :     0.902443  s :     0.902443
      pz      :     0.013229  p :     0.069928
      px      :     0.022254
      py      :     0.034446

 19 H s       :     0.909786  s :     0.909786
      pz      :     0.042105  p :     0.068971
      px      :     0.012791
      py      :     0.014075

 20 H s       :     0.909780  s :     0.909780
      pz      :     0.042013  p :     0.068986
      px      :     0.013229
      py      :     0.013744

 21 H s       :     0.902497  s :     0.902497
      pz      :     0.015186  p :     0.069881
      px      :     0.040849
      py      :     0.013846

 22 H s       :     0.892260  s :     0.892260
      pz      :     0.017188  p :     0.067593
      px      :     0.037334
      py      :     0.013071

 23 H s       :     0.886479  s :     0.886479
      pz      :     0.040660  p :     0.067312
      px      :     0.013672
      py      :     0.012980

 24 H s       :     0.732616  s :     0.732616
      pz      :     0.050086  p :     0.172427
      px      :     0.067020
      py      :     0.055321

 25 H s       :     0.909829  s :     0.909829
      pz      :     0.041392  p :     0.068972
      px      :     0.015189
      py      :     0.012391

 26 H s       :     0.902444  s :     0.902444
      pz      :     0.013092  p :     0.069903
      px      :     0.020874
      py      :     0.035937

 27 H s       :     0.892190  s :     0.892190
      pz      :     0.013875  p :     0.067623
      px      :     0.016124
      py      :     0.037625

 28 H s       :     0.886486  s :     0.886486
      pz      :     0.040755  p :     0.067321
      px      :     0.013903
      py      :     0.012662

 29 H s       :     0.732607  s :     0.732607
      pz      :     0.056973  p :     0.172433
      px      :     0.077327
      py      :     0.038132

 30 H s       :     0.732607  s :     0.732607
      pz      :     0.046672  p :     0.172425
      px      :     0.037296
      py      :     0.088457



                      *****************************
                      * MAYER POPULATION ANALYSIS *
                      *****************************

  NA   - Mulliken gross atomic population
  ZA   - Total nuclear charge
  QA   - Mulliken gross atomic charge
  VA   - Mayer's total valence
  BVA  - Mayer's bonded valence
  FA   - Mayer's free valence

  ATOM       NA         ZA         QA         VA         BVA        FA
  0 C      5.9649     6.0000     0.0351     3.8508     3.8508    -0.0000
  1 C      6.1432     6.0000    -0.1432     3.9335     3.9335    -0.0000
  2 P     14.8381    15.0000     0.1619     3.0445     3.0445    -0.0000
  3 C      6.1434     6.0000    -0.1434     3.9339     3.9339    -0.0000
  4 C      5.9644     6.0000     0.0356     3.8507     3.8507    -0.0000
  5 C      5.8889     6.0000     0.1111     4.3984     4.3984    -0.0000
  6 O      8.2182     8.0000    -0.2182     2.2708     2.2708    -0.0000
  7 O      8.1787     8.0000    -0.1787     2.2442     2.2442    -0.0000
  8 C      6.1432     6.0000    -0.1432     3.9338     3.9338    -0.0000
  9 C      5.9651     6.0000     0.0349     3.8512     3.8512    -0.0000
 10 C      5.8890     6.0000     0.1110     4.3985     4.3985    -0.0000
 11 O      8.2182     8.0000    -0.2182     2.2708     2.2708    -0.0000
 12 O      8.1786     8.0000    -0.1786     2.2443     2.2443     0.0000
 13 C      5.8890     6.0000     0.1110     4.3984     4.3984    -0.0000
 14 O      8.2182     8.0000    -0.2182     2.2708     2.2708    -0.0000
 15 O      8.1786     8.0000    -0.1786     2.2442     2.2442     0.0000
 16 H      0.9599     1.0000     0.0401     1.0030     1.0030     0.0000
 17 H      0.9560     1.0000     0.0440     0.9995     0.9995    -0.0000
 18 H      0.9532     1.0000     0.0468     0.9992     0.9992     0.0000
 19 H      0.9707     1.0000     0.0293     0.9869     0.9869     0.0000
 20 H      0.9707     1.0000     0.0293     0.9871     0.9871    -0.0000
 21 H      0.9535     1.0000     0.0465     0.9990     0.9990    -0.0000
 22 H      0.9600     1.0000     0.0400     1.0031     1.0031    -0.0000
 23 H      0.9561     1.0000     0.0439     0.9994     0.9994    -0.0000
 24 H      0.8202     1.0000     0.1798     1.0345     1.0345     0.0000
 25 H      0.9707     1.0000     0.0293     0.9869     0.9869    -0.0000
 26 H      0.9533     1.0000     0.0467     0.9989     0.9989    -0.0000
 27 H      0.9597     1.0000     0.0403     1.0030     1.0030     0.0000
 28 H      0.9560     1.0000     0.0440     0.9995     0.9995    -0.0000
 29 H      0.8202     1.0000     0.1798     1.0345     1.0345     0.0000
 30 H      0.8201     1.0000     0.1799     1.0344     1.0344     0.0000

  Mayer bond orders larger than 0.100000
B(  0-C ,  1-C ) :   1.0549 B(  0-C , 13-C ) :   0.9749 B(  0-C , 16-H ) :   0.9252 
B(  0-C , 17-H ) :   0.9138 B(  1-C ,  2-P ) :   0.9673 B(  1-C , 18-H ) :   0.9346 
B(  1-C , 19-H ) :   0.9294 B(  2-P ,  3-C ) :   0.9675 B(  2-P ,  8-C ) :   0.9677 
B(  3-C ,  4-C ) :   1.0548 B(  3-C , 20-H ) :   0.9294 B(  3-C , 21-H ) :   0.9347 
B(  4-C ,  5-C ) :   0.9749 B(  4-C , 22-H ) :   0.9254 B(  4-C , 23-H ) :   0.9138 
B(  5-C ,  6-O ) :   2.1043 B(  5-C ,  7-O ) :   1.2388 B(  7-O , 24-H ) :   0.9463 
B(  8-C ,  9-C ) :   1.0549 B(  8-C , 25-H ) :   0.9294 B(  8-C , 26-H ) :   0.9347 
B(  9-C , 10-C ) :   0.9750 B(  9-C , 27-H ) :   0.9252 B(  9-C , 28-H ) :   0.9139 
B( 10-C , 11-O ) :   2.1043 B( 10-C , 12-O ) :   1.2389 B( 12-O , 29-H ) :   0.9463 
B( 13-C , 14-O ) :   2.1043 B( 13-C , 15-O ) :   1.2388 B( 15-O , 30-H ) :   0.9463 


-------
TIMINGS
-------

Total SCF time: 0 days 0 hours 0 min 9 sec 

Total time                  ....       9.892 sec
Sum of individual times     ....       9.827 sec  ( 99.3%)

SCF preparation             ....       0.103 sec  (  1.0%)
Fock matrix formation       ....       9.385 sec  ( 94.9%)
  Startup                   ....       0.018 sec  (  0.2% of F)
  Exchange formation        ....       6.604 sec  ( 70.4% of F)
  Split-RI-J                ....       0.997 sec  ( 10.6% of F)
  XC integration            ....       1.696 sec  ( 18.1% of F)
    Basis function eval.    ....       0.495 sec  ( 29.2% of XC)
    Density eval.           ....       0.497 sec  ( 29.3% of XC)
    XC-Functional eval.     ....       0.041 sec  (  2.4% of XC)
    XC-Potential eval.      ....       0.344 sec  ( 20.3% of XC)
Diagonalization             ....       0.000 sec  (  0.0%)
Density matrix formation    ....       0.039 sec  (  0.4%)
Total Energy calculation    ....       0.018 sec  (  0.2%)
Population analysis         ....       0.083 sec  (  0.8%)
Orbital Transformation      ....       0.027 sec  (  0.3%)
Orbital Orthonormalization  ....       0.000 sec  (  0.0%)
DIIS solution               ....       0.038 sec  (  0.4%)
SOSCF solution              ....       0.134 sec  (  1.4%)
Finished LeanSCF after   9.9 sec

Maximum memory used throughout the entire LEANSCF-calculation: 29.9 MB


-------------------------------------------------------------------------------
                          DFT DISPERSION CORRECTION                            
                                                                               
                              DFTD3 V3.1  Rev 1                                
                          USING Becke-Johnson damping                          
-------------------------------------------------------------------------------
The B3LYP functional is recognized
Active option DFTDOPT                   ...         4   

molecular C6(AA) [au] = 9831.845471 


            DFT-D V3
 parameters
 s6 scaling factor         :     1.0000 
 a1 scaling factor         :     0.3981 
 s8 scaling factor         :     1.9889 
 a2 scaling factor         :     4.4211 
 ad hoc parameters k1-k3   :    16.0000     1.3333    -4.0000 

 Edisp/kcal,au: -34.828289039599  -0.055502405564 
 E6   /kcal   : -16.406948639 
 E8   /kcal   : -18.421340401 
 % E8         :  52.891890210 

-------------------------   ----------------
Dispersion correction           -0.055502406
-------------------------   ----------------


-------------------------   --------------------
FINAL SINGLE POINT ENERGY     -1143.632477736398
-------------------------   --------------------

                                *** OPTIMIZATION RUN DONE ***



           ************************************************************
           *        Program running with 6 parallel MPI-processes     *
           *              working on a common directory               *
           ************************************************************

------------------------------------------------------------------------------
                              ORCA PROPERTY CALCULATIONS
------------------------------------------------------------------------------

GBWName                                 ... data/geom_opt/119411/119411.gbw
Number of atoms                         ...     31
Number of basis functions               ...    303
Max core memory                         ...   1024 MB

Electric properties:
Dipole moment                           ... YES
Quadrupole moment                       ...  NO
Static polarizability (Dipole/Dipole)   ...  NO
Static polarizability (Dipole/Quad.)    ...  NO
Static polarizability (Quad./Quad.)     ...  NO
Static polarizability (Velocity)        ...  NO

Atomic electric properties:
Dipole moment                           ...  NO
Quadrupole moment                       ...  NO
Static polarizability                   ...  NO

Choice of electric origin               ... Center of mass
Position of electric origin             ...    -0.000166    -0.000834    -0.227007

General magnetic properties:
Magnetizability                         ...  NO

EPR properties:
g-Tensor (aka g-matrix)                 ...  NO
Zero-Field splitting spin-orbit         ...  NO
Zero-field splitting spin-spin          ...  NO
Hyperfine couplings                     ...  NO (   0 nuclei)
Quadrupole couplings                    ...  NO (   0 nuclei)
Contact density                         ...  NO (   0 nuclei)

NMR properties:
Chemical shifts                         ...  NO (   0 nuclei)
Spin-rotation constants                 ...  NO (   0 nuclei)
Spin-spin couplings                     ...  NO (   0 nuclei,    0 pairs)

Choice of magnetic origin               ... GIAO
Position of magnetic origin             ...     0.000000     0.000000     0.000000

Properties with geometric perturbations:
SCF Hessian                             ...  NO
IR spectrum                             ...  NO
VCD spectrum                            ...  NO
X-ray spectroscopy properties:
SCF XES/XAS/RIXS spectra                ...  NO


-------------
DIPOLE MOMENT
-------------

Method             : SCF
Type of density    : Electron Density
Multiplicity       :   1
Irrep              :   0
Energy             : -1143.5769753308341024 Eh
Relativity type    : 
Basis              : AO
                                X                 Y                 Z
Electronic contribution:      0.051773590       0.020506971       0.340015739
Nuclear contribution   :     -0.010832375       0.004280346       0.004202079
                        -----------------------------------------
Total Dipole Moment    :      0.040941215       0.024787317       0.344217817
                        -----------------------------------------
Magnitude (a.u.)       :      0.347529135
Magnitude (Debye)      :      0.883348861



--------------------
Rotational spectrum 
--------------------
 
Rotational constants in cm-1:             0.009660             0.009638             0.005010 
Rotational constants in MHz :           289.611945           288.939348           150.194787 

Dipole components along the rotational axes: 
x,y,z [a.u.] :    -0.000628    -0.004070     0.347505 
x,y,z [Debye]:    -0.001596    -0.010346     0.883287 

 

Dipole moment calculation done in   0.0 sec 

Maximum memory used throughout the entire PROP-calculation: 14.7 MB

--------------------------------
SUGGESTED CITATIONS FOR THIS RUN
--------------------------------

Below you find a list of papers that are relevant to this ORCA run
We neither can nor want to force you to cite these papers, but we appreciate if you do
You receive ORCA, which is the product of decades of hard work by many enthusiastic individuals, for free
The only thing we kindly ask in return is that you cite our papers,
We deeply appreciate it, if you show your appreciation for ORCA by not just citing the generic ORCA reference.

Please note that relegating all ORCA citations to the supporting information does *not* help us.
SI sections are not indexed - citations you put there will not count into any citation statistics
But we need these citations in order to attract the funding resources that allow us to do what we are doing

Therefore, if you are a happy ORCA user, please consider citing a few of the papers listed below in the main body of your paper

In addition to the list printed below, the program has created the file data/geom_opt/119411/119411.bibtex that contains the list in bibtex format
You can import this file easily into all common literature databanks and citation aid programs


List of essential papers. We consider these as the minimum necessary citations

  1. Neese,F.
     Software update: the ORCA program system, version 5.0
     WIRES Comput. Molec. Sci., 2022 12(1)e1606
     doi.org/10.1002/wcms.1606

List of papers to cite with high priority. The work reported in these papers was absolutely
necessary for this run to complete.
Our perspective: the developers of density functionals and basis sets usually get cited in chemistry papers
Good! But without the algorithms to do something with them, the functionals or basis sets would not do anything.
Hence, in our opinion, the algorithm design and method developments papers are equally worthy of getting cited

  1. Neese,F.
     An improvement of the resolution of the identity approximation for the formation of the Coulomb matrix
     J. Comp. Chem., 2003 24(14)1740-1747
     doi.org/10.1002/jcc.10318
  2. Neese,F.
     The SHARK Integral Generation and Digestion System
     J. Comp. Chem., 2022  1-16
     doi.org/10.1002/jcc.26942
  3. Grimme,S.; Antony,J.; Ehrlich,S.; Krieg,H.
     A consistent and accurate ab initio parametrization of density functional dispersion correction (DFT-D) for the 94 elements H-Pu
     J. Chem. Phys., 2010 132 154104-XXXX
     doi.org/10.1063/1.3382344
  4. Grimme,S.; Ehrlich,S.; Goerigk,L.
     Effect of the damping function in dispersion corrected density functional theory
     J. Comput. Chem., 2011 32(7)1456-1465
     doi.org/10.1002/jcc.21759

List of suggested additional citations. These are papers that are important in the 'surrounding' of 
of this run, or papers that preceded the highly important papers. If you like your results we are grateful for a citation.

  1. Neese,F.
     The ORCA program system
     WIRES Comput. Molec. Sci., 2012 2(1)73-78
     doi.org/10.1002/wcms.81
  2. Neese,F.
     Software update: the ORCA program system, version 4.0
     WIRES Comput. Molec. Sci., 2018 8(1)1-6
     doi.org/10.1002/wcms.1327
  3. Neese,F.; Wennmohs,F.; Becker,U.; Riplinger,C.
     The ORCA quantum chemistry program package
     J. Chem. Phys., 2020 152 Art. No. L224108
     doi.org/10.1063/5.0004608

List of optional additional citations

  1. Neese,F.
     Approximate second-order SCF convergence for spin unrestricted wavefunctions
     Chem. Phys. Lett., 2000 325(1-3)93-98
     doi.org/10.1016/s0009-2614(00)00662-x

Timings for individual modules:

Sum of individual times          ...      328.285 sec (=   5.471 min)
Startup calculation              ...       13.299 sec (=   0.222 min)   4.1 %
SCF iterations                   ...      204.034 sec (=   3.401 min)  62.2 %
Property calculations            ...        0.165 sec (=   0.003 min)   0.1 %
SCF Gradient evaluation          ...      110.644 sec (=   1.844 min)  33.7 %
Geometry relaxation              ...        0.143 sec (=   0.002 min)   0.0 %
                             ****ORCA TERMINATED NORMALLY****
TOTAL RUN TIME: 0 days 0 hours 5 minutes 30 seconds 746 msec
