
                                 *****************
                                 * O   R   C   A *
                                 *****************

                                            #,                                       
                                            ###                                      
                                            ####                                     
                                            #####                                    
                                            ######                                   
                                           ########,                                 
                                     ,,################,,,,,                         
                               ,,#################################,,                 
                          ,,##########################################,,             
                       ,#########################################, ''#####,          
                    ,#############################################,,   '####,        
                  ,##################################################,,,,####,       
                ,###########''''           ''''###############################       
              ,#####''   ,,,,##########,,,,          '''####'''          '####       
            ,##' ,,,,###########################,,,                        '##       
           ' ,,###''''                  '''############,,,                           
         ,,##''                                '''############,,,,        ,,,,,,###''
      ,#''                                            '''#######################'''  
     '                                                          ''''####''''         
             ,#######,   #######,   ,#######,      ##                                
            ,#'     '#,  ##    ##  ,#'     '#,    #''#        ,####,   ,####,        
            ##       ##  ##   ,#'  ##            #'  '#       #'       #'  '#        
            ##       ##  #######   ##           ,######,      #####,   #    #        
            '#,     ,#'  ##    ##  '#,     ,#' ,#      #,     #,   #   #,  ,#        
             '#######'   ##     ##  '#######'  #'      '#     '####' # '####'        



                #########################################################
                #                        -***-                          #
                #          Department of theory and spectroscopy        #
                #                                                       #
                #                      Frank Neese                      #
                #                                                       #
                #     Directorship, Architecture, Infrastructure        #
                #                    SHARK, DRIVERS                     #
                #        Core code/Algorithms in most modules           #
                #                                                       #
                #        Max Planck Institute fuer Kohlenforschung      #
                #                Kaiser Wilhelm Platz 1                 #
                #                 D-45470 Muelheim/Ruhr                 #
                #                      Germany                          #
                #                                                       #
                #                  All rights reserved                  #
                #                        -***-                          #
                #########################################################


                         Program Version 6.0.0  -   RELEASE   -


 With contributions from (in alphabetic order):
   Daniel Aravena         : Magnetic Suceptibility
   Michael Atanasov       : Ab Initio Ligand Field Theory (pilot matlab implementation)
   Alexander A. Auer      : GIAO ZORA, VPT2 properties, NMR spectrum
   Ute Becker             : All parallelization in ORCA, NUMFREQ, NUMCALC
   Giovanni Bistoni       : ED, misc. LED, open-shell LED, HFLD
   Martin Brehm           : Molecular dynamics
   Dmytro Bykov           : pre 5.0 version of the SCF Hessian
   Marcos Casanova-Páez   : Triplet and SCS-CIS(D). UHF-(DLPNO)-IP/EA/STEOM-CCSD. UHF-CVS-IP/STEOM-CCSD
   Vijay G. Chilkuri      : MRCI spin determinant printing, contributions to CSF-ICE
   Pauline Colinet        : FMM embedding
   Dipayan Datta          : RHF DLPNO-CCSD density
   Achintya Kumar Dutta   : EOM-CC, STEOM-CC
   Nicolas Foglia         : Exact transition moments, OPA infrastructure, MCD improvements
   Dmitry Ganyushin       : Spin-Orbit,Spin-Spin,Magnetic field MRCI
   Miquel Garcia          : C-PCM and meta-GGA Hessian, CCSD/C-PCM, Gaussian charge scheme
   Tiago L. C. Gouveia    : GS-ROHF, GS-ROCIS
   Yang Guo               : DLPNO-NEVPT2, F12-NEVPT2, CIM, IAO-localization
   Andreas Hansen         : Spin unrestricted coupled pair/coupled cluster methods
   Ingolf Harden          : AUTO-CI MPn and infrastructure 
   Benjamin Helmich-Paris : MC-RPA, TRAH-(SCF,CASSCF), AVAS, COSX integrals, SCF dyn. polar.
   Lee Huntington         : MR-EOM, pCC
   Robert Izsak           : Overlap fitted RIJCOSX, COSX-SCS-MP3, EOM
   Riya Kayal             : Wick's Theorem for AUTO-CI, AUTO-CI UHF-CCSDT
   Emily Kempfer          : AUTO-CI, RHF CISDT and CCSDT
   Christian Kollmar      : KDIIS, OOCD, Brueckner-CCSD(T), CCSD density, CASPT2, CASPT2-K, improved NEVPT2
   Axel Koslowski         : Symmetry handling
   Simone Kossmann        : Meta GGA functionals, TD-DFT gradient, OOMP2, (MP2 Hessian; deprecated post 5.0)
   Lucas Lang             : DCDCAS
   Marvin Lechner         : AUTO-CI (C++ implementation), FIC-MRCC
   Spencer Leger          : CASSCF response
   Dagmar Lenk            : GEPOL surface, SMD, ORCA-2-JSON
   Dimitrios Liakos       : Extrapolation schemes; Compound Job, initial MDCI parallelization
   Dimitrios Manganas     : Further ROCIS development; embedding schemes. LFT, Crystal Embedding
   Dimitrios Pantazis     : SARC Basis sets
   Anastasios Papadopoulos: AUTO-CI, single reference methods and gradients
   Taras Petrenko         : pre 6.0 DFT Hessian and TD-DFT gradient, (ASA, deprecated), ECA, 1-Electron XAS/XES, NRVS
   Peter Pinski           : DLPNO-MP2, DLPNO-MP2 Gradient
   Christoph Reimann      : Effective Core Potentials
   Marius Retegan         : Local ZFS, SOC
   Christoph Riplinger    : Optimizer, TS searches, QM/MM, DLPNO-CCSD(T), (RO)-DLPNO pert. Triples
   Michael Roemelt        : Original ROCIS implementation
   Masaaki Saitow         : Open-shell DLPNO-CCSD energy and density
   Barbara Sandhoefer     : DKH picture change effects
   Kantharuban Sivalingam : CASSCF convergence/infrastructure, NEVPT2 and variants, FIC-MRCI
   Bernardo de Souza      : ESD, SOC TD-DFT
   Georgi Stoychev        : AutoAux, RI-MP2 NMR, DLPNO-MP2 response, X2C
   Van Anh Tran           : RI-MP2 g-tensors
   Willem Van den Heuvel  : Paramagnetic NMR
   Zikuan Wang            : NOTCH, Electric field optimization 
   Frank Wennmohs         : Technical directorship and infrastructure
   Hang Xu                : AUTO-CI-Response properties 


 We gratefully acknowledge several colleagues who have allowed us to
 interface, adapt or use parts of their codes:
   Stefan Grimme, W. Hujo, H. Kruse, P. Pracht,  : VdW corrections, initial TS optimization,
                  C. Bannwarth, S. Ehlert,         DFT functionals, gCP, sTDA/sTD-DF
                  L. Wittmann, M. Mueller
   Ed Valeev, F. Pavosevic, A. Kumar             : LibInt (2-el integral package), F12 methods
   Garnet Chan, S. Sharma, J. Yang, R. Olivares  : DMRG
   Ulf Ekstrom                                   : XCFun DFT Library
   Mihaly Kallay                                 : mrcc  (arbitrary order and MRCC methods)
   Frank Weinhold                                : gennbo (NPA and NBO analysis)
   Simon Mueller                                 : openCOSMO-RS
   Christopher J. Cramer and Donald G. Truhlar   : smd solvation model
   Lars Goerigk                                  : TD-DFT with DH, B97 family of functionals
   V. Asgeirsson, H. Jonsson                     : NEB implementation
   FAccTs GmbH                                   : IRC, NEB, NEB-TS, DLPNO-Multilevel, CI-OPT
                                                   MM, QMMM, 2- and 3-layer-ONIOM, Crystal-QMMM,
                                                   LR-CPCM, SF, NACMEs, symmetry and pop. for TD-DFT,
                                                   nearIR, NL-DFT gradient (VV10), updates on ESD,
                                                   ML-optimized integration grids, MBIS, APM,
                                                   GOAT, DOCKER, SOLVATOR, interface openCOSMO-RS
   S Lehtola, MJT Oliveira, MAL Marques          : LibXC Library
   Liviu Ungur et al                             : ANISO software


 Your calculation uses the libint2 library for the computation of 2-el integrals
 For citations please refer to: http://libint.valeyev.net

 Your ORCA version has been built with support for libXC version: 6.2.2
 For citations please refer to: https://libxc.gitlab.io

 This ORCA versions uses:
   CBLAS   interface :  Fast vector & matrix operations
   LAPACKE interface :  Fast linear algebra routines
   Shared memory     :  Shared parallel matrices


Your calculation utilizes the atom-pairwise dispersion correction
with the zero-damping scheme (D30)


XCFun DFT library Copyright 2009-2010 Ulf Ekstrom and contributors.
See http://admol.org/xcfun for more information.
This is free software; see the source code for copying conditions.
There is ABSOLUTELY NO WARRANTY; not even for MERCHANTABILITY or FITNESS FOR A PARTICULAR PURPOSE.
For details see the documentation.
Scientific users of this library should cite U. Ekstrom, L. Visscher, R. Bast, A. J. Thorvaldsen and K. Ruud;
J.Chem.Theor.Comp. 2010, DOI: 10.1021/ct100117s
XCFun Version 0.99 

Warning: RI is on but no J-basis has been assigned. Assigning Def2/J (nothing to worry about!)
================================================================================

----- Orbital basis set information -----
Your calculation utilizes the basis: def2-TZVP
   F. Weigend and R. Ahlrichs, Phys. Chem. Chem. Phys. 7, 3297 (2005).

----- AuxJ basis set information -----
Your calculation utilizes the auxiliary basis: def2/J
   F. Weigend, Phys. Chem. Chem. Phys. 8, 1057 (2006).

================================================================================
                                        WARNINGS
                       Please study these warnings very carefully!
================================================================================

WARNING: Functional chosen is sensitive to the integration grid.
         DEFGRID3 seems to be a minimum grid for robust results!

================================================================================
                                       INPUT FILE
================================================================================
NAME = data/single_point_PO_M06-2x/280677/280677.inp
|  1> ! RIJCOSX M062X def2-TZVP D3ZERO NormalSCF
|  2> %pal
|  3> nprocs 6
|  4> end
|  5> 
|  6> * xyz 0 1
|  7>   C          -2.78688506032424     -2.98048941366609      0.46367145191696
|  8>   C          -2.33920624238383     -2.50729438870092     -0.78204973036637
|  9>   C          -1.34676402391512     -1.51619412754973     -0.84156507836212
| 10>   C          -0.80200397359762     -0.99269373631400      0.34912103282993
| 11>   C          -1.24368734810890     -1.47772818431643      1.59610852232447
| 12>   C          -2.23688633312830     -2.46767156544479      1.65115563058123
| 13>   P           0.48488412731701      0.30808357148898      0.38417341408261
| 14>   O           1.16269900745910      0.41077297260148      1.75000375126036
| 15>   C           1.63358958001523     -0.04738792296638     -1.00997604366609
| 16>   C           2.22923116839195     -1.46583384893924     -1.01987317974331
| 17>   C           2.83242925784072     -1.90025819815342      0.32883176168799
| 18>   N           3.72187469799467     -0.87125487903764      0.87129246001425
| 19>   C          -0.35106829336458      1.87936591078634     -0.05511278255392
| 20>   C          -0.14387266447530      2.96255198294822      0.82122421730396
| 21>   C          -0.73845667723595      4.20542651802829      0.55055431350605
| 22>   C          -1.54033064888710      4.36802713992186     -0.59157223747079
| 23>   C          -1.75205817831518      3.28577085136007     -1.46459530077531
| 24>   C          -1.15987098598120      2.04198289471486     -1.19793585085722
| 25>   H          -3.56429712295496     -3.75865553778153      0.50772684263767
| 26>   H          -2.76138312566871     -2.91719073826019     -1.71236486771571
| 27>   H          -0.99084629437359     -1.16349041923999     -1.82205586947016
| 28>   H          -0.78305254341503     -1.06973279619648      2.50931634812942
| 29>   H          -2.58158676291878     -2.84506531877757      2.62618596486114
| 30>   H           1.12301234403813      0.19235516694132     -1.96637314823797
| 31>   H           2.44202673292311      0.70327126472028     -0.87803514098749
| 32>   H           1.45329940190588     -2.20139928308026     -1.32239204005889
| 33>   H           3.02062562725658     -1.48604849144821     -1.79942650361391
| 34>   H           1.99313186094175     -2.17421004756180      1.01827562199013
| 35>   H           3.40820862793601     -2.83546021301412      0.15967406458234
| 36>   H           3.12173968722028     -0.19296961488372      1.37374061396315
| 37>   H           4.32157781975847     -1.28899892645857      1.59365884124612
| 38>   H           0.48473183932405      2.80027663951412      1.71065293882396
| 39>   H          -0.57635481975929      5.05164519193425      1.23587129036303
| 40>   H          -2.00702362466093      5.34246534912664     -0.80292698424223
| 41>   H          -2.38530760175560      3.41182201090530     -2.35618005340856
| 42>   H          -1.34211745509875      1.19621318679903     -1.87880327057470
| 43> **                         ****END OF INPUT****
================================================================================

                       ****************************
                       * Single Point Calculation *
                       ****************************

---------------------------------
CARTESIAN COORDINATES (ANGSTROEM)
---------------------------------
  C     -2.786885   -2.980489    0.463671
  C     -2.339206   -2.507294   -0.782050
  C     -1.346764   -1.516194   -0.841565
  C     -0.802004   -0.992694    0.349121
  C     -1.243687   -1.477728    1.596109
  C     -2.236886   -2.467672    1.651156
  P      0.484884    0.308084    0.384173
  O      1.162699    0.410773    1.750004
  C      1.633590   -0.047388   -1.009976
  C      2.229231   -1.465834   -1.019873
  C      2.832429   -1.900258    0.328832
  N      3.721875   -0.871255    0.871292
  C     -0.351068    1.879366   -0.055113
  C     -0.143873    2.962552    0.821224
  C     -0.738457    4.205427    0.550554
  C     -1.540331    4.368027   -0.591572
  C     -1.752058    3.285771   -1.464595
  C     -1.159871    2.041983   -1.197936
  H     -3.564297   -3.758656    0.507727
  H     -2.761383   -2.917191   -1.712365
  H     -0.990846   -1.163490   -1.822056
  H     -0.783053   -1.069733    2.509316
  H     -2.581587   -2.845065    2.626186
  H      1.123012    0.192355   -1.966373
  H      2.442027    0.703271   -0.878035
  H      1.453299   -2.201399   -1.322392
  H      3.020626   -1.486048   -1.799427
  H      1.993132   -2.174210    1.018276
  H      3.408209   -2.835460    0.159674
  H      3.121740   -0.192970    1.373741
  H      4.321578   -1.288999    1.593659
  H      0.484732    2.800277    1.710653
  H     -0.576355    5.051645    1.235871
  H     -2.007024    5.342465   -0.802927
  H     -2.385308    3.411822   -2.356180
  H     -1.342117    1.196213   -1.878803

----------------------------
CARTESIAN COORDINATES (A.U.)
----------------------------
  NO LB      ZA    FRAG     MASS         X           Y           Z
   0 C     6.0000    0    12.011   -5.266450   -5.632309    0.876212
   1 C     6.0000    0    12.011   -4.420459   -4.738100   -1.477860
   2 C     6.0000    0    12.011   -2.545015   -2.865192   -1.590328
   3 C     6.0000    0    12.011   -1.515568   -1.875919    0.659743
   4 C     6.0000    0    12.011   -2.350228   -2.792502    3.016208
   5 C     6.0000    0    12.011   -4.227103   -4.663223    3.120232
   6 P    15.0000    0    30.974    0.916298    0.582194    0.725983
   7 O     8.0000    0    15.999    2.197183    0.776248    3.307028
   8 C     6.0000    0    12.011    3.087037   -0.089550   -1.908578
   9 C     6.0000    0    12.011    4.212636   -2.770025   -1.927281
  10 C     6.0000    0    12.011    5.352516   -3.590968    0.621402
  11 N     7.0000    0    14.007    7.033324   -1.646433    1.646504
  12 C     6.0000    0    12.011   -0.663423    3.551487   -0.104148
  13 C     6.0000    0    12.011   -0.271880    5.598412    1.551889
  14 C     6.0000    0    12.011   -1.395481    7.947104    1.040397
  15 C     6.0000    0    12.011   -2.910803    8.254375   -1.117910
  16 C     6.0000    0    12.011   -3.310910    6.209207   -2.767684
  17 C     6.0000    0    12.011   -2.191839    3.858788   -2.263771
  18 H     1.0000    0     1.008   -6.735545   -7.102830    0.959465
  19 H     1.0000    0     1.008   -5.218258   -5.512692   -3.235901
  20 H     1.0000    0     1.008   -1.872428   -2.198678   -3.443187
  21 H     1.0000    0     1.008   -1.479755   -2.021502    4.741921
  22 H     1.0000    0     1.008   -4.878492   -5.376394    4.962772
  23 H     1.0000    0     1.008    2.122186    0.363499   -3.715907
  24 H     1.0000    0     1.008    4.614762    1.328990   -1.659246
  25 H     1.0000    0     1.008    2.746338   -4.160042   -2.498959
  26 H     1.0000    0     1.008    5.708155   -2.808225   -3.400423
  27 H     1.0000    0     1.008    3.766473   -4.108662    1.924262
  28 H     1.0000    0     1.008    6.440581   -5.358243    0.301740
  29 H     1.0000    0     1.008    5.899233   -0.364660    2.595994
  30 H     1.0000    0     1.008    8.166599   -2.435855    3.011579
  31 H     1.0000    0     1.008    0.916010    5.291756    3.232666
  32 H     1.0000    0     1.008   -1.089153    9.546226    2.335458
  33 H     1.0000    0     1.008   -3.792725   10.095796   -1.517312
  34 H     1.0000    0     1.008   -4.507578    6.447409   -4.452535
  35 H     1.0000    0     1.008   -2.536234    2.260515   -3.550424

--------------------------------
INTERNAL COORDINATES (ANGSTROEM)
--------------------------------
 C      0   0   0     0.000000000000     0.00000000     0.00000000
 C      1   0   0     1.405756422597     0.00000000     0.00000000
 C      2   1   0     1.403838794627   120.02316494     0.00000000
 C      3   2   1     1.410159419155   119.95996754   359.81093384
 C      4   3   2     1.409013987874   119.89271857     0.77939805
 C      5   4   3     1.403375326066   119.95957209   359.16076283
 P      4   3   2     1.830117826317   123.48198585   180.46532210
 O      7   4   3     1.528224667645   112.13289959   195.89019606
 C      7   4   3     1.841069501939   106.67821338   321.85682452
 C      9   7   4     1.538465371731   115.11609065   305.60805481
 C     10   9   7     1.539992684835   113.96025072   310.43966383
 N     11  10   9     1.464317121047   111.35351260   311.41285293
 C      7   4   3     1.833225845876   106.49708252    74.25912170
 C     13   7   4     1.408612307513   116.29203048   128.58373959
 C     14  13   7     1.404111624837   119.89791784   179.41161937
 C     15  14  13     1.404953339829   120.05559503     0.08728128
 C     16  15  14     1.406512171974   120.09593616     0.15470181
 C     17  16  15     1.403139841246   120.03850985   359.84805875
 H      1   2   3     1.100841909311   119.88797553   180.07905912
 H      2   1   3     1.100788168970   120.09550283   179.62646145
 H      3   2   1     1.101108317789   119.49867899   179.01427988
 H      5   4   3     1.101178093286   118.37672009   178.45956152
 H      6   5   4     1.100876280114   119.87827929   180.05133650
 H      9   7   4     1.110342868077   108.88453243    72.05431899
 H      9   7   4     1.111066266278   103.51004395   185.53825935
 H     10   9   7     1.111145478770   109.98242651    73.14226276
 H     10   9   7     1.111043296209   107.28149241   189.31807826
 H     11  10   9     1.120179705558   108.33311786    76.92094044
 H     11  10   9     1.111188111040   107.88186097   191.28555281
 H     12  11  10     1.035706077095   106.73618164    84.09914003
 H     12  11  10     1.027602604192   109.22181667   197.43364906
 H     14  13   7     1.101163184977   118.23898005   359.12328494
 H     15  14  13     1.100918895756   119.86994482   179.98939166
 H     16  15  14     1.100910071794   120.03009321   179.94734658
 H     17  16  15     1.100825643887   120.07986811   179.63296046
 H     18  17  16     1.100963495111   119.57569693   179.14799924

---------------------------
INTERNAL COORDINATES (A.U.)
---------------------------
 C      0   0   0     0.000000000000     0.00000000     0.00000000
 C      1   0   0     2.656494649710     0.00000000     0.00000000
 C      2   1   0     2.652870858019   120.02316494     0.00000000
 C      3   2   1     2.664815107372   119.95996754   359.81093384
 C      4   3   2     2.662650555946   119.89271857     0.77939805
 C      5   4   3     2.651995029367   119.95957209   359.16076283
 P      4   3   2     3.458421484546   123.48198585   180.46532210
 O      7   4   3     2.887926092951   112.13289959   195.89019606
 C      7   4   3     3.479117152180   106.67821338   321.85682452
 C      9   7   4     2.907278219093   115.11609065   305.60805481
 C     10   9   7     2.910164422581   113.96025072   310.43966383
 N     11  10   9     2.767158331990   111.35351260   311.41285293
 C      7   4   3     3.464294790331   106.49708252    74.25912170
 C     13   7   4     2.661891490070   116.29203048   128.58373959
 C     14  13   7     2.653386432398   119.89791784   179.41161937
 C     15  14  13     2.654977043216   120.05559503     0.08728128
 C     16  15  14     2.657922809058   120.09593616     0.15470181
 C     17  16  15     2.651550027548   120.03850985   359.84805875
 H      1   2   3     2.080289725341   119.88797553   180.07905912
 H      2   1   3     2.080188170813   120.09550283   179.62646145
 H      3   2   1     2.080793164405   119.49867899   179.01427988
 H      5   4   3     2.080925020985   118.37672009   178.45956152
 H      6   5   4     2.080354676746   119.87827929   180.05133650
 H      9   7   4     2.098243935419   108.88453243    72.05431899
 H      9   7   4     2.099610959903   103.51004395   185.53825935
 H     10   9   7     2.099760649821   109.98242651    73.14226276
 H     10   9   7     2.099567552764   107.28149241   189.31807826
 H     11  10   9     2.116832864281   108.33311786    76.92094044
 H     11  10   9     2.099841213135   107.88186097   191.28555281
 H     12  11  10     1.957200840948   106.73618164    84.09914003
 H     12  11  10     1.941887496428   109.22181667   197.43364906
 H     14  13   7     2.080896848363   118.23898005   359.12328494
 H     15  14  13     2.080435208638   119.86994482   179.98939166
 H     16  15  14     2.080418533766   120.03009321   179.94734658
 H     17  16  15     2.080258988143   120.07986811   179.63296046
 H     18  17  16     2.080519489204   119.57569693   179.14799924

---------------------
BASIS SET INFORMATION
---------------------
There are 5 groups of distinct atoms

 Group   1 Type C   : 11s6p2d1f contracted to 5s3p2d1f pattern {62111/411/11/1}
 Group   2 Type P   : 14s9p3d1f contracted to 5s5p2d1f pattern {73211/51111/21/1}
 Group   3 Type O   : 11s6p2d1f contracted to 5s3p2d1f pattern {62111/411/11/1}
 Group   4 Type N   : 11s6p2d1f contracted to 5s3p2d1f pattern {62111/411/11/1}
 Group   5 Type H   : 5s1p contracted to 3s1p pattern {311/1}

Atom   0C    basis set group =>   1
Atom   1C    basis set group =>   1
Atom   2C    basis set group =>   1
Atom   3C    basis set group =>   1
Atom   4C    basis set group =>   1
Atom   5C    basis set group =>   1
Atom   6P    basis set group =>   2
Atom   7O    basis set group =>   3
Atom   8C    basis set group =>   1
Atom   9C    basis set group =>   1
Atom  10C    basis set group =>   1
Atom  11N    basis set group =>   4
Atom  12C    basis set group =>   1
Atom  13C    basis set group =>   1
Atom  14C    basis set group =>   1
Atom  15C    basis set group =>   1
Atom  16C    basis set group =>   1
Atom  17C    basis set group =>   1
Atom  18H    basis set group =>   5
Atom  19H    basis set group =>   5
Atom  20H    basis set group =>   5
Atom  21H    basis set group =>   5
Atom  22H    basis set group =>   5
Atom  23H    basis set group =>   5
Atom  24H    basis set group =>   5
Atom  25H    basis set group =>   5
Atom  26H    basis set group =>   5
Atom  27H    basis set group =>   5
Atom  28H    basis set group =>   5
Atom  29H    basis set group =>   5
Atom  30H    basis set group =>   5
Atom  31H    basis set group =>   5
Atom  32H    basis set group =>   5
Atom  33H    basis set group =>   5
Atom  34H    basis set group =>   5
Atom  35H    basis set group =>   5
---------------------------------
AUXILIARY/J BASIS SET INFORMATION
---------------------------------
There are 5 groups of distinct atoms

 Group   1 Type C   : 12s5p4d2f1g contracted to 6s4p3d1f1g pattern {711111/2111/211/2/1}
 Group   2 Type P   : 14s5p5d2f1g contracted to 8s4p3d1f1g pattern {71111111/2111/311/2/1}
 Group   3 Type O   : 12s5p4d2f1g contracted to 6s4p3d1f1g pattern {711111/2111/211/2/1}
 Group   4 Type N   : 12s5p4d2f1g contracted to 6s4p3d1f1g pattern {711111/2111/211/2/1}
 Group   5 Type H   : 5s2p1d contracted to 3s1p1d pattern {311/2/1}

Atom   0C    basis set group =>   1
Atom   1C    basis set group =>   1
Atom   2C    basis set group =>   1
Atom   3C    basis set group =>   1
Atom   4C    basis set group =>   1
Atom   5C    basis set group =>   1
Atom   6P    basis set group =>   2
Atom   7O    basis set group =>   3
Atom   8C    basis set group =>   1
Atom   9C    basis set group =>   1
Atom  10C    basis set group =>   1
Atom  11N    basis set group =>   4
Atom  12C    basis set group =>   1
Atom  13C    basis set group =>   1
Atom  14C    basis set group =>   1
Atom  15C    basis set group =>   1
Atom  16C    basis set group =>   1
Atom  17C    basis set group =>   1
Atom  18H    basis set group =>   5
Atom  19H    basis set group =>   5
Atom  20H    basis set group =>   5
Atom  21H    basis set group =>   5
Atom  22H    basis set group =>   5
Atom  23H    basis set group =>   5
Atom  24H    basis set group =>   5
Atom  25H    basis set group =>   5
Atom  26H    basis set group =>   5
Atom  27H    basis set group =>   5
Atom  28H    basis set group =>   5
Atom  29H    basis set group =>   5
Atom  30H    basis set group =>   5
Atom  31H    basis set group =>   5
Atom  32H    basis set group =>   5
Atom  33H    basis set group =>   5
Atom  34H    basis set group =>   5
Atom  35H    basis set group =>   5


           ************************************************************
           *        Program running with 6 parallel MPI-processes     *
           *              working on a common directory               *
           ************************************************************
------------------------------------------------------------------------------
                             ORCA STARTUP CALCULATIONS
                           -- RI-GTO INTEGRALS CHOSEN --
------------------------------------------------------------------------------
------------------------------------------------------------------------------
                   ___                                                        
                  /   \      - P O W E R E D   B Y -                         
                 /     \                                                     
                 |  |  |   _    _      __       _____    __    __             
                 |  |  |  | |  | |    /  \     |  _  \  |  |  /  |          
                  \  \/   | |  | |   /    \    | | | |  |  | /  /          
                 / \  \   | |__| |  /  /\  \   | |_| |  |  |/  /          
                |  |  |   |  __  | /  /__\  \  |    /   |      \           
                |  |  |   | |  | | |   __   |  |    \   |  |\   \          
                \     /   | |  | | |  |  |  |  | |\  \  |  | \   \       
                 \___/    |_|  |_| |__|  |__|  |_| \__\ |__|  \__/        
                                                                              
                      - O R C A' S   B I G   F R I E N D -                    
                                      &                                       
                       - I N T E G R A L  F E E D E R -                       
                                                                              
 v1 FN, 2020, v2 2021, v3 2022-2024                                           
------------------------------------------------------------------------------


----------------------
SHARK INTEGRAL PACKAGE
----------------------

Number of atoms                             ...     36
Number of basis functions                   ...    672
Number of shells                            ...    272
Maximum angular momentum                    ...      3
Integral batch strategy                     ... SHARK/LIBINT Hybrid
RI-J (if used) integral strategy            ... SPLIT-RIJ (Revised 2003 algorithm where possible)
Printlevel                                  ...      1
Contraction scheme used                     ... SEGMENTED contraction
Prescreening option                         ... SCHWARTZ
   Thresh                                   ... 1.000e-10
   Tcut                                     ... 1.000e-11
   Tpresel                                  ... 1.000e-11 
Coulomb Range Separation                    ... NOT USED
Exchange Range Separation                   ... NOT USED
Multipole approximations                    ... NOT USED
Finite Nucleus Model                        ... NOT USED
CABS basis                                  ... NOT available
Auxiliary Coulomb fitting basis             ... AVAILABLE
   # of basis functions in Aux-J            ...   1082
   # of shells in Aux-J                     ...    362
   Maximum angular momentum in Aux-J        ...      4
Auxiliary J/K fitting basis                 ... NOT available
Auxiliary Correlation fitting basis         ... NOT available
Auxiliary 'external' fitting basis          ... NOT available

Checking pre-screening integrals            ... done (  0.0 sec) Dimension = 272
Check shell pair data                       ... done (  0.0 sec)
Shell pair information
Shell pair cut-off parameter TPreSel        ...   1.0e-11
Total number of shell pairs                 ...     37128
Shell pairs after pre-screening             ...     27683
Total number of primitive shell pairs       ...    113514
Primitive shell pairs kept                  ...     56780
          la=0 lb=0:   7535 shell pairs
          la=1 lb=0:   8139 shell pairs
          la=1 lb=1:   2254 shell pairs
          la=2 lb=0:   3778 shell pairs
          la=2 lb=1:   2103 shell pairs
          la=2 lb=2:    527 shell pairs
          la=3 lb=0:   1790 shell pairs
          la=3 lb=1:    986 shell pairs
          la=3 lb=2:    458 shell pairs
          la=3 lb=3:    113 shell pairs

Calculating one electron integrals          ... done (  0.0 sec)
Calculating RI/J V-Matrix + Cholesky decomp.... done (  0.1 sec)
Calculating Nuclear repulsion               ... done (  0.0 sec) ENN=   1431.699157125272 Eh

Diagonalization of the overlap matrix:
Smallest eigenvalue                        ... 8.505e-06
Time for diagonalization                   ...    0.083 sec
Threshold for overlap eigenvalues          ... 1.000e-07
Number of eigenvalues below threshold      ... 0
Time for construction of square roots      ...    0.038 sec
Total time needed                          ...    0.126 sec

-------------------
DFT GRID GENERATION
-------------------

General Integration Accuracy     IntAcc      ... 4.388
Radial Grid Type                 RadialGrid  ... OptM3 with GC (2021)
Angular Grid (max. ang.)         AngularGrid ... 4 (Lebedev-302)
Angular grid pruning method      GridPruning ... 4 (adaptive)
Weight generation scheme         WeightScheme... mBecke (2022)
Basis function cutoff            BFCut       ... 1.0000e-10
Integration weight cutoff        WCut        ... 1.0000e-14
Partially contracted basis set               ... off
Rotationally invariant grid construction     ... off
Angular grids for H and He will be reduced by one unit

Total number of grid points                  ...   166134
Total number of batches                      ...     2612
Average number of points per batch           ...       63
Average number of grid points per atom       ...     4615

--------------------
COSX GRID GENERATION
--------------------

GRIDX 1
-------
General Integration Accuracy     IntAcc      ... 3.816
Radial Grid Type                 RadialGrid  ... OptM3 with GC (2021)
Angular Grid (max. ang.)         AngularGrid ... 1 (Lebedev-50)
Angular grid pruning method      GridPruning ... 4 (adaptive)
Weight generation scheme         WeightScheme... mBecke (2022)
Basis function cutoff            BFCut       ... 1.0000e-10
Integration weight cutoff        WCut        ... 1.0000e-14
Partially contracted basis set               ... on
Rotationally invariant grid construction     ... off
Angular grids for H and He will be reduced by one unit

Total number of grid points                  ...    22072
Total number of batches                      ...      192
Average number of points per batch           ...      114
Average number of grid points per atom       ...      613
UseSFitting                                  ... on

GRIDX 2
-------
General Integration Accuracy     IntAcc      ... 4.020
Radial Grid Type                 RadialGrid  ... OptM3 with GC (2021)
Angular Grid (max. ang.)         AngularGrid ... 2 (Lebedev-110)
Angular grid pruning method      GridPruning ... 4 (adaptive)
Weight generation scheme         WeightScheme... mBecke (2022)
Basis function cutoff            BFCut       ... 1.0000e-10
Integration weight cutoff        WCut        ... 1.0000e-14
Partially contracted basis set               ... on
Rotationally invariant grid construction     ... off
Angular grids for H and He will be reduced by one unit

Total number of grid points                  ...    45111
Total number of batches                      ...      370
Average number of points per batch           ...      121
Average number of grid points per atom       ...     1253
UseSFitting                                  ... on

GRIDX 3
-------
General Integration Accuracy     IntAcc      ... 4.338
Radial Grid Type                 RadialGrid  ... OptM3 with GC (2021)
Angular Grid (max. ang.)         AngularGrid ... 3 (Lebedev-194)
Angular grid pruning method      GridPruning ... 4 (adaptive)
Weight generation scheme         WeightScheme... mBecke (2022)
Basis function cutoff            BFCut       ... 1.0000e-10
Integration weight cutoff        WCut        ... 1.0000e-14
Partially contracted basis set               ... on
Rotationally invariant grid construction     ... off
Angular grids for H and He will be reduced by one unit

Total number of grid points                  ...    98917
Total number of batches                      ...      790
Average number of points per batch           ...      125
Average number of grid points per atom       ...     2748
UseSFitting                                  ... on
Initializing property integral containers    ... done (  0.0 sec)

SHARK setup successfully completed in   3.4 seconds

Maximum memory used throughout the entire STARTUP-calculation: 66.9 MB


           ************************************************************
           *        Program running with 6 parallel MPI-processes     *
           *              working on a common directory               *
           ************************************************************
-------------------------------------------------------------------------------
                                 ORCA GUESS
                   Start orbitals & Density for SCF / CASSCF
-------------------------------------------------------------------------------

------------
SCF SETTINGS
------------
Hamiltonian:
 Density Functional     Method          .... DFT(GTOs)
 Exchange Functional    Exchange        .... M062X
 Correlation Functional Correlation     .... M062X
 Gradients option       PostSCFGGA      .... off
 Hybrid DFT is turned on
   Fraction HF Exchange ScalHFX         ....  0.540000
   Scaling of DF-GGA-X  ScalDFX         ....  0.460000
   Scaling of DF-GGA-C  ScalDFC         ....  1.000000
   Scaling of DF-LDA-C  ScalLDAC        ....  1.000000
   Perturbative correction              ....  0.000000
 RI-approximation to the Coulomb term is turned on
   Number of AuxJ basis functions       .... 1082
   RIJ-COSX (HFX calculated with COS-X)).... on


General Settings:
 Integral files         IntName         .... data/single_point_PO_M06-2x/280677/280677
 Hartree-Fock type      HFTyp           .... RHF
 Total Charge           Charge          ....    0
 Multiplicity           Mult            ....    1
 Number of Electrons    NEL             ....  138
 Basis Dimension        Dim             ....  672
 Nuclear Repulsion      ENuc            ....   1431.6991571253 Eh

Convergence Acceleration:
 AO-DIIS                CNVDIIS         .... on
   Start iteration      DIISMaxIt       ....    12
   Startup error        DIISStart       ....  0.200000
   # of expansion vecs  DIISMaxEq       ....     5
   Bias factor          DIISBfac        ....   1.050
   Max. coefficient     DIISMaxC        ....  10.000
 MO-DIIS                CNVKDIIS        .... off
 Trust-Rad. Augm. Hess. CNVTRAH         .... auto
   Auto Start mean grad. ratio tolernc. ....  1.125000
   Auto Start start iteration           ....    50
   Auto Start num. interpolation iter.  ....    10
   Max. Number of Micro iterations      ....    24
   Max. Number of Macro iterations      .... Maxiter - #DIIS iter
   Number of Davidson start vectors     ....     2
   Converg. threshold    (grad. norm)   ....   5.000e-05
   Grad. Scal. Fac. for Micro threshold ....   0.100
   Minimum threshold for Micro iter.    ....   1.000e-02
   NR start threshold (gradient norm)   ....   1.000e-04
   Initial trust radius                 ....   0.400
   Minimum AH scaling param. (alpha)    ....   1.000
   Maximum AH scaling param. (alpha)    .... 1000.000
   Quad. conv. algorithm                .... NR
   White noise on init. David. guess    .... on
   Maximum white noise                  ....   0.010
   Pseudo random numbers                .... off
   Inactive MOs                         .... canonical
   Orbital update algorithm             .... Taylor
   Preconditioner                       .... Diag
   Full preconditioner red. dimension   ....   250
 SOSCF                  CNVSOSCF        .... on
   Start iteration      SOSCFMaxIt      ....   150
   Startup grad/error   SOSCFStart      ....  0.003300
   Hessian update       SOSCFHessUp     .... L-BFGS
 Level Shifting         CNVShift        .... on
   Level shift para.    LevelShift      ....    0.2500
   Turn off err/grad.   ShiftErr        ....    0.0010
 Zerner damping         CNVZerner       .... off
 Static damping         CNVDamp         .... on
   Fraction old density DampFac         ....    0.7000
   Max. Damping (<1)    DampMax         ....    0.9800
   Min. Damping (>=0)   DampMin         ....    0.0000
   Turn off err/grad.   DampErr         ....    0.1000

SCF Procedure:
 Maximum # iterations   MaxIter         ....   125
 SCF integral mode      SCFMode         .... Direct
   Integral package                     .... SHARK and LIBINT hybrid scheme
 Reset frequency        DirectResetFreq ....    20
 Integral Threshold     Thresh          ....  1.000e-10 Eh
 Primitive CutOff       TCut            ....  1.000e-11 Eh

Convergence Tolerance:
 Convergence Check Mode ConvCheckMode   .... Total+1el-Energy
 Convergence forced     ConvForced      .... 0
 Energy Change          TolE            ....  1.000e-06 Eh
 1-El. energy change                    ....  1.000e-03 Eh
 Orbital Gradient       TolG            ....  5.000e-05
 Orbital Rotation angle TolX            ....  5.000e-05
 DIIS Error             TolErr          ....  1.000e-05

------------------------------
INITIAL GUESS: MODEL POTENTIAL
------------------------------
Loading Hartree-Fock densities                     ... done
Calculating cut-offs                               ... done
Initializing the effective Hamiltonian             ... done
Setting up the integral package (SHARK)            ... done
Starting the Coulomb interaction                   ... done (   0.4 sec)
Making the grid                                    ... done (   0.3 sec)
Mapping shells                                     ... done
Starting the XC term evaluation                    ... done (   0.4 sec)
  promolecular density results
     # of electrons  =    137.984960386
     EX              =   -119.175723693
     EC              =     -4.658368487
     EX+EC           =   -123.834092180
Transforming the Hamiltonian                       ... done (   0.0 sec)
Diagonalizing the Hamiltonian                      ... done (   0.1 sec)
Back transforming the eigenvectors                 ... done (   0.0 sec)
Now organizing SCF variables                       ... done
                      ------------------
                      INITIAL GUESS DONE (   1.2 sec)
                      ------------------
             **** ENERGY FILE WAS UPDATED (data/single_point_PO_M06-2x/280677/280677.en.tmp) ****
Finished Guess after   1.5 sec
Maximum memory used throughout the entire GUESS-calculation: 48.6 MB


           ************************************************************
           *        Program running with 6 parallel MPI-processes     *
           *              working on a common directory               *
           ************************************************************

-------------------------------------------------------------------------------------------
                                      ORCA LEAN-SCF
                              memory conserving SCF solver
-------------------------------------------------------------------------------------------

----------------------------------------D-I-I-S--------------------------------------------
Iteration    Energy (Eh)           Delta-E    RMSDP     MaxDP     DIISErr   Damp  Time(sec)
-------------------------------------------------------------------------------------------
               ***  Starting incremental Fock matrix formation  ***
    1    -1053.1867243088195210     0.00e+00  1.46e-03  1.20e-01  3.51e-01  0.700  12.7
    2    -1053.4340992132861174    -2.47e-01  1.20e-03  1.08e-01  1.53e-01  0.700   8.0
                               ***Turning on AO-DIIS***
    3    -1053.5440794790347354    -1.10e-01  6.59e-04  2.59e-02  5.06e-02  0.700   7.6
    4    -1053.6097203373833509    -6.56e-02  1.49e-03  5.05e-02  3.26e-02  0.000   7.1
    5    -1053.7518353476039010    -1.42e-01  1.40e-04  1.46e-02  4.22e-03  0.000   7.9
                              *** Initializing SOSCF ***
---------------------------------------S-O-S-C-F--------------------------------------
Iteration    Energy (Eh)           Delta-E    RMSDP     MaxDP     MaxGrad    Time(sec)
--------------------------------------------------------------------------------------
    6    -1053.7521858906143279    -3.51e-04  5.06e-05  6.22e-03  9.73e-04     6.9
               *** Restarting incremental Fock matrix formation ***
    7    -1053.7523000140154181    -1.14e-04  1.10e-04  4.58e-03  1.69e-04    13.1
    8    -1053.7523006994051684    -6.85e-07  2.89e-05  1.35e-03  2.88e-04    10.4
                 **** Energy Check signals convergence ****

               *****************************************************
               *                     SUCCESS                       *
               *           SCF CONVERGED AFTER   8 CYCLES          *
               *****************************************************

Recomputing exchange energy using gridx3       ... done (   19.708 sec)
Old exchange energy                            :    -65.654470126 Eh
New exchange energy                            :    -65.654443811 Eh
Exchange energy change after final integration :      0.000026315 Eh
Total energy after final integration           :  -1053.752274384 Eh
             **** ENERGY FILE WAS UPDATED (data/single_point_PO_M06-2x/280677/280677.en.tmp) ****

----------------
TOTAL SCF ENERGY
----------------

Total Energy       :      -1053.75227438438469 Eh          -28674.05715 eV

Components:
Nuclear Repulsion  :       1431.69915712527200 Eh           38958.51468 eV
Electronic Energy  :      -2485.45145782467716 Eh          -67632.57254 eV
One Electron Energy:      -4281.73458013930394 Eh         -116511.92128 eV
Two Electron Energy:       1796.28312231462655 Eh           48879.34874 eV

Virial components:
Potential Energy   :      -2102.25070602803407 Eh          -57205.14996 eV
Kinetic Energy     :       1048.49843164364916 Eh           28531.09282 eV
Virial Ratio       :          2.00501082555984

DFT components:
N(Alpha)           :       69.000050284047 electrons
N(Beta)            :       69.000050284047 electrons
N(Total)           :      138.000100568093 electrons
E(XC)              :      -60.916228454579 Eh       

---------------
SCF CONVERGENCE
---------------

  Last Energy change         ...    6.8539e-07  Tolerance :   1.0000e-06
  Last MAX-Density change    ...    1.3534e-03  Tolerance :   1.0000e-05
  Last RMS-Density change    ...    2.8904e-05  Tolerance :   1.0000e-06
  Last DIIS Error            ...    9.7326e-04  Tolerance :   1.0000e-05
  Last Orbital Gradient      ...    2.8821e-04  Tolerance :   5.0000e-05
  Last Orbital Rotation      ...    4.1478e-04  Tolerance :   5.0000e-05


----------------
ORBITAL ENERGIES
----------------

  NO   OCC          E(Eh)            E(eV) 
   0   2.0000     -78.096804     -2125.1221 
   1   2.0000     -19.572070      -532.5831 
   2   2.0000     -14.707172      -400.2025 
   3   2.0000     -10.568029      -287.5707 
   4   2.0000     -10.564394      -287.4718 
   5   2.0000     -10.563529      -287.4482 
   6   2.0000     -10.562407      -287.4177 
   7   2.0000     -10.561507      -287.3932 
   8   2.0000     -10.560891      -287.3764 
   9   2.0000     -10.560317      -287.3608 
  10   2.0000     -10.559602      -287.3414 
  11   2.0000     -10.559492      -287.3384 
  12   2.0000     -10.558751      -287.3182 
  13   2.0000     -10.557413      -287.2818 
  14   2.0000     -10.556636      -287.2607 
  15   2.0000     -10.551371      -287.1174 
  16   2.0000     -10.549988      -287.0798 
  17   2.0000     -10.540092      -286.8105 
  18   2.0000      -6.903443      -187.8522 
  19   2.0000      -5.020583      -136.6170 
  20   2.0000      -5.020266      -136.6084 
  21   2.0000      -5.018906      -136.5714 
  22   2.0000      -1.067160       -29.0389 
  23   2.0000      -0.968707       -26.3599 
  24   2.0000      -0.967809       -26.3354 
  25   2.0000      -0.963612       -26.2212 
  26   2.0000      -0.879370       -23.9289 
  27   2.0000      -0.853841       -23.2342 
  28   2.0000      -0.852249       -23.1909 
  29   2.0000      -0.849188       -23.1076 
  30   2.0000      -0.847435       -23.0599 
  31   2.0000      -0.769252       -20.9324 
  32   2.0000      -0.718344       -19.5471 
  33   2.0000      -0.698991       -19.0205 
  34   2.0000      -0.694823       -18.9071 
  35   2.0000      -0.687064       -18.6960 
  36   2.0000      -0.659309       -17.9407 
  37   2.0000      -0.627097       -17.0642 
  38   2.0000      -0.600710       -16.3461 
  39   2.0000      -0.581202       -15.8153 
  40   2.0000      -0.558216       -15.1898 
  41   2.0000      -0.543798       -14.7975 
  42   2.0000      -0.532993       -14.5035 
  43   2.0000      -0.528704       -14.3868 
  44   2.0000      -0.525343       -14.2953 
  45   2.0000      -0.521121       -14.1804 
  46   2.0000      -0.499324       -13.5873 
  47   2.0000      -0.496561       -13.5121 
  48   2.0000      -0.493234       -13.4216 
  49   2.0000      -0.492662       -13.4060 
  50   2.0000      -0.470610       -12.8059 
  51   2.0000      -0.465380       -12.6636 
  52   2.0000      -0.450190       -12.2503 
  53   2.0000      -0.447488       -12.1768 
  54   2.0000      -0.443083       -12.0569 
  55   2.0000      -0.423868       -11.5340 
  56   2.0000      -0.414016       -11.2659 
  57   2.0000      -0.413769       -11.2592 
  58   2.0000      -0.410472       -11.1695 
  59   2.0000      -0.406254       -11.0547 
  60   2.0000      -0.395982       -10.7752 
  61   2.0000      -0.388866       -10.5816 
  62   2.0000      -0.341092        -9.2816 
  63   2.0000      -0.336368        -9.1530 
  64   2.0000      -0.322312        -8.7705 
  65   2.0000      -0.320675        -8.7260 
  66   2.0000      -0.316704        -8.6180 
  67   2.0000      -0.312745        -8.5102 
  68   2.0000      -0.293338        -7.9821 
  69   0.0000      -0.017389        -0.4732 
  70   0.0000      -0.000216        -0.0059 
  71   0.0000       0.006234         0.1696 
  72   0.0000       0.011374         0.3095 
  73   0.0000       0.053278         1.4498 
  74   0.0000       0.075660         2.0588 
  75   0.0000       0.081999         2.2313 
  76   0.0000       0.087144         2.3713 
  77   0.0000       0.090552         2.4640 
  78   0.0000       0.098498         2.6803 
  79   0.0000       0.105256         2.8642 
*Only the first 10 virtual orbitals were printed.

                    ********************************
                    * MULLIKEN POPULATION ANALYSIS *
                    ********************************

-----------------------
MULLIKEN ATOMIC CHARGES
-----------------------
   0 C :   -0.136853
   1 C :   -0.155694
   2 C :   -0.222364
   3 C :   -0.019394
   4 C :   -0.149401
   5 C :   -0.135145
   6 P :    0.604981
   7 O :   -0.652729
   8 C :   -0.475242
   9 C :   -0.189181
  10 C :   -0.226309
  11 N :   -0.566056
  12 C :    0.002297
  13 C :   -0.153397
  14 C :   -0.136792
  15 C :   -0.137130
  16 C :   -0.165632
  17 C :   -0.183160
  18 H :    0.149543
  19 H :    0.148260
  20 H :    0.181784
  21 H :    0.194633
  22 H :    0.150794
  23 H :    0.185433
  24 H :    0.211830
  25 H :    0.149810
  26 H :    0.139974
  27 H :    0.156774
  28 H :    0.134626
  29 H :    0.277200
  30 H :    0.222126
  31 H :    0.194927
  32 H :    0.150281
  33 H :    0.148747
  34 H :    0.146423
  35 H :    0.154037
Sum of atomic charges:   -0.0000000

--------------------------------
MULLIKEN REDUCED ORBITAL CHARGES
--------------------------------
  0 C s       :     3.228503  s :     3.228503
      pz      :     0.881255  p :     2.840936
      px      :     0.982882
      py      :     0.976799
      dz2     :     0.012787  d :     0.061140
      dxz     :     0.018058
      dyz     :     0.017653
      dx2y2   :     0.004945
      dxy     :     0.007697
      f0      :     0.001462  f :     0.006274
      f+1     :     0.000994
      f-1     :     0.000995
      f+2     :     0.000879
      f-2     :     0.000840
      f+3     :     0.000553
      f-3     :     0.000552

  1 C s       :     3.231019  s :     3.231019
      pz      :     0.966413  p :     2.857872
      px      :     0.935138
      py      :     0.956321
      dz2     :     0.012227  d :     0.060484
      dxz     :     0.012734
      dyz     :     0.012436
      dx2y2   :     0.016159
      dxy     :     0.006928
      f0      :     0.001230  f :     0.006320
      f+1     :     0.000826
      f-1     :     0.000818
      f+2     :     0.000297
      f-2     :     0.001179
      f+3     :     0.000981
      f-3     :     0.000989

  2 C s       :     3.198977  s :     3.198977
      pz      :     0.973335  p :     2.948682
      px      :     0.966747
      py      :     1.008600
      dz2     :     0.013388  d :     0.068138
      dxz     :     0.014016
      dyz     :     0.013843
      dx2y2   :     0.019355
      dxy     :     0.007536
      f0      :     0.001282  f :     0.006567
      f+1     :     0.000745
      f-1     :     0.000740
      f+2     :     0.000436
      f-2     :     0.001237
      f+3     :     0.001067
      f-3     :     0.001061

  3 C s       :     3.224276  s :     3.224276
      pz      :     0.832491  p :     2.714343
      px      :     0.928207
      py      :     0.953644
      dz2     :     0.016847  d :     0.073664
      dxz     :     0.019075
      dyz     :     0.017372
      dx2y2   :     0.009666
      dxy     :     0.010704
      f0      :     0.001638  f :     0.007111
      f+1     :     0.001007
      f-1     :     0.001040
      f+2     :     0.000870
      f-2     :     0.001077
      f+3     :     0.000729
      f-3     :     0.000751

  4 C s       :     3.213700  s :     3.213700
      pz      :     0.995254  p :     2.866263
      px      :     0.934386
      py      :     0.936622
      dz2     :     0.011133  d :     0.062953
      dxz     :     0.015243
      dyz     :     0.013982
      dx2y2   :     0.017077
      dxy     :     0.005519
      f0      :     0.001259  f :     0.006486
      f+1     :     0.000808
      f-1     :     0.000757
      f+2     :     0.000346
      f-2     :     0.001284
      f+3     :     0.001016
      f-3     :     0.001017

  5 C s       :     3.225825  s :     3.225825
      pz      :     0.972904  p :     2.843600
      px      :     0.930225
      py      :     0.940471
      dz2     :     0.012508  d :     0.059463
      dxz     :     0.011509
      dyz     :     0.011790
      dx2y2   :     0.016688
      dxy     :     0.006968
      f0      :     0.001230  f :     0.006257
      f+1     :     0.000724
      f-1     :     0.000762
      f+2     :     0.000397
      f-2     :     0.001190
      f+3     :     0.000983
      f-3     :     0.000972

  6 P s       :     5.313376  s :     5.313376
      pz      :     2.670000  p :     8.335218
      px      :     2.798817
      py      :     2.866401
      dz2     :     0.164080  d :     0.680901
      dxz     :     0.142941
      dyz     :     0.147067
      dx2y2   :     0.074963
      dxy     :     0.151849
      f0      :     0.014746  f :     0.065524
      f+1     :     0.007266
      f-1     :     0.013664
      f+2     :     0.009222
      f-2     :     0.009673
      f+3     :     0.005374
      f-3     :     0.005578

  7 O s       :     3.908246  s :     3.908246
      pz      :     1.429443  p :     4.719707
      px      :     1.612495
      py      :     1.677770
      dz2     :     0.008033  d :     0.023570
      dxz     :     0.007099
      dyz     :     0.005695
      dx2y2   :     0.001404
      dxy     :     0.001340
      f0      :     0.000325  f :     0.001206
      f+1     :     0.000364
      f-1     :     0.000196
      f+2     :     0.000148
      f-2     :     0.000137
      f+3     :     0.000019
      f-3     :     0.000017

  8 C s       :     3.294752  s :     3.294752
      pz      :     1.020051  p :     3.108595
      px      :     1.074595
      py      :     1.013949
      dz2     :     0.007846  d :     0.068327
      dxz     :     0.014418
      dyz     :     0.015161
      dx2y2   :     0.010858
      dxy     :     0.020044
      f0      :     0.000485  f :     0.003568
      f+1     :     0.000593
      f-1     :     0.000209
      f+2     :     0.000409
      f-2     :     0.000467
      f+3     :     0.000564
      f-3     :     0.000842

  9 C s       :     3.228912  s :     3.228912
      pz      :     0.965640  p :     2.867759
      px      :     1.014436
      py      :     0.887682
      dz2     :     0.015831  d :     0.087498
      dxz     :     0.021957
      dyz     :     0.017076
      dx2y2   :     0.009619
      dxy     :     0.023014
      f0      :     0.000926  f :     0.005013
      f+1     :     0.000767
      f-1     :     0.000534
      f+2     :     0.000655
      f-2     :     0.000694
      f+3     :     0.000597
      f-3     :     0.000840

 10 C s       :     3.283616  s :     3.283616
      pz      :     0.924379  p :     2.821229
      px      :     0.964311
      py      :     0.932539
      dz2     :     0.022247  d :     0.114198
      dxz     :     0.029413
      dyz     :     0.018154
      dx2y2   :     0.018672
      dxy     :     0.025712
      f0      :     0.000871  f :     0.007265
      f+1     :     0.001165
      f-1     :     0.001315
      f+2     :     0.001027
      f-2     :     0.000968
      f+3     :     0.001036
      f-3     :     0.000883

 11 N s       :     3.594949  s :     3.594949
      pz      :     1.412191  p :     3.932787
      px      :     1.300716
      py      :     1.219880
      dz2     :     0.005868  d :     0.036250
      dxz     :     0.008103
      dyz     :     0.007568
      dx2y2   :     0.004908
      dxy     :     0.009803
      f0      :     0.000245  f :     0.002070
      f+1     :     0.000260
      f-1     :     0.000068
      f+2     :     0.000183
      f-2     :     0.000817
      f+3     :     0.000194
      f-3     :     0.000304

 12 C s       :     3.221128  s :     3.221128
      pz      :     0.871497  p :     2.695076
      px      :     0.946022
      py      :     0.877557
      dz2     :     0.022619  d :     0.074452
      dxz     :     0.010611
      dyz     :     0.012187
      dx2y2   :     0.011794
      dxy     :     0.017241
      f0      :     0.001077  f :     0.007048
      f+1     :     0.000810
      f-1     :     0.001120
      f+2     :     0.001130
      f-2     :     0.001478
      f+3     :     0.000770
      f-3     :     0.000662

 13 C s       :     3.210101  s :     3.210101
      pz      :     1.003453  p :     2.874000
      px      :     0.976288
      py      :     0.894259
      dz2     :     0.010287  d :     0.062847
      dxz     :     0.010028
      dyz     :     0.015494
      dx2y2   :     0.011638
      dxy     :     0.015400
      f0      :     0.000532  f :     0.006449
      f+1     :     0.000694
      f-1     :     0.001118
      f+2     :     0.000882
      f-2     :     0.001116
      f+3     :     0.000867
      f-3     :     0.001241

 14 C s       :     3.223600  s :     3.223600
      pz      :     0.946327  p :     2.846995
      px      :     0.934756
      py      :     0.965912
      dz2     :     0.013169  d :     0.059931
      dxz     :     0.007021
      dyz     :     0.015479
      dx2y2   :     0.014432
      dxy     :     0.009830
      f0      :     0.001028  f :     0.006266
      f+1     :     0.000801
      f-1     :     0.000667
      f+2     :     0.001080
      f-2     :     0.001018
      f+3     :     0.000586
      f-3     :     0.001085

 15 C s       :     3.229453  s :     3.229453
      pz      :     0.905673  p :     2.839967
      px      :     0.947632
      py      :     0.986662
      dz2     :     0.018538  d :     0.061430
      dxz     :     0.010261
      dyz     :     0.011670
      dx2y2   :     0.009423
      dxy     :     0.011537
      f0      :     0.000975  f :     0.006280
      f+1     :     0.000728
      f-1     :     0.001095
      f+2     :     0.000989
      f-2     :     0.001249
      f+3     :     0.000792
      f-3     :     0.000453

 16 C s       :     3.237075  s :     3.237075
      pz      :     0.981992  p :     2.862350
      px      :     0.981905
      py      :     0.898453
      dz2     :     0.009909  d :     0.059906
      dxz     :     0.009147
      dyz     :     0.013804
      dx2y2   :     0.010426
      dxy     :     0.016620
      f0      :     0.000546  f :     0.006301
      f+1     :     0.000767
      f-1     :     0.001008
      f+2     :     0.000926
      f-2     :     0.001088
      f+3     :     0.000793
      f-3     :     0.001174

 17 C s       :     3.172864  s :     3.172864
      pz      :     0.921158  p :     2.937969
      px      :     0.962796
      py      :     1.054015
      dz2     :     0.012174  d :     0.065813
      dxz     :     0.008564
      dyz     :     0.019460
      dx2y2   :     0.015204
      dxy     :     0.010411
      f0      :     0.001050  f :     0.006514
      f+1     :     0.000769
      f-1     :     0.000681
      f+2     :     0.001112
      f-2     :     0.001150
      f+3     :     0.000624
      f-3     :     0.001129

 18 H s       :     0.830792  s :     0.830792
      pz      :     0.002681  p :     0.019666
      px      :     0.008481
      py      :     0.008503

 19 H s       :     0.832035  s :     0.832035
      pz      :     0.010176  p :     0.019705
      px      :     0.004807
      py      :     0.004721

 20 H s       :     0.798591  s :     0.798591
      pz      :     0.010933  p :     0.019625
      px      :     0.004386
      py      :     0.004305

 21 H s       :     0.784713  s :     0.784713
      pz      :     0.010111  p :     0.020655
      px      :     0.005580
      py      :     0.004963

 22 H s       :     0.829470  s :     0.829470
      pz      :     0.011054  p :     0.019736
      px      :     0.004229
      py      :     0.004453

 23 H s       :     0.795002  s :     0.795002
      pz      :     0.010039  p :     0.019565
      px      :     0.005380
      py      :     0.004146

 24 H s       :     0.767992  s :     0.767992
      pz      :     0.003838  p :     0.020178
      px      :     0.009082
      py      :     0.007258

 25 H s       :     0.831588  s :     0.831588
      pz      :     0.004109  p :     0.018603
      px      :     0.007489
      py      :     0.007005

 26 H s       :     0.841358  s :     0.841358
      pz      :     0.007652  p :     0.018668
      px      :     0.007709
      py      :     0.003308

 27 H s       :     0.825393  s :     0.825393
      pz      :     0.006297  p :     0.017834
      px      :     0.008111
      py      :     0.003426

 28 H s       :     0.847058  s :     0.847058
      pz      :     0.003480  p :     0.018316
      px      :     0.005177
      py      :     0.009659

 29 H s       :     0.687767  s :     0.687767
      pz      :     0.010725  p :     0.035033
      px      :     0.011932
      py      :     0.012376

 30 H s       :     0.744327  s :     0.744327
      pz      :     0.013694  p :     0.033548
      px      :     0.012030
      py      :     0.007824

 31 H s       :     0.784303  s :     0.784303
      pz      :     0.010294  p :     0.020771
      px      :     0.007120
      py      :     0.003356

 32 H s       :     0.829984  s :     0.829984
      pz      :     0.007090  p :     0.019735
      px      :     0.003627
      py      :     0.009018

 33 H s       :     0.831614  s :     0.831614
      pz      :     0.003352  p :     0.019639
      px      :     0.005247
      py      :     0.011039

 34 H s       :     0.833867  s :     0.833867
      pz      :     0.009893  p :     0.019709
      px      :     0.006918
      py      :     0.002898

 35 H s       :     0.826104  s :     0.826104
      pz      :     0.006950  p :     0.019859
      px      :     0.003747
      py      :     0.009162



                     *******************************
                     * LOEWDIN POPULATION ANALYSIS *
                     *******************************

----------------------
LOEWDIN ATOMIC CHARGES
----------------------
   0 C :   -0.131186
   1 C :   -0.140377
   2 C :   -0.141193
   3 C :   -0.232030
   4 C :   -0.116408
   5 C :   -0.134448
   6 P :    0.659261
   7 O :   -0.326686
   8 C :   -0.366750
   9 C :   -0.293154
  10 C :   -0.358311
  11 N :   -0.193915
  12 C :   -0.231314
  13 C :   -0.116766
  14 C :   -0.136098
  15 C :   -0.132105
  16 C :   -0.140389
  17 C :   -0.133599
  18 H :    0.149110
  19 H :    0.149004
  20 H :    0.147857
  21 H :    0.161906
  22 H :    0.150004
  23 H :    0.142450
  24 H :    0.159240
  25 H :    0.139825
  26 H :    0.143080
  27 H :    0.122800
  28 H :    0.129613
  29 H :    0.162583
  30 H :    0.152161
  31 H :    0.161540
  32 H :    0.149591
  33 H :    0.148773
  34 H :    0.148581
  35 H :    0.147349

-------------------------------
LOEWDIN REDUCED ORBITAL CHARGES
-------------------------------
  0 C s       :     2.779428  s :     2.779428
      pz      :     1.069305  p :     2.937532
      px      :     0.934346
      py      :     0.933881
      dz2     :     0.136334  d :     0.373781
      dxz     :     0.087923
      dyz     :     0.087370
      dx2y2   :     0.011765
      dxy     :     0.050390
      f0      :     0.011734  f :     0.040444
      f+1     :     0.005720
      f-1     :     0.005608
      f+2     :     0.007023
      f-2     :     0.007320
      f+3     :     0.001519
      f-3     :     0.001520

  1 C s       :     2.777866  s :     2.777866
      pz      :     1.015792  p :     2.948361
      px      :     0.965353
      py      :     0.967215
      dz2     :     0.086403  d :     0.373577
      dxz     :     0.090456
      dyz     :     0.089644
      dx2y2   :     0.056797
      dxy     :     0.050277
      f0      :     0.010217  f :     0.040573
      f+1     :     0.005349
      f-1     :     0.005332
      f+2     :     0.002238
      f-2     :     0.008028
      f+3     :     0.004725
      f-3     :     0.004684

  2 C s       :     2.774843  s :     2.774843
      pz      :     1.002841  p :     2.941430
      px      :     0.968841
      py      :     0.969747
      dz2     :     0.093996  d :     0.383996
      dxz     :     0.086177
      dyz     :     0.085424
      dx2y2   :     0.063967
      dxy     :     0.054432
      f0      :     0.010000  f :     0.040924
      f+1     :     0.004999
      f-1     :     0.004914
      f+2     :     0.003287
      f-2     :     0.008365
      f+3     :     0.004647
      f-3     :     0.004714

  3 C s       :     2.771253  s :     2.771253
      pz      :     1.066808  p :     2.985473
      px      :     0.959534
      py      :     0.959131
      dz2     :     0.143501  d :     0.431560
      dxz     :     0.096831
      dyz     :     0.095966
      dx2y2   :     0.029688
      dxy     :     0.065575
      f0      :     0.012597  f :     0.043744
      f+1     :     0.005557
      f-1     :     0.005790
      f+2     :     0.007047
      f-2     :     0.008427
      f+3     :     0.002096
      f-3     :     0.002229

  4 C s       :     2.776382  s :     2.776382
      pz      :     1.016865  p :     2.919643
      px      :     0.952547
      py      :     0.950230
      dz2     :     0.084635  d :     0.379356
      dxz     :     0.094330
      dyz     :     0.090692
      dx2y2   :     0.057514
      dxy     :     0.052185
      f0      :     0.010242  f :     0.041027
      f+1     :     0.005406
      f-1     :     0.005282
      f+2     :     0.002483
      f-2     :     0.008270
      f+3     :     0.004684
      f-3     :     0.004660

  5 C s       :     2.778125  s :     2.778125
      pz      :     1.009785  p :     2.943738
      px      :     0.967661
      py      :     0.966291
      dz2     :     0.091056  d :     0.372141
      dxz     :     0.083943
      dyz     :     0.085293
      dx2y2   :     0.058285
      dxy     :     0.053563
      f0      :     0.009959  f :     0.040445
      f+1     :     0.004937
      f-1     :     0.004917
      f+2     :     0.003038
      f-2     :     0.008316
      f+3     :     0.004607
      f-3     :     0.004671

  6 P s       :     4.653259  s :     4.653259
      pz      :     2.745758  p :     8.288137
      px      :     2.771159
      py      :     2.771220
      dz2     :     0.298242  d :     1.176397
      dxz     :     0.275287
      dyz     :     0.220693
      dx2y2   :     0.135881
      dxy     :     0.246293
      f0      :     0.049951  f :     0.222947
      f+1     :     0.033757
      f-1     :     0.040682
      f+2     :     0.030097
      f-2     :     0.032166
      f+3     :     0.017516
      f-3     :     0.018778

  7 O s       :     3.538268  s :     3.538268
      pz      :     1.547630  p :     4.745414
      px      :     1.586493
      py      :     1.611291
      dz2     :     0.016028  d :     0.040956
      dxz     :     0.014302
      dyz     :     0.006503
      dx2y2   :     0.002329
      dxy     :     0.001794
      f0      :     0.000517  f :     0.002048
      f+1     :     0.000800
      f-1     :     0.000236
      f+2     :     0.000221
      f-2     :     0.000213
      f+3     :     0.000024
      f-3     :     0.000037

  8 C s       :     2.837278  s :     2.837278
      pz      :     1.065496  p :     3.188099
      px      :     1.064387
      py      :     1.058215
      dz2     :     0.049143  d :     0.315217
      dxz     :     0.069823
      dyz     :     0.057686
      dx2y2   :     0.050838
      dxy     :     0.087727
      f0      :     0.003151  f :     0.026157
      f+1     :     0.003262
      f-1     :     0.003056
      f+2     :     0.003984
      f-2     :     0.002925
      f+3     :     0.003558
      f-3     :     0.006219

  9 C s       :     2.794953  s :     2.794953
      pz      :     1.034725  p :     3.070042
      px      :     1.026462
      py      :     1.008855
      dz2     :     0.074433  d :     0.391072
      dxz     :     0.091186
      dyz     :     0.076127
      dx2y2   :     0.055044
      dxy     :     0.094283
      f0      :     0.006899  f :     0.037088
      f+1     :     0.003943
      f-1     :     0.005495
      f+2     :     0.006117
      f-2     :     0.004345
      f+3     :     0.003996
      f-3     :     0.006293

 10 C s       :     2.802823  s :     2.802823
      pz      :     1.021945  p :     3.014473
      px      :     1.004870
      py      :     0.987659
      dz2     :     0.106633  d :     0.488373
      dxz     :     0.118562
      dyz     :     0.076631
      dx2y2   :     0.070632
      dxy     :     0.115916
      f0      :     0.007414  f :     0.052641
      f+1     :     0.006399
      f-1     :     0.010862
      f+2     :     0.007727
      f-2     :     0.006100
      f+3     :     0.007962
      f-3     :     0.006177

 11 N s       :     3.102656  s :     3.102656
      pz      :     1.368603  p :     3.947370
      px      :     1.311355
      py      :     1.267412
      dz2     :     0.015906  d :     0.133863
      dxz     :     0.031096
      dyz     :     0.027963
      dx2y2   :     0.022374
      dxy     :     0.036525
      f0      :     0.001136  f :     0.010026
      f+1     :     0.001102
      f-1     :     0.001227
      f+2     :     0.000611
      f-2     :     0.002322
      f+3     :     0.001511
      f-3     :     0.002118

 12 C s       :     2.771663  s :     2.771663
      pz      :     1.014890  p :     2.984006
      px      :     0.944505
      py      :     1.024611
      dz2     :     0.110287  d :     0.431948
      dxz     :     0.068983
      dyz     :     0.102602
      dx2y2   :     0.065281
      dxy     :     0.084796
      f0      :     0.005879  f :     0.043697
      f+1     :     0.005233
      f-1     :     0.008910
      f+2     :     0.005971
      f-2     :     0.008767
      f+3     :     0.004287
      f-3     :     0.004651

 13 C s       :     2.776581  s :     2.776581
      pz      :     0.967931  p :     2.919935
      px      :     0.911730
      py      :     1.040274
      dz2     :     0.066074  d :     0.379226
      dxz     :     0.053896
      dyz     :     0.094425
      dx2y2   :     0.086605
      dxy     :     0.078228
      f0      :     0.004455  f :     0.041024
      f+1     :     0.002896
      f-1     :     0.008485
      f+2     :     0.004969
      f-2     :     0.007664
      f+3     :     0.004987
      f-3     :     0.007567

 14 C s       :     2.778127  s :     2.778127
      pz      :     0.988302  p :     2.945409
      px      :     0.946742
      py      :     1.010365
      dz2     :     0.063374  d :     0.372140
      dxz     :     0.050570
      dyz     :     0.122490
      dx2y2   :     0.072040
      dxy     :     0.063665
      f0      :     0.006994  f :     0.040423
      f+1     :     0.005192
      f-1     :     0.005617
      f+2     :     0.004561
      f-2     :     0.007049
      f+3     :     0.004518
      f-3     :     0.006492

 15 C s       :     2.779504  s :     2.779504
      pz      :     1.012717  p :     2.938105
      px      :     0.929709
      py      :     0.995679
      dz2     :     0.103095  d :     0.374053
      dxz     :     0.061936
      dyz     :     0.088759
      dx2y2   :     0.053027
      dxy     :     0.067236
      f0      :     0.005478  f :     0.040443
      f+1     :     0.005134
      f-1     :     0.008467
      f+2     :     0.005705
      f-2     :     0.007944
      f+3     :     0.004130
      f-3     :     0.003585

 16 C s       :     2.777833  s :     2.777833
      pz      :     0.969091  p :     2.948675
      px      :     0.927866
      py      :     1.051718
      dz2     :     0.065023  d :     0.373316
      dxz     :     0.054695
      dyz     :     0.091962
      dx2y2   :     0.085063
      dxy     :     0.076574
      f0      :     0.004396  f :     0.040565
      f+1     :     0.003077
      f-1     :     0.008285
      f+2     :     0.004934
      f-2     :     0.007376
      f+3     :     0.004941
      f-3     :     0.007557

 17 C s       :     2.773867  s :     2.773867
      pz      :     0.980757  p :     2.936309
      px      :     0.943089
      py      :     1.012463
      dz2     :     0.064950  d :     0.382373
      dxz     :     0.049954
      dyz     :     0.126290
      dx2y2   :     0.074980
      dxy     :     0.066198
      f0      :     0.007247  f :     0.041050
      f+1     :     0.005153
      f-1     :     0.005640
      f+2     :     0.004514
      f-2     :     0.007135
      f+3     :     0.004657
      f-3     :     0.006704

 18 H s       :     0.795066  s :     0.795066
      pz      :     0.009903  p :     0.055824
      px      :     0.022928
      py      :     0.022993

 19 H s       :     0.795055  s :     0.795055
      pz      :     0.027147  p :     0.055941
      px      :     0.014475
      py      :     0.014319

 20 H s       :     0.795826  s :     0.795826
      pz      :     0.029059  p :     0.056317
      px      :     0.013574
      py      :     0.013684

 21 H s       :     0.779585  s :     0.779585
      pz      :     0.027690  p :     0.058509
      px      :     0.016022
      py      :     0.014797

 22 H s       :     0.794091  s :     0.794091
      pz      :     0.029099  p :     0.055904
      px      :     0.013142
      py      :     0.013663

 23 H s       :     0.797993  s :     0.797993
      pz      :     0.029150  p :     0.059556
      px      :     0.017312
      py      :     0.013094

 24 H s       :     0.780046  s :     0.780046
      pz      :     0.012909  p :     0.060713
      px      :     0.026226
      py      :     0.021578

 25 H s       :     0.804081  s :     0.804081
      pz      :     0.013186  p :     0.056094
      px      :     0.022576
      py      :     0.020332

 26 H s       :     0.800910  s :     0.800910
      pz      :     0.021811  p :     0.056010
      px      :     0.022918
      py      :     0.011281

 27 H s       :     0.821333  s :     0.821333
      pz      :     0.019338  p :     0.055867
      px      :     0.024591
      py      :     0.011938

 28 H s       :     0.815747  s :     0.815747
      pz      :     0.012275  p :     0.054640
      px      :     0.016685
      py      :     0.025680

 29 H s       :     0.724681  s :     0.724681
      pz      :     0.033791  p :     0.112736
      px      :     0.040266
      py      :     0.038680

 30 H s       :     0.742222  s :     0.742222
      pz      :     0.043139  p :     0.105617
      px      :     0.035071
      py      :     0.027407

 31 H s       :     0.779475  s :     0.779475
      pz      :     0.027964  p :     0.058984
      px      :     0.020056
      py      :     0.010964

 32 H s       :     0.794497  s :     0.794497
      pz      :     0.019898  p :     0.055911
      px      :     0.011682
      py      :     0.024331

 33 H s       :     0.795440  s :     0.795440
      pz      :     0.011273  p :     0.055787
      px      :     0.015424
      py      :     0.029091

 34 H s       :     0.795494  s :     0.795494
      pz      :     0.026338  p :     0.055925
      px      :     0.019293
      py      :     0.010294

 35 H s       :     0.796117  s :     0.796117
      pz      :     0.019760  p :     0.056534
      px      :     0.012133
      py      :     0.024641



                      *****************************
                      * MAYER POPULATION ANALYSIS *
                      *****************************

  NA   - Mulliken gross atomic population
  ZA   - Total nuclear charge
  QA   - Mulliken gross atomic charge
  VA   - Mayer's total valence
  BVA  - Mayer's bonded valence
  FA   - Mayer's free valence

  ATOM       NA         ZA         QA         VA         BVA        FA
  0 C      6.1369     6.0000    -0.1369     3.9478     3.9478    -0.0000
  1 C      6.1557     6.0000    -0.1557     4.0274     4.0274    -0.0000
  2 C      6.2224     6.0000    -0.2224     3.9281     3.9281    -0.0000
  3 C      6.0194     6.0000    -0.0194     3.6978     3.6978    -0.0000
  4 C      6.1494     6.0000    -0.1494     3.9479     3.9479     0.0000
  5 C      6.1351     6.0000    -0.1351     3.9198     3.9198     0.0000
  6 P     14.3950    15.0000     0.6050     4.8378     4.8378    -0.0000
  7 O      8.6527     8.0000    -0.6527     1.8655     1.8655     0.0000
  8 C      6.4752     6.0000    -0.4752     3.7817     3.7817    -0.0000
  9 C      6.1892     6.0000    -0.1892     3.6093     3.6093     0.0000
 10 C      6.2263     6.0000    -0.2263     3.8657     3.8657    -0.0000
 11 N      7.5661     7.0000    -0.5661     2.8056     2.8056     0.0000
 12 C      5.9977     6.0000     0.0023     3.6794     3.6794    -0.0000
 13 C      6.1534     6.0000    -0.1534     3.9325     3.9325    -0.0000
 14 C      6.1368     6.0000    -0.1368     3.9117     3.9117     0.0000
 15 C      6.1371     6.0000    -0.1371     3.9461     3.9461     0.0000
 16 C      6.1656     6.0000    -0.1656     4.0301     4.0301    -0.0000
 17 C      6.1832     6.0000    -0.1832     3.9566     3.9566    -0.0000
 18 H      0.8505     1.0000     0.1495     0.9632     0.9632    -0.0000
 19 H      0.8517     1.0000     0.1483     0.9655     0.9655     0.0000
 20 H      0.8182     1.0000     0.1818     0.9478     0.9478     0.0000
 21 H      0.8054     1.0000     0.1946     0.9716     0.9716     0.0000
 22 H      0.8492     1.0000     0.1508     0.9652     0.9652     0.0000
 23 H      0.8146     1.0000     0.1854     0.9443     0.9443    -0.0000
 24 H      0.7882     1.0000     0.2118     0.9533     0.9533    -0.0000
 25 H      0.8502     1.0000     0.1498     0.9600     0.9600     0.0000
 26 H      0.8600     1.0000     0.1400     0.9660     0.9660     0.0000
 27 H      0.8432     1.0000     0.1568     0.9494     0.9494    -0.0000
 28 H      0.8654     1.0000     0.1346     0.9570     0.9570     0.0000
 29 H      0.7228     1.0000     0.2772     0.9403     0.9403     0.0000
 30 H      0.7779     1.0000     0.2221     0.9411     0.9411     0.0000
 31 H      0.8051     1.0000     0.1949     0.9739     0.9739    -0.0000
 32 H      0.8497     1.0000     0.1503     0.9658     0.9658     0.0000
 33 H      0.8513     1.0000     0.1487     0.9633     0.9633     0.0000
 34 H      0.8536     1.0000     0.1464     0.9663     0.9663    -0.0000
 35 H      0.8460     1.0000     0.1540     0.9672     0.9672    -0.0000

  Mayer bond orders larger than 0.100000
B(  0-C ,  1-C ) :   1.4445 B(  0-C ,  5-C ) :   1.4385 B(  0-C , 18-H ) :   0.9456 
B(  1-C ,  2-C ) :   1.5040 B(  1-C , 19-H ) :   0.9417 B(  2-C ,  3-C ) :   1.3266 
B(  2-C , 20-H ) :   0.9204 B(  3-C ,  4-C ) :   1.4135 B(  3-C ,  6-P ) :   0.9285 
B(  4-C ,  5-C ) :   1.4382 B(  4-C , 21-H ) :   0.9096 B(  5-C , 22-H ) :   0.9472 
B(  6-P ,  7-O ) :   1.7840 B(  6-P ,  8-C ) :   0.9558 B(  6-P , 12-C ) :   0.9146 
B(  8-C ,  9-C ) :   0.9000 B(  8-C , 23-H ) :   0.9426 B(  8-C , 24-H ) :   0.9282 
B(  9-C , 10-C ) :   0.9041 B(  9-C , 25-H ) :   0.9834 B(  9-C , 26-H ) :   0.9603 
B( 10-C , 11-N ) :   1.0143 B( 10-C , 27-H ) :   0.9834 B( 10-C , 28-H ) :   0.9765 
B( 11-N , 29-H ) :   0.8921 B( 11-N , 30-H ) :   0.9349 B( 12-C , 13-C ) :   1.4078 
B( 12-C , 17-C ) :   1.3512 B( 13-C , 14-C ) :   1.4289 B( 13-C , 31-H ) :   0.9069 
B( 14-C , 15-C ) :   1.4423 B( 14-C , 32-H ) :   0.9469 B( 15-C , 16-C ) :   1.4349 
B( 15-C , 33-H ) :   0.9459 B( 16-C , 17-C ) :   1.5152 B( 16-C , 34-H ) :   0.9445 
B( 17-C , 35-H ) :   0.9062 

-------
TIMINGS
-------

Total SCF time: 0 days 0 hours 1 min 34 sec 

Total time                  ....      94.080 sec
Sum of individual times     ....      94.100 sec  (100.0%)

SCF preparation             ....       0.252 sec  (  0.3%)
Fock matrix formation       ....      90.621 sec  ( 96.3%)
  Startup                   ....       0.097 sec  (  0.1% of F)
  Split-RI-J                ....       6.221 sec  (  6.9% of F)
  Chain of spheres X        ....      63.618 sec  ( 70.2% of F)
  XC integration            ....      20.258 sec  ( 22.4% of F)
    Basis function eval.    ....       2.948 sec  ( 14.6% of XC)
    Density eval.           ....       8.212 sec  ( 40.5% of XC)
    XC-Functional eval.     ....       0.355 sec  (  1.8% of XC)
    XC-Potential eval.      ....       7.785 sec  ( 38.4% of XC)
Diagonalization             ....       0.000 sec  (  0.0%)
Density matrix formation    ....       0.354 sec  (  0.4%)
Total Energy calculation    ....       0.088 sec  (  0.1%)
Population analysis         ....       0.175 sec  (  0.2%)
Orbital Transformation      ....       0.382 sec  (  0.4%)
Orbital Orthonormalization  ....       0.000 sec  (  0.0%)
DIIS solution               ....       1.653 sec  (  1.8%)
SOSCF solution              ....       0.575 sec  (  0.6%)
Finished LeanSCF after  94.1 sec

Maximum memory used throughout the entire LEANSCF-calculation: 93.8 MB


-------------------------------------------------------------------------------
                          DFT DISPERSION CORRECTION                            
                                                                               
                              DFTD3 V3.1  Rev 1                                
                              USING zero damping                               
-------------------------------------------------------------------------------
The M062X functional is recognized
Active option DFTDOPT                   ...         3   

molecular C6(AA) [au] = 15419.530680 


            DFT-D V3
 parameters
 s6 scaling factor         :     1.0000 
 rs6 scaling factor        :     1.6190 
 s8 scaling factor         :     0.0000 
 rs8 scaling factor        :     1.0000 
 Damping factor alpha6     :    14.0000 
 Damping factor alpha8     :    16.0000 
 ad hoc parameters k1-k3   :    16.0000     1.3333    -4.0000 

 Edisp/kcal,au: -1.473181943743  -0.002347664613 
 E6   /kcal   :  -1.473181944 
 E8   /kcal   :  -0.000000000 
 % E8         :   0.000000000 

-------------------------   ----------------
Dispersion correction           -0.002347665
-------------------------   ----------------


-------------------------   --------------------
FINAL SINGLE POINT ENERGY     -1053.754622048998
-------------------------   --------------------



           ************************************************************
           *        Program running with 6 parallel MPI-processes     *
           *              working on a common directory               *
           ************************************************************

------------------------------------------------------------------------------
                              ORCA PROPERTY CALCULATIONS
------------------------------------------------------------------------------

GBWName                                 ... data/single_point_PO_M06-2x/280677/280677.gbw
Number of atoms                         ...     36
Number of basis functions               ...    672
Max core memory                         ...   1024 MB

Electric properties:
Dipole moment                           ... YES
Quadrupole moment                       ...  NO
Static polarizability (Dipole/Dipole)   ...  NO
Static polarizability (Dipole/Quad.)    ...  NO
Static polarizability (Quad./Quad.)     ...  NO
Static polarizability (Velocity)        ...  NO

Atomic electric properties:
Dipole moment                           ...  NO
Quadrupole moment                       ...  NO
Static polarizability                   ...  NO

Choice of electric origin               ... Center of mass
Position of electric origin             ...    -0.195997     0.301276     0.261254

General magnetic properties:
Magnetizability                         ...  NO

EPR properties:
g-Tensor (aka g-matrix)                 ...  NO
Zero-Field splitting spin-orbit         ...  NO
Zero-field splitting spin-spin          ...  NO
Hyperfine couplings                     ...  NO (   0 nuclei)
Quadrupole couplings                    ...  NO (   0 nuclei)
Contact density                         ...  NO (   0 nuclei)

NMR properties:
Chemical shifts                         ...  NO (   0 nuclei)
Spin-rotation constants                 ...  NO (   0 nuclei)
Spin-spin couplings                     ...  NO (   0 nuclei,    0 pairs)

Choice of magnetic origin               ... GIAO
Position of magnetic origin             ...     0.000000     0.000000     0.000000

Properties with geometric perturbations:
SCF Hessian                             ...  NO
IR spectrum                             ...  NO
VCD spectrum                            ...  NO
X-ray spectroscopy properties:
SCF XES/XAS/RIXS spectra                ...  NO


-------------
DIPOLE MOMENT
-------------

Method             : SCF
Type of density    : Electron Density
Multiplicity       :   1
Irrep              :   0
Energy             : -1053.7522743843846911 Eh
Relativity type    : 
Basis              : AO
                                X                 Y                 Z
Electronic contribution:     -6.595348878       5.590522783       3.289333112
Nuclear contribution   :      5.371197990      -5.862234928      -4.218464226
                        -----------------------------------------
Total Dipole Moment    :     -1.224150888      -0.271712144      -0.929131114
                        -----------------------------------------
Magnitude (a.u.)       :      1.560659320
Magnitude (Debye)      :      3.966880737



--------------------
Rotational spectrum 
--------------------
 
Rotational constants in cm-1:             0.015144             0.010588             0.007705 
Rotational constants in MHz :           453.997814           317.435184           230.999852 

Dipole components along the rotational axes: 
x,y,z [a.u.] :     0.092328    -1.306425    -0.848756 
x,y,z [Debye]:     0.234679    -3.320668    -2.157366 

 

Dipole moment calculation done in   0.0 sec 

Maximum memory used throughout the entire PROP-calculation: 49.7 MB

--------------------------------
SUGGESTED CITATIONS FOR THIS RUN
--------------------------------

Below you find a list of papers that are relevant to this ORCA run
We neither can nor want to force you to cite these papers, but we appreciate if you do
You receive ORCA, which is the product of decades of hard work by many enthusiastic individuals, for free
The only thing we kindly ask in return is that you cite our papers,
We deeply appreciate it, if you show your appreciation for ORCA by not just citing the generic ORCA reference.

Please note that relegating all ORCA citations to the supporting information does *not* help us.
SI sections are not indexed - citations you put there will not count into any citation statistics
But we need these citations in order to attract the funding resources that allow us to do what we are doing

Therefore, if you are a happy ORCA user, please consider citing a few of the papers listed below in the main body of your paper

In addition to the list printed below, the program has created the file data/single_point_PO_M06-2x/280677/280677.bibtex that contains the list in bibtex format
You can import this file easily into all common literature databanks and citation aid programs


List of essential papers. We consider these as the minimum necessary citations

  1. Neese,F.
     Software update: the ORCA program system, version 5.0
     WIRES Comput. Molec. Sci., 2022 12(1)e1606
     doi.org/10.1002/wcms.1606

List of papers to cite with high priority. The work reported in these papers was absolutely
necessary for this run to complete.
Our perspective: the developers of density functionals and basis sets usually get cited in chemistry papers
Good! But without the algorithms to do something with them, the functionals or basis sets would not do anything.
Hence, in our opinion, the algorithm design and method developments papers are equally worthy of getting cited

  1. Neese,F.
     An improvement of the resolution of the identity approximation for the formation of the Coulomb matrix
     J. Comp. Chem., 2003 24(14)1740-1747
     doi.org/10.1002/jcc.10318
  2. Neese,F.; Wennmohs,F.; Hansen,A.; Becker,U.
     Efficient, approximate and parallel Hartree-Fock and hybrid DFT calculations. A 'chain-of-spheres' algorithm for the Hartree-Fock exchange
     Chem. Phys., 2009 356(1-3)98-109
     doi.org/10.1016/j.chemphys.2008.10.036
  3. Helmich-Paris,B.; de Souza,B.; Neese,F.; Izsák,R.
     An improved chain of spheres for exchange algorithm
     J. Chem. Phys., 2021 155 104109
     doi.org/doi: 10.1063/5.0058766.
  4. Neese,F.
     The SHARK Integral Generation and Digestion System
     J. Comp. Chem., 2022  1-16
     doi.org/10.1002/jcc.26942
  5. Grimme,S.; Antony,J.; Ehrlich,S.; Krieg,H.
     A consistent and accurate ab initio parametrization of density functional dispersion correction (DFT-D) for the 94 elements H-Pu
     J. Chem. Phys., 2010 132 154104-XXXX
     doi.org/10.1063/1.3382344

List of suggested additional citations. These are papers that are important in the 'surrounding' of 
of this run, or papers that preceded the highly important papers. If you like your results we are grateful for a citation.

  1. Izsak,R.; Neese,F.
     An overlap fitted chain of spheres exchange method
     J. Chem. Phys., 2011 135 144105
     doi.org/10.1063/1.3646921
  2. Izsak,R.; Hansen,A.; Neese,F.
     The resolution of identity and chain of spheres approximations for the LPNO-CCSD singles Fock term
     Molec. Phys., 2012 110 2413-2417
     doi.org/10.1080/00268976.2012.687466
  3. Neese,F.
     The ORCA program system
     WIRES Comput. Molec. Sci., 2012 2(1)73-78
     doi.org/10.1002/wcms.81
  4. Izsak,R.; Neese,F.; Klopper,W.
     Robust fitting techniques in the chain of spheres approximation to the Fock exchange: The role of the complementary space
     J. Chem. Phys., 2013 139 
     doi.org/10.1063/1.4819264
  5. Neese,F.
     Software update: the ORCA program system, version 4.0
     WIRES Comput. Molec. Sci., 2018 8(1)1-6
     doi.org/10.1002/wcms.1327
  6. Neese,F.; Wennmohs,F.; Becker,U.; Riplinger,C.
     The ORCA quantum chemistry program package
     J. Chem. Phys., 2020 152 Art. No. L224108
     doi.org/10.1063/5.0004608

List of optional additional citations

  1. Neese,F.
     Approximate second-order SCF convergence for spin unrestricted wavefunctions
     Chem. Phys. Lett., 2000 325(1-3)93-98
     doi.org/10.1016/s0009-2614(00)00662-x

Timings for individual modules:

Sum of individual times          ...       99.660 sec (=   1.661 min)
Startup calculation              ...        3.496 sec (=   0.058 min)   3.5 %
SCF iterations                   ...       95.827 sec (=   1.597 min)  96.2 %
Property calculations            ...        0.337 sec (=   0.006 min)   0.3 %
                             ****ORCA TERMINATED NORMALLY****
TOTAL RUN TIME: 0 days 0 hours 1 minutes 39 seconds 979 msec
