
                                 *****************
                                 * O   R   C   A *
                                 *****************

                                            #,                                       
                                            ###                                      
                                            ####                                     
                                            #####                                    
                                            ######                                   
                                           ########,                                 
                                     ,,################,,,,,                         
                               ,,#################################,,                 
                          ,,##########################################,,             
                       ,#########################################, ''#####,          
                    ,#############################################,,   '####,        
                  ,##################################################,,,,####,       
                ,###########''''           ''''###############################       
              ,#####''   ,,,,##########,,,,          '''####'''          '####       
            ,##' ,,,,###########################,,,                        '##       
           ' ,,###''''                  '''############,,,                           
         ,,##''                                '''############,,,,        ,,,,,,###''
      ,#''                                            '''#######################'''  
     '                                                          ''''####''''         
             ,#######,   #######,   ,#######,      ##                                
            ,#'     '#,  ##    ##  ,#'     '#,    #''#        ,####,   ,####,        
            ##       ##  ##   ,#'  ##            #'  '#       #'       #'  '#        
            ##       ##  #######   ##           ,######,      #####,   #    #        
            '#,     ,#'  ##    ##  '#,     ,#' ,#      #,     #,   #   #,  ,#        
             '#######'   ##     ##  '#######'  #'      '#     '####' # '####'        



                #########################################################
                #                        -***-                          #
                #          Department of theory and spectroscopy        #
                #                                                       #
                #                      Frank Neese                      #
                #                                                       #
                #     Directorship, Architecture, Infrastructure        #
                #                    SHARK, DRIVERS                     #
                #        Core code/Algorithms in most modules           #
                #                                                       #
                #        Max Planck Institute fuer Kohlenforschung      #
                #                Kaiser Wilhelm Platz 1                 #
                #                 D-45470 Muelheim/Ruhr                 #
                #                      Germany                          #
                #                                                       #
                #                  All rights reserved                  #
                #                        -***-                          #
                #########################################################


                         Program Version 6.0.0  -   RELEASE   -


 With contributions from (in alphabetic order):
   Daniel Aravena         : Magnetic Suceptibility
   Michael Atanasov       : Ab Initio Ligand Field Theory (pilot matlab implementation)
   Alexander A. Auer      : GIAO ZORA, VPT2 properties, NMR spectrum
   Ute Becker             : All parallelization in ORCA, NUMFREQ, NUMCALC
   Giovanni Bistoni       : ED, misc. LED, open-shell LED, HFLD
   Martin Brehm           : Molecular dynamics
   Dmytro Bykov           : pre 5.0 version of the SCF Hessian
   Marcos Casanova-Páez   : Triplet and SCS-CIS(D). UHF-(DLPNO)-IP/EA/STEOM-CCSD. UHF-CVS-IP/STEOM-CCSD
   Vijay G. Chilkuri      : MRCI spin determinant printing, contributions to CSF-ICE
   Pauline Colinet        : FMM embedding
   Dipayan Datta          : RHF DLPNO-CCSD density
   Achintya Kumar Dutta   : EOM-CC, STEOM-CC
   Nicolas Foglia         : Exact transition moments, OPA infrastructure, MCD improvements
   Dmitry Ganyushin       : Spin-Orbit,Spin-Spin,Magnetic field MRCI
   Miquel Garcia          : C-PCM and meta-GGA Hessian, CCSD/C-PCM, Gaussian charge scheme
   Tiago L. C. Gouveia    : GS-ROHF, GS-ROCIS
   Yang Guo               : DLPNO-NEVPT2, F12-NEVPT2, CIM, IAO-localization
   Andreas Hansen         : Spin unrestricted coupled pair/coupled cluster methods
   Ingolf Harden          : AUTO-CI MPn and infrastructure 
   Benjamin Helmich-Paris : MC-RPA, TRAH-(SCF,CASSCF), AVAS, COSX integrals, SCF dyn. polar.
   Lee Huntington         : MR-EOM, pCC
   Robert Izsak           : Overlap fitted RIJCOSX, COSX-SCS-MP3, EOM
   Riya Kayal             : Wick's Theorem for AUTO-CI, AUTO-CI UHF-CCSDT
   Emily Kempfer          : AUTO-CI, RHF CISDT and CCSDT
   Christian Kollmar      : KDIIS, OOCD, Brueckner-CCSD(T), CCSD density, CASPT2, CASPT2-K, improved NEVPT2
   Axel Koslowski         : Symmetry handling
   Simone Kossmann        : Meta GGA functionals, TD-DFT gradient, OOMP2, (MP2 Hessian; deprecated post 5.0)
   Lucas Lang             : DCDCAS
   Marvin Lechner         : AUTO-CI (C++ implementation), FIC-MRCC
   Spencer Leger          : CASSCF response
   Dagmar Lenk            : GEPOL surface, SMD, ORCA-2-JSON
   Dimitrios Liakos       : Extrapolation schemes; Compound Job, initial MDCI parallelization
   Dimitrios Manganas     : Further ROCIS development; embedding schemes. LFT, Crystal Embedding
   Dimitrios Pantazis     : SARC Basis sets
   Anastasios Papadopoulos: AUTO-CI, single reference methods and gradients
   Taras Petrenko         : pre 6.0 DFT Hessian and TD-DFT gradient, (ASA, deprecated), ECA, 1-Electron XAS/XES, NRVS
   Peter Pinski           : DLPNO-MP2, DLPNO-MP2 Gradient
   Christoph Reimann      : Effective Core Potentials
   Marius Retegan         : Local ZFS, SOC
   Christoph Riplinger    : Optimizer, TS searches, QM/MM, DLPNO-CCSD(T), (RO)-DLPNO pert. Triples
   Michael Roemelt        : Original ROCIS implementation
   Masaaki Saitow         : Open-shell DLPNO-CCSD energy and density
   Barbara Sandhoefer     : DKH picture change effects
   Kantharuban Sivalingam : CASSCF convergence/infrastructure, NEVPT2 and variants, FIC-MRCI
   Bernardo de Souza      : ESD, SOC TD-DFT
   Georgi Stoychev        : AutoAux, RI-MP2 NMR, DLPNO-MP2 response, X2C
   Van Anh Tran           : RI-MP2 g-tensors
   Willem Van den Heuvel  : Paramagnetic NMR
   Zikuan Wang            : NOTCH, Electric field optimization 
   Frank Wennmohs         : Technical directorship and infrastructure
   Hang Xu                : AUTO-CI-Response properties 


 We gratefully acknowledge several colleagues who have allowed us to
 interface, adapt or use parts of their codes:
   Stefan Grimme, W. Hujo, H. Kruse, P. Pracht,  : VdW corrections, initial TS optimization,
                  C. Bannwarth, S. Ehlert,         DFT functionals, gCP, sTDA/sTD-DF
                  L. Wittmann, M. Mueller
   Ed Valeev, F. Pavosevic, A. Kumar             : LibInt (2-el integral package), F12 methods
   Garnet Chan, S. Sharma, J. Yang, R. Olivares  : DMRG
   Ulf Ekstrom                                   : XCFun DFT Library
   Mihaly Kallay                                 : mrcc  (arbitrary order and MRCC methods)
   Frank Weinhold                                : gennbo (NPA and NBO analysis)
   Simon Mueller                                 : openCOSMO-RS
   Christopher J. Cramer and Donald G. Truhlar   : smd solvation model
   Lars Goerigk                                  : TD-DFT with DH, B97 family of functionals
   V. Asgeirsson, H. Jonsson                     : NEB implementation
   FAccTs GmbH                                   : IRC, NEB, NEB-TS, DLPNO-Multilevel, CI-OPT
                                                   MM, QMMM, 2- and 3-layer-ONIOM, Crystal-QMMM,
                                                   LR-CPCM, SF, NACMEs, symmetry and pop. for TD-DFT,
                                                   nearIR, NL-DFT gradient (VV10), updates on ESD,
                                                   ML-optimized integration grids, MBIS, APM,
                                                   GOAT, DOCKER, SOLVATOR, interface openCOSMO-RS
   S Lehtola, MJT Oliveira, MAL Marques          : LibXC Library
   Liviu Ungur et al                             : ANISO software


 Your calculation uses the libint2 library for the computation of 2-el integrals
 For citations please refer to: http://libint.valeyev.net

 Your ORCA version has been built with support for libXC version: 6.2.2
 For citations please refer to: https://libxc.gitlab.io

 This ORCA versions uses:
   CBLAS   interface :  Fast vector & matrix operations
   LAPACKE interface :  Fast linear algebra routines
   Shared memory     :  Shared parallel matrices


Your calculation utilizes the atom-pairwise dispersion correction
with the Becke-Johnson damping scheme (D3BJ)


Warning: RI is on but no J-basis has been assigned. Assigning Def2/J (nothing to worry about!)
================================================================================

----- Orbital basis set information -----
Your calculation utilizes the basis: def2-SVP
   F. Weigend and R. Ahlrichs, Phys. Chem. Chem. Phys. 7, 3297 (2005).

----- AuxJ basis set information -----
Your calculation utilizes the auxiliary basis: def2/J
   F. Weigend, Phys. Chem. Chem. Phys. 8, 1057 (2006).

================================================================================
                                        WARNINGS
                       Please study these warnings very carefully!
================================================================================


WARNING: Geometry Optimization
  ===> : Switching off AutoStart
         For restart on a previous wavefunction, please use MOREAD

================================================================================
                                       INPUT FILE
================================================================================
NAME = data/geom_opt_P_BP86/80271/80271.inp
|  1> ! RI BP86 def2-SVP D3BJ TIGHTSCF Opt
|  2> %pal
|  3> nprocs 6
|  4> end
|  5> 
|  6> * xyz 0 1
|  7> C      2.751471   -0.306212   -2.160390
|  8> C      2.511913   -1.108467   -0.905035
|  9> C      3.562409   -1.921220   -0.436806
| 10> C      3.417036   -2.691537    0.713652
| 11> C      2.219730   -2.660629    1.414135
| 12> C      1.168192   -1.857404    0.965856
| 13> C      1.285779   -1.063595   -0.192297
| 14> P     -0.099163   -0.010187   -0.775348
| 15> C      0.260629    1.656532   -0.096911
| 16> C      1.228108    1.847154    0.909532
| 17> C      1.505325    3.113834    1.429656
| 18> C      0.821940    4.224058    0.954722
| 19> C     -0.137102    4.068414   -0.042317
| 20> C     -0.426969    2.799675   -0.580487
| 21> C     -1.479168    2.718694   -1.659021
| 22> C     -1.562183   -0.594566    0.165798
| 23> C     -1.984508    0.052509    1.344024
| 24> C     -3.097270   -0.388767    2.064365
| 25> C     -3.817967   -1.489296    1.623223
| 26> C     -3.427736   -2.147432    0.460187
| 27> C     -2.310800   -1.714391   -0.280270
| 28> C     -1.956487   -2.482713   -1.529694
| 29> H      2.714149    0.766118   -1.944923
| 30> H      2.012880   -0.559819   -2.927489
| 31> H      3.738424   -0.515553   -2.587667
| 32> H      4.507953   -1.958767   -0.974181
| 33> H      4.236926   -3.314818    1.059911
| 34> H      2.096976   -3.260073    2.312342
| 35> H      0.253599   -1.863878    1.553310
| 36> H      1.786369    1.009376    1.319528
| 37> H      2.256800    3.226392    2.206697
| 38> H      1.034868    5.210493    1.357465
| 39> H     -0.662375    4.950322   -0.403653
| 40> H     -1.063922    2.278602   -2.571251
| 41> H     -1.854999    3.712164   -1.927788
| 42> H     -2.336728    2.131146   -1.316842
| 43> H     -1.450605    0.914977    1.734816
| 44> H     -3.395835    0.132007    2.970362
| 45> H     -4.683592   -1.835280    2.181418
| 46> H     -4.005400   -3.007939    0.128423
| 47> H     -1.959608   -1.822514   -2.402850
| 48> H     -0.976755   -2.958803   -1.423989
| 49> H     -2.682302   -3.278609   -1.730213
| 50> **                         ****END OF INPUT****
================================================================================

                       *****************************
                       * Geometry Optimization Run *
                       *****************************

Geometry optimization settings:
Update method            Update   .... BFGS
Choice of coordinates    CoordSys .... (2022) Redundant Internals
Initial Hessian          InHess   .... Almloef's Model
Max. no of cycles        MaxIter  .... 129

Convergence Tolerances:
Energy Change            TolE     ....  5.0000e-06 Eh
Max. Gradient            TolMAXG  ....  3.0000e-04 Eh/bohr
RMS Gradient             TolRMSG  ....  1.0000e-04 Eh/bohr
Max. Displacement        TolMAXD  ....  4.0000e-03 bohr
RMS Displacement         TolRMSD  ....  2.0000e-03 bohr
Strict Convergence                .... False

------------------------------------------------------------------------------
                        ORCA OPTIMIZATION COORDINATE SETUP
------------------------------------------------------------------------------

The optimization will be done in redundant internal coordinates (2022)
Making redundant internal coordinates   ...  (2022 redundants) done
Evaluating the initial hessian          ...  (Almloef) done
Evaluating the coordinates              ...  done
Calculating the B-matrix                .... done
Calculating the G-matrix                .... done
Diagonalizing the G-matrix              .... done
Small eigenvalue found = 4.621e-03
Small eigenvalue found = 4.623e-03
Small eigenvalue found = 7.300e-03
Small eigenvalue found = 1.390e-02
Small eigenvalue found = 1.401e-02
Small eigenvalue found = 1.862e-02
Small eigenvalue found = 2.333e-02
The first mode is                       ....   96
The number of degrees of freedom        ....  123

    -----------------------------------------------------------------
                    Redundant Internal Coordinates


    -----------------------------------------------------------------
         Definition                    Initial Value    Approx d2E/dq
    -----------------------------------------------------------------
      1. B(C   1,C   0)                  1.5089         0.403616   
      2. B(C   2,C   1)                  1.4083         0.584144   
      3. B(C   3,C   2)                  1.3921         0.619886   
      4. B(C   4,C   3)                  1.3875         0.630547   
      5. B(C   5,C   4)                  1.3971         0.608736   
      6. B(C   6,C   5)                  1.4090         0.582676   
      7. B(C   6,C   1)                  1.4189         0.561764   
      8. B(P   7,C   6)                  1.8351         0.409322   
      9. B(C   8,P   7)                  1.8351         0.409323   
     10. B(C   9,C   8)                  1.4090         0.582674   
     11. B(C  10,C   9)                  1.3971         0.608736   
     12. B(C  11,C  10)                  1.3875         0.630546   
     13. B(C  12,C  11)                  1.3921         0.619888   
     14. B(C  13,C  12)                  1.4083         0.584144   
     15. B(C  13,C   8)                  1.4189         0.561764   
     16. B(C  14,C  13)                  1.5089         0.403616   
     17. B(C  15,P   7)                  1.8351         0.409322   
     18. B(C  16,C  15)                  1.4090         0.582674   
     19. B(C  17,C  16)                  1.3971         0.608738   
     20. B(C  18,C  17)                  1.3875         0.630546   
     21. B(C  19,C  18)                  1.3921         0.619886   
     22. B(C  20,C  19)                  1.4083         0.584145   
     23. B(C  20,C  15)                  1.4189         0.561765   
     24. B(C  21,C  20)                  1.5089         0.403616   
     25. B(H  22,C   0)                  1.0944         0.354327   
     26. B(H  23,C   0)                  1.0947         0.353992   
     27. B(H  24,C   0)                  1.0957         0.352693   
     28. B(H  25,C   2)                  1.0882         0.362455   
     29. B(H  26,C   3)                  1.0866         0.364691   
     30. B(H  27,C   4)                  1.0868         0.364332   
     31. B(H  28,C   5)                  1.0870         0.364056   
     32. B(H  29,C   9)                  1.0870         0.364057   
     33. B(H  30,C  10)                  1.0868         0.364332   
     34. B(H  31,C  11)                  1.0866         0.364691   
     35. B(H  32,C  12)                  1.0882         0.362454   
     36. B(H  33,C  14)                  1.0947         0.353992   
     37. B(H  34,C  14)                  1.0957         0.352692   
     38. B(H  35,C  14)                  1.0944         0.354328   
     39. B(H  36,C  16)                  1.0870         0.364058   
     40. B(H  37,C  17)                  1.0868         0.364332   
     41. B(H  38,C  18)                  1.0866         0.364692   
     42. B(H  39,C  19)                  1.0882         0.362455   
     43. B(H  40,C  21)                  1.0947         0.353992   
     44. B(H  41,C  21)                  1.0944         0.354327   
     45. B(H  42,C  21)                  1.0957         0.352693   
     46. A(C   1,C   0,H  23)          110.6528         0.327549   
     47. A(C   1,C   0,H  24)          111.4605         0.327351   
     48. A(C   1,C   0,H  22)          110.5936         0.327600   
     49. A(H  22,C   0,H  24)          107.1401         0.289159   
     50. A(H  22,C   0,H  23)          109.9965         0.289325   
     51. A(H  23,C   0,H  24)          106.8721         0.289116   
     52. A(C   0,C   1,C   6)          122.5651         0.395205   
     53. A(C   0,C   1,C   2)          117.7107         0.397924   
     54. A(C   2,C   1,C   6)          119.7233         0.421928   
     55. A(C   3,C   2,H  25)          118.6671         0.353288   
     56. A(C   1,C   2,H  25)          120.2555         0.349759   
     57. A(C   1,C   2,C   3)          121.0773         0.429430   
     58. A(C   4,C   3,H  26)          120.2010         0.354679   
     59. A(C   2,C   3,C   4)          119.6689         0.435372   
     60. A(C   2,C   3,H  26)          120.1300         0.353656   
     61. A(C   5,C   4,H  27)          119.8199         0.352512   
     62. A(C   3,C   4,H  27)          120.1599         0.354620   
     63. A(C   3,C   4,C   5)          120.0202         0.433951   
     64. A(C   6,C   5,H  28)          121.1836         0.349871   
     65. A(C   4,C   5,H  28)          117.1578         0.352467   
     66. A(C   4,C   5,C   6)          121.6571         0.427842   
     67. A(C   5,C   6,P   7)          121.4376         0.425046   
     68. A(C   1,C   6,P   7)          120.7103         0.422278   
     69. A(C   1,C   6,C   5)          117.8509         0.421739   
     70. A(C   8,P   7,C  15)          104.8283         0.425591   
     71. A(C   6,P   7,C  15)          104.8284         0.425591   
     72. A(C   6,P   7,C   8)          104.8285         0.425591   
     73. A(P   7,C   8,C   9)          121.4375         0.425046   
     74. A(C   9,C   8,C  13)          117.8510         0.421739   
     75. A(P   7,C   8,C  13)          120.7104         0.422278   
     76. A(C  10,C   9,H  29)          117.1579         0.352467   
     77. A(C   8,C   9,C  10)          121.6571         0.427842   
     78. A(C   8,C   9,H  29)          121.1836         0.349870   
     79. A(C  11,C  10,H  30)          120.1599         0.354620   
     80. A(C   9,C  10,H  30)          119.8199         0.352512   
     81. A(C   9,C  10,C  11)          120.0202         0.433951   
     82. A(C  10,C  11,C  12)          119.6689         0.435372   
     83. A(C  12,C  11,H  31)          120.1300         0.353656   
     84. A(C  10,C  11,H  31)          120.2011         0.354679   
     85. A(C  13,C  12,H  32)          120.2554         0.349759   
     86. A(C  11,C  12,H  32)          118.6671         0.353288   
     87. A(C  11,C  12,C  13)          121.0774         0.429431   
     88. A(C  12,C  13,C  14)          117.7108         0.397924   
     89. A(C   8,C  13,C  14)          122.5651         0.395205   
     90. A(C   8,C  13,C  12)          119.7233         0.421928   
     91. A(H  33,C  14,H  35)          109.9965         0.289325   
     92. A(H  33,C  14,H  34)          106.8722         0.289116   
     93. A(C  13,C  14,H  34)          111.4605         0.327351   
     94. A(C  13,C  14,H  33)          110.6528         0.327549   
     95. A(C  13,C  14,H  35)          110.5935         0.327600   
     96. A(H  34,C  14,H  35)          107.1400         0.289159   
     97. A(C  16,C  15,C  20)          117.8510         0.421738   
     98. A(P   7,C  15,C  20)          120.7103         0.422278   
     99. A(P   7,C  15,C  16)          121.4375         0.425046   
    100. A(C  17,C  16,H  36)          117.1580         0.352467   
    101. A(C  15,C  16,H  36)          121.1835         0.349871   
    102. A(C  15,C  16,C  17)          121.6570         0.427842   
    103. A(C  16,C  17,C  18)          120.0203         0.433952   
    104. A(C  18,C  17,H  37)          120.1599         0.354620   
    105. A(C  16,C  17,H  37)          119.8199         0.352512   
    106. A(C  17,C  18,C  19)          119.6689         0.435371   
    107. A(C  19,C  18,H  38)          120.1300         0.353656   
    108. A(C  17,C  18,H  38)          120.2011         0.354679   
    109. A(C  18,C  19,C  20)          121.0773         0.429430   
    110. A(C  20,C  19,H  39)          120.2555         0.349759   
    111. A(C  18,C  19,H  39)          118.6671         0.353288   
    112. A(C  15,C  20,C  19)          119.7233         0.421928   
    113. A(C  19,C  20,C  21)          117.7108         0.397924   
    114. A(C  15,C  20,C  21)          122.5651         0.395205   
    115. A(H  41,C  21,H  42)          107.1401         0.289159   
    116. A(H  40,C  21,H  42)          106.8721         0.289116   
    117. A(C  20,C  21,H  42)          111.4605         0.327351   
    118. A(H  40,C  21,H  41)          109.9965         0.289325   
    119. A(C  20,C  21,H  41)          110.5935         0.327600   
    120. A(C  20,C  21,H  40)          110.6529         0.327549   
    121. D(C   6,C   1,C   0,H  23)    -58.3712         0.012080   
    122. D(C   2,C   1,C   0,H  24)      3.1851         0.012080   
    123. D(C   2,C   1,C   0,H  22)   -115.8923         0.012080   
    124. D(C   6,C   1,C   0,H  22)     63.7711         0.012080   
    125. D(C   2,C   1,C   0,H  23)    121.9654         0.012080   
    126. D(C   3,C   2,C   1,C   0)   -179.9384         0.023459   
    127. D(H  25,C   2,C   1,C   0)     -0.0546         0.023459   
    128. D(H  25,C   2,C   1,C   6)   -179.7280         0.023459   
    129. D(C   3,C   2,C   1,C   6)      0.3882         0.023459   
    130. D(H  26,C   3,C   2,H  25)     -0.0191         0.026589   
    131. D(C   4,C   3,C   2,H  25)   -179.9248         0.026589   
    132. D(H  26,C   3,C   2,C   1)    179.8665         0.026589   
    133. D(C   4,C   3,C   2,C   1)     -0.0392         0.026589   
    134. D(C   5,C   4,C   3,C   2)     -0.1228         0.027570   
    135. D(C   5,C   4,C   3,H  26)    179.9716         0.027570   
    136. D(H  27,C   4,C   3,C   2)    179.8980         0.027570   
    137. D(H  27,C   4,C   3,H  26)     -0.0077         0.027570   
    138. D(H  28,C   5,C   4,H  27)      0.3449         0.025586   
    139. D(C   6,C   5,C   4,C   3)     -0.0681         0.025586   
    140. D(C   6,C   5,C   4,H  27)    179.9112         0.025586   
    141. D(H  28,C   5,C   4,C   3)   -179.6344         0.025586   
    142. D(P   7,C   6,C   5,H  28)     -0.4263         0.023336   
    143. D(P   7,C   6,C   5,C   4)   -179.9752         0.023336   
    144. D(C   1,C   6,C   5,H  28)    179.9568         0.023336   
    145. D(C   1,C   6,C   5,C   4)      0.4078         0.023336   
    146. D(P   7,C   6,C   1,C   2)    179.8207         0.021622   
    147. D(P   7,C   6,C   1,C   0)      0.1638         0.021622   
    148. D(C   5,C   6,C   1,C   2)     -0.5595         0.021622   
    149. D(C   5,C   6,C   1,C   0)    179.7837         0.021622   
    150. D(C   8,P   7,C   6,C   5)     96.3123         0.003580   
    151. D(C   8,P   7,C   6,C   1)    -84.0816         0.003580   
    152. D(C  15,P   7,C   6,C   5)    -13.8054         0.003580   
    153. D(C  15,P   7,C   6,C   1)    165.8007         0.003580   
    154. D(C  13,C   8,P   7,C  15)    -84.0815         0.003580   
    155. D(C  13,C   8,P   7,C   6)    165.8008         0.003580   
    156. D(C   9,C   8,P   7,C  15)     96.3124         0.003580   
    157. D(C   9,C   8,P   7,C   6)    -13.8054         0.003580   
    158. D(H  29,C   9,C   8,C  13)    179.9565         0.023336   
    159. D(H  29,C   9,C   8,P   7)     -0.4265         0.023336   
    160. D(C  10,C   9,C   8,C  13)      0.4076         0.023336   
    161. D(C  10,C   9,C   8,P   7)   -179.9753         0.023336   
    162. D(H  30,C  10,C   9,H  29)      0.3449         0.025586   
    163. D(H  30,C  10,C   9,C   8)    179.9111         0.025586   
    164. D(C  11,C  10,C   9,H  29)   -179.6344         0.025586   
    165. D(C  11,C  10,C   9,C   8)     -0.0682         0.025586   
    166. D(H  31,C  11,C  10,H  30)     -0.0075         0.027570   
    167. D(H  31,C  11,C  10,C   9)    179.9717         0.027570   
    168. D(C  12,C  11,C  10,C   9)     -0.1226         0.027570   
    169. D(C  12,C  11,C  10,H  30)    179.8981         0.027570   
    170. D(H  32,C  12,C  11,H  31)     -0.0192         0.026589   
    171. D(H  32,C  12,C  11,C  10)   -179.9249         0.026589   
    172. D(C  13,C  12,C  11,H  31)    179.8665         0.026589   
    173. D(C  13,C  12,C  11,C  10)     -0.0392         0.026589   
    174. D(C  14,C  13,C  12,H  32)     -0.0547         0.023459   
    175. D(C  14,C  13,C  12,C  11)   -179.9386         0.023459   
    176. D(C   8,C  13,C  12,H  32)   -179.7281         0.023459   
    177. D(C   8,C  13,C  12,C  11)      0.3880         0.023459   
    178. D(C  14,C  13,C   8,C   9)    179.7839         0.021622   
    179. D(C  14,C  13,C   8,P   7)      0.1640         0.021622   
    180. D(C  12,C  13,C   8,C   9)     -0.5592         0.021622   
    181. D(C  12,C  13,C   8,P   7)    179.8209         0.021622   
    182. D(H  33,C  14,C  13,C  12)    121.9646         0.012080   
    183. D(H  33,C  14,C  13,C   8)    -58.3720         0.012080   
    184. D(H  35,C  14,C  13,C   8)     63.7704         0.012080   
    185. D(H  34,C  14,C  13,C  12)      3.1842         0.012080   
    186. D(H  34,C  14,C  13,C   8)   -177.1523         0.012080   
    187. D(C  20,C  15,P   7,C   8)    165.7990         0.003580   
    188. D(C  20,C  15,P   7,C   6)    -84.0832         0.003580   
    189. D(C  16,C  15,P   7,C   8)    -13.8072         0.003580   
    190. D(C  16,C  15,P   7,C   6)     96.3106         0.003580   
    191. D(H  36,C  16,C  15,C  20)    179.9567         0.023336   
    192. D(H  36,C  16,C  15,P   7)     -0.4263         0.023336   
    193. D(C  17,C  16,C  15,C  20)      0.4079         0.023336   
    194. D(C  17,C  16,C  15,P   7)   -179.9750         0.023336   
    195. D(H  37,C  17,C  16,H  36)      0.3450         0.025587   
    196. D(H  37,C  17,C  16,C  15)    179.9111         0.025587   
    197. D(C  18,C  17,C  16,H  36)   -179.6344         0.025587   
    198. D(C  18,C  17,C  16,C  15)     -0.0683         0.025587   
    199. D(H  38,C  18,C  17,H  37)     -0.0076         0.027570   
    200. D(H  38,C  18,C  17,C  16)    179.9717         0.027570   
    201. D(C  19,C  18,C  17,H  37)    179.8980         0.027570   
    202. D(C  19,C  18,C  17,C  16)     -0.1227         0.027570   
    203. D(H  39,C  19,C  18,H  38)     -0.0191         0.026589   
    204. D(H  39,C  19,C  18,C  17)   -179.9248         0.026589   
    205. D(C  20,C  19,C  18,H  38)    179.8666         0.026589   
    206. D(C  20,C  19,C  18,C  17)     -0.0391         0.026589   
    207. D(C  21,C  20,C  19,H  39)     -0.0549         0.023459   
    208. D(C  21,C  20,C  19,C  18)   -179.9388         0.023459   
    209. D(C  15,C  20,C  19,H  39)   -179.7281         0.023459   
    210. D(C  15,C  20,C  19,C  18)      0.3880         0.023459   
    211. D(C  21,C  20,C  15,C  16)    179.7839         0.021622   
    212. D(C  21,C  20,C  15,P   7)      0.1639         0.021622   
    213. D(C  19,C  20,C  15,C  16)     -0.5594         0.021622   
    214. D(C  19,C  20,C  15,P   7)    179.8206         0.021622   
    215. D(H  42,C  21,C  20,C  15)   -177.1518         0.012080   
    216. D(H  41,C  21,C  20,C  19)   -115.8925         0.012080   
    217. D(H  41,C  21,C  20,C  15)     63.7708         0.012080   
    218. D(H  40,C  21,C  20,C  19)    121.9652         0.012080   
    219. D(H  40,C  21,C  20,C  15)    -58.3716         0.012080   
    -----------------------------------------------------------------

Number of atoms                         .... 43
Number of degrees of freedom            .... 219


         *************************************************************
         *                GEOMETRY OPTIMIZATION CYCLE   1            *
         *************************************************************
---------------------------------
CARTESIAN COORDINATES (ANGSTROEM)
---------------------------------
  C      2.751471   -0.306212   -2.160390
  C      2.511913   -1.108467   -0.905035
  C      3.562409   -1.921220   -0.436806
  C      3.417036   -2.691537    0.713652
  C      2.219730   -2.660629    1.414135
  C      1.168192   -1.857404    0.965856
  C      1.285779   -1.063595   -0.192297
  P     -0.099163   -0.010187   -0.775348
  C      0.260629    1.656532   -0.096911
  C      1.228108    1.847154    0.909532
  C      1.505325    3.113834    1.429656
  C      0.821940    4.224058    0.954722
  C     -0.137102    4.068414   -0.042317
  C     -0.426969    2.799675   -0.580487
  C     -1.479168    2.718694   -1.659021
  C     -1.562183   -0.594566    0.165798
  C     -1.984508    0.052509    1.344024
  C     -3.097270   -0.388767    2.064365
  C     -3.817967   -1.489296    1.623223
  C     -3.427736   -2.147432    0.460187
  C     -2.310800   -1.714391   -0.280270
  C     -1.956487   -2.482713   -1.529694
  H      2.714149    0.766118   -1.944923
  H      2.012880   -0.559819   -2.927489
  H      3.738424   -0.515553   -2.587667
  H      4.507953   -1.958767   -0.974181
  H      4.236926   -3.314818    1.059911
  H      2.096976   -3.260073    2.312342
  H      0.253599   -1.863878    1.553310
  H      1.786369    1.009376    1.319528
  H      2.256800    3.226392    2.206697
  H      1.034868    5.210493    1.357465
  H     -0.662375    4.950322   -0.403653
  H     -1.063922    2.278602   -2.571251
  H     -1.854999    3.712164   -1.927788
  H     -2.336728    2.131146   -1.316842
  H     -1.450605    0.914977    1.734816
  H     -3.395835    0.132007    2.970362
  H     -4.683592   -1.835280    2.181418
  H     -4.005400   -3.007939    0.128423
  H     -1.959608   -1.822514   -2.402850
  H     -0.976755   -2.958803   -1.423989
  H     -2.682302   -3.278609   -1.730213

----------------------------
CARTESIAN COORDINATES (A.U.)
----------------------------
  NO LB      ZA    FRAG     MASS         X           Y           Z
   0 C     6.0000    0    12.011    5.199527   -0.578657   -4.082545
   1 C     6.0000    0    12.011    4.746828   -2.094699   -1.710268
   2 C     6.0000    0    12.011    6.731977   -3.630580   -0.825444
   3 C     6.0000    0    12.011    6.457262   -5.086268    1.348607
   4 C     6.0000    0    12.011    4.194682   -5.027860    2.672328
   5 C     6.0000    0    12.011    2.207563   -3.509985    1.825203
   6 C     6.0000    0    12.011    2.429770   -2.009903   -0.363389
   7 P    15.0000    0    30.974   -0.187391   -0.019251   -1.465195
   8 C     6.0000    0    12.011    0.492517    3.130392   -0.183135
   9 C     6.0000    0    12.011    2.320788    3.490615    1.718766
  10 C     6.0000    0    12.011    2.844652    5.884293    2.701658
  11 C     6.0000    0    12.011    1.553241    7.982313    1.804163
  12 C     6.0000    0    12.011   -0.259085    7.688188   -0.079968
  13 C     6.0000    0    12.011   -0.806854    5.290619   -1.096961
  14 C     6.0000    0    12.011   -2.795222    5.137587   -3.135095
  15 C     6.0000    0    12.011   -2.952098   -1.123567    0.313313
  16 C     6.0000    0    12.011   -3.750177    0.099228    2.539837
  17 C     6.0000    0    12.011   -5.852992   -0.734663    3.901084
  18 C     6.0000    0    12.011   -7.214912   -2.814362    3.067447
  19 C     6.0000    0    12.011   -6.477482   -4.058058    0.869627
  20 C     6.0000    0    12.011   -4.366779   -3.239729   -0.529634
  21 C     6.0000    0    12.011   -3.697225   -4.691648   -2.890703
  22 H     1.0000    0     1.008    5.128998    1.447753   -3.675372
  23 H     1.0000    0     1.008    3.803792   -1.057905   -5.532152
  24 H     1.0000    0     1.008    7.064598   -0.974254   -4.889982
  25 H     1.0000    0     1.008    8.518797   -3.701533   -1.840935
  26 H     1.0000    0     1.008    8.006630   -6.264098    2.002942
  27 H     1.0000    0     1.008    3.962710   -6.160645    4.369693
  28 H     1.0000    0     1.008    0.479233   -3.522219    2.935331
  29 H     1.0000    0     1.008    3.375748    1.907444    2.493547
  30 H     1.0000    0     1.008    4.264734    6.096997    4.170053
  31 H     1.0000    0     1.008    1.955617    9.846405    2.565237
  32 H     1.0000    0     1.008   -1.251707    9.354753   -0.762794
  33 H     1.0000    0     1.008   -2.010521    4.305934   -4.858960
  34 H     1.0000    0     1.008   -3.505440    7.014973   -3.642991
  35 H     1.0000    0     1.008   -4.415776    4.027282   -2.488471
  36 H     1.0000    0     1.008   -2.741246    1.729056    3.278327
  37 H     1.0000    0     1.008   -6.417198    0.249457    5.613171
  38 H     1.0000    0     1.008   -8.850706   -3.468177    4.122283
  39 H     1.0000    0     1.008   -7.569109   -5.684181    0.242684
  40 H     1.0000    0     1.008   -3.703122   -3.444052   -4.540728
  41 H     1.0000    0     1.008   -1.845799   -5.591327   -2.690949
  42 H     1.0000    0     1.008   -5.068816   -6.195673   -3.269629

--------------------------------
INTERNAL COORDINATES (ANGSTROEM)
--------------------------------
 C      0   0   0     0.000000000000     0.00000000     0.00000000
 C      1   0   0     1.508945756618     0.00000000     0.00000000
 C      2   1   0     1.408313772377   117.71073754     0.00000000
 C      3   2   1     1.392147693092   121.07734710   180.06155401
 C      4   3   2     1.387506178505   119.66888267   359.96077462
 C      5   4   3     1.397088625646   120.02022278   359.87723257
 C      6   5   4     1.408998865315   121.65713464   359.93187497
 P      7   6   5     1.835124308168   121.43758447   180.02477655
 C      8   7   6     1.835123775442   104.82852826    96.31233848
 C      9   8   7     1.408999600629   121.43749435   346.19463966
 C     10   9   8     1.397088566579   121.65705464   180.02466690
 C     11  10   9     1.387506646023   120.02024746   359.93183365
 C     12  11  10     1.392147039655   119.66887521   359.87736630
 C     13  12  11     1.408314054716   121.07739810   359.96078730
 C     14  13  12     1.508945408926   117.71080269   180.06137270
 C      8   7   6     1.835124554181   104.82837240   346.19462362
 C     16   8   7     1.408999988760   121.43754474    96.31064225
 C     17  16   8     1.397088019096   121.65703069   180.02497616
 C     18  17  16     1.387506580098   120.02028167   359.93169016
 C     19  18  17     1.392147968124   119.66887332   359.87732236
 C     20  19  18     1.408313567579   121.07733955   359.96087442
 C     21  20  19     1.508945568743   117.71076731   180.06124382
 H      1   2   3     1.094399647603   110.59355330   244.10770989
 H      1   2   3     1.094657047450   110.65279157   121.96536098
 H      1   2   3     1.095657571150   111.46052005     3.18514891
 H      3   2   1     1.088225676857   120.25547946   359.94536784
 H      4   3   2     1.086551476987   120.13000612   179.86650227
 H      5   4   3     1.086819887792   120.15985225   179.89800424
 H      6   5   4     1.087025515083   117.15778330   180.36559534
 H     10   9   8     1.087025317746   121.18359519   359.57352224
 H     11  10   9     1.086819531785   119.81989205   179.91113470
 H     12  11  10     1.086551547999   120.20105778   179.97168293
 H     13  12  11     1.088226607784   118.66708015   180.07505347
 H     15  14  13     1.094656924283   110.65280033   121.96458166
 H     15  14  13     1.095658378214   111.46047941     3.18423488
 H     15  14  13     1.094398590069   110.59352602   244.10694085
 H     17  16   8     1.087024310536   121.18351769   359.57371727
 H     18  17  16     1.086819756128   119.81986414   179.91110450
 H     19  18  17     1.086551069626   120.20106707   179.97169602
 H     20  19  18     1.088225778798   118.66710235   180.07517306
 H     22  21  20     1.094656960229   110.65287518   121.96516256
 H     22  21  20     1.094399390967   110.59349048   244.10750932
 H     22  21  20     1.095657668436   111.46052184     3.18491939

---------------------------
INTERNAL COORDINATES (A.U.)
---------------------------
 C      0   0   0     0.000000000000     0.00000000     0.00000000
 C      1   0   0     2.851494230950     0.00000000     0.00000000
 C      2   1   0     2.661327340422   117.71073754     0.00000000
 C      3   2   1     2.630777877915   121.07734710   180.06155401
 C      4   3   2     2.622006686498   119.66888267   359.96077462
 C      5   4   3     2.640114887288   120.02022278   359.87723257
 C      6   5   4     2.662621978451   121.65713464   359.93187497
 P      7   6   5     3.467882364139   121.43758447   180.02477655
 C      8   7   6     3.467881357434   104.82852826    96.31233848
 C      9   8   7     2.662623367994   121.43749435   346.19463966
 C     10   9   8     2.640114775666   121.65705464   180.02466690
 C     11  10   9     2.622007569978   120.02024746   359.93183365
 C     12  11  10     2.630776643098   119.66887521   359.87736630
 C     13  12  11     2.661327873965   121.07739810   359.96078730
 C     14  13  12     2.851493573907   117.71080269   180.06137270
 C      8   7   6     3.467882829036   104.82837240   346.19462362
 C     16   8   7     2.662624101455   121.43754474    96.31064225
 C     17  16   8     2.640113741074   121.65703069   180.02497616
 C     18  17  16     2.622007445398   120.02028167   359.93169016
 C     19  18  17     2.630778397650   119.66887332   359.87732236
 C     20  19  18     2.661326953409   121.07733955   359.96087442
 C     21  20  19     2.851493875918   117.71076731   180.06124382
 H      1   2   3     2.068115615029   110.59355330   244.10770989
 H      1   2   3     2.068602030247   110.65279157   121.96536098
 H      1   2   3     2.070492746031   111.46052005     3.18514891
 H      3   2   1     2.056448501160   120.25547946   359.94536784
 H      4   3   2     2.053284721913   120.13000612   179.86650227
 H      5   4   3     2.053791944827   120.15985225   179.89800424
 H      6   5   4     2.054180524091   117.15778330   180.36559534
 H     10   9   8     2.054180151179   121.18359519   359.57352224
 H     11  10   9     2.053791272071   119.81989205   179.91113470
 H     12  11  10     2.053284856105   120.20105778   179.97168293
 H     13  12  11     2.056450260358   118.66708015   180.07505347
 H     15  14  13     2.068601797495   110.65280033   121.96458166
 H     15  14  13     2.070494271160   111.46047941     3.18423488
 H     15  14  13     2.068113616580   110.59352602   244.10694085
 H     17  16   8     2.054178247828   121.18351769   359.57371727
 H     18  17  16     2.053791696017   119.81986414   179.91110450
 H     19  18  17     2.053283952113   120.20106707   179.97169602
 H     20  19  18     2.056448693802   118.66710235   180.07517306
 H     22  21  20     2.068601865424   110.65287518   121.96516256
 H     22  21  20     2.068115130058   110.59349048   244.10750932
 H     22  21  20     2.070492929874   111.46052184     3.18491939

---------------------
BASIS SET INFORMATION
---------------------
There are 3 groups of distinct atoms

 Group   1 Type C   : 7s4p1d contracted to 3s2p1d pattern {511/31/1}
 Group   2 Type P   : 10s7p1d contracted to 4s3p1d pattern {5311/511/1}
 Group   3 Type H   : 4s1p contracted to 2s1p pattern {31/1}

Atom   0C    basis set group =>   1
Atom   1C    basis set group =>   1
Atom   2C    basis set group =>   1
Atom   3C    basis set group =>   1
Atom   4C    basis set group =>   1
Atom   5C    basis set group =>   1
Atom   6C    basis set group =>   1
Atom   7P    basis set group =>   2
Atom   8C    basis set group =>   1
Atom   9C    basis set group =>   1
Atom  10C    basis set group =>   1
Atom  11C    basis set group =>   1
Atom  12C    basis set group =>   1
Atom  13C    basis set group =>   1
Atom  14C    basis set group =>   1
Atom  15C    basis set group =>   1
Atom  16C    basis set group =>   1
Atom  17C    basis set group =>   1
Atom  18C    basis set group =>   1
Atom  19C    basis set group =>   1
Atom  20C    basis set group =>   1
Atom  21C    basis set group =>   1
Atom  22H    basis set group =>   3
Atom  23H    basis set group =>   3
Atom  24H    basis set group =>   3
Atom  25H    basis set group =>   3
Atom  26H    basis set group =>   3
Atom  27H    basis set group =>   3
Atom  28H    basis set group =>   3
Atom  29H    basis set group =>   3
Atom  30H    basis set group =>   3
Atom  31H    basis set group =>   3
Atom  32H    basis set group =>   3
Atom  33H    basis set group =>   3
Atom  34H    basis set group =>   3
Atom  35H    basis set group =>   3
Atom  36H    basis set group =>   3
Atom  37H    basis set group =>   3
Atom  38H    basis set group =>   3
Atom  39H    basis set group =>   3
Atom  40H    basis set group =>   3
Atom  41H    basis set group =>   3
Atom  42H    basis set group =>   3
---------------------------------
AUXILIARY/J BASIS SET INFORMATION
---------------------------------
There are 3 groups of distinct atoms

 Group   1 Type C   : 12s5p4d2f1g contracted to 6s4p3d1f1g pattern {711111/2111/211/2/1}
 Group   2 Type P   : 14s5p5d2f1g contracted to 8s4p3d1f1g pattern {71111111/2111/311/2/1}
 Group   3 Type H   : 5s2p1d contracted to 3s1p1d pattern {311/2/1}

Atom   0C    basis set group =>   1
Atom   1C    basis set group =>   1
Atom   2C    basis set group =>   1
Atom   3C    basis set group =>   1
Atom   4C    basis set group =>   1
Atom   5C    basis set group =>   1
Atom   6C    basis set group =>   1
Atom   7P    basis set group =>   2
Atom   8C    basis set group =>   1
Atom   9C    basis set group =>   1
Atom  10C    basis set group =>   1
Atom  11C    basis set group =>   1
Atom  12C    basis set group =>   1
Atom  13C    basis set group =>   1
Atom  14C    basis set group =>   1
Atom  15C    basis set group =>   1
Atom  16C    basis set group =>   1
Atom  17C    basis set group =>   1
Atom  18C    basis set group =>   1
Atom  19C    basis set group =>   1
Atom  20C    basis set group =>   1
Atom  21C    basis set group =>   1
Atom  22H    basis set group =>   3
Atom  23H    basis set group =>   3
Atom  24H    basis set group =>   3
Atom  25H    basis set group =>   3
Atom  26H    basis set group =>   3
Atom  27H    basis set group =>   3
Atom  28H    basis set group =>   3
Atom  29H    basis set group =>   3
Atom  30H    basis set group =>   3
Atom  31H    basis set group =>   3
Atom  32H    basis set group =>   3
Atom  33H    basis set group =>   3
Atom  34H    basis set group =>   3
Atom  35H    basis set group =>   3
Atom  36H    basis set group =>   3
Atom  37H    basis set group =>   3
Atom  38H    basis set group =>   3
Atom  39H    basis set group =>   3
Atom  40H    basis set group =>   3
Atom  41H    basis set group =>   3
Atom  42H    basis set group =>   3


           ************************************************************
           *        Program running with 6 parallel MPI-processes     *
           *              working on a common directory               *
           ************************************************************
------------------------------------------------------------------------------
                             ORCA STARTUP CALCULATIONS
                           -- RI-GTO INTEGRALS CHOSEN --
------------------------------------------------------------------------------
------------------------------------------------------------------------------
                   ___                                                        
                  /   \      - P O W E R E D   B Y -                         
                 /     \                                                     
                 |  |  |   _    _      __       _____    __    __             
                 |  |  |  | |  | |    /  \     |  _  \  |  |  /  |          
                  \  \/   | |  | |   /    \    | | | |  |  | /  /          
                 / \  \   | |__| |  /  /\  \   | |_| |  |  |/  /          
                |  |  |   |  __  | /  /__\  \  |    /   |      \           
                |  |  |   | |  | | |   __   |  |    \   |  |\   \          
                \     /   | |  | | |  |  |  |  | |\  \  |  | \   \       
                 \___/    |_|  |_| |__|  |__|  |_| \__\ |__|  \__/        
                                                                              
                      - O R C A' S   B I G   F R I E N D -                    
                                      &                                       
                       - I N T E G R A L  F E E D E R -                       
                                                                              
 v1 FN, 2020, v2 2021, v3 2022-2024                                           
------------------------------------------------------------------------------


----------------------
SHARK INTEGRAL PACKAGE
----------------------

Number of atoms                             ...     43
Number of basis functions                   ...    417
Number of shells                            ...    197
Maximum angular momentum                    ...      2
Integral batch strategy                     ... SHARK/LIBINT Hybrid
RI-J (if used) integral strategy            ... SPLIT-RIJ (Revised 2003 algorithm where possible)
Printlevel                                  ...      1
Contraction scheme used                     ... SEGMENTED contraction
Prescreening option                         ... SCHWARTZ
   Thresh                                   ... 2.500e-11
   Tcut                                     ... 2.500e-12
   Tpresel                                  ... 2.500e-12 
Coulomb Range Separation                    ... NOT USED
Exchange Range Separation                   ... NOT USED
Multipole approximations                    ... NOT USED
Finite Nucleus Model                        ... NOT USED
CABS basis                                  ... NOT available
Auxiliary Coulomb fitting basis             ... AVAILABLE
   # of basis functions in Aux-J            ...   1311
   # of shells in Aux-J                     ...    437
   Maximum angular momentum in Aux-J        ...      4
Auxiliary J/K fitting basis                 ... NOT available
Auxiliary Correlation fitting basis         ... NOT available
Auxiliary 'external' fitting basis          ... NOT available

Checking pre-screening integrals            ... done (  0.0 sec) Dimension = 197
Check shell pair data                       ... done (  0.0 sec)
Shell pair information
Shell pair cut-off parameter TPreSel        ...   2.5e-12
Total number of shell pairs                 ...     19503
Shell pairs after pre-screening             ...     15042
Total number of primitive shell pairs       ...     70859
Primitive shell pairs kept                  ...     34659
          la=0 lb=0:   4801 shell pairs
          la=1 lb=0:   5635 shell pairs
          la=1 lb=1:   1716 shell pairs
          la=2 lb=0:   1722 shell pairs
          la=2 lb=1:   1023 shell pairs
          la=2 lb=2:    145 shell pairs

Calculating one electron integrals          ... done (  0.0 sec)
Calculating RI/J V-Matrix + Cholesky decomp.... done (  0.1 sec)
Calculating Nuclear repulsion               ... done (  0.0 sec) ENN=   1858.363665861320 Eh

Diagonalization of the overlap matrix:
Smallest eigenvalue                        ... 2.551e-04
Time for diagonalization                   ...    0.023 sec
Threshold for overlap eigenvalues          ... 1.000e-07
Number of eigenvalues below threshold      ... 0
Time for construction of square roots      ...    0.013 sec
Total time needed                          ...    0.039 sec

-------------------
DFT GRID GENERATION
-------------------

General Integration Accuracy     IntAcc      ... 4.388
Radial Grid Type                 RadialGrid  ... OptM3 with GC (2021)
Angular Grid (max. ang.)         AngularGrid ... 4 (Lebedev-302)
Angular grid pruning method      GridPruning ... 4 (adaptive)
Weight generation scheme         WeightScheme... mBecke (2022)
Basis function cutoff            BFCut       ... 1.0000e-11
Integration weight cutoff        WCut        ... 1.0000e-14
Partially contracted basis set               ... off
Rotationally invariant grid construction     ... off
Angular grids for H and He will be reduced by one unit

Total number of grid points                  ...   199133
Total number of batches                      ...     3136
Average number of points per batch           ...       63
Average number of grid points per atom       ...     4631
Initializing property integral containers    ... done (  0.0 sec)

SHARK setup successfully completed in   1.5 seconds

Maximum memory used throughout the entire STARTUP-calculation: 54.1 MB


           ************************************************************
           *        Program running with 6 parallel MPI-processes     *
           *              working on a common directory               *
           ************************************************************
-------------------------------------------------------------------------------
                                 ORCA GUESS
                   Start orbitals & Density for SCF / CASSCF
-------------------------------------------------------------------------------

------------
SCF SETTINGS
------------
Hamiltonian:
 Density Functional     Method          .... DFT(GTOs)
 Exchange Functional    Exchange        .... B88
   X-Alpha parameter    XAlpha          ....  0.666667
   Becke's b parameter  XBeta           ....  0.004200
 Correlation Functional Correlation     .... P86
 LDA part of GGA corr.  LDAOpt          .... PW91-LDA
 Gradients option       PostSCFGGA      .... off
   NL short-range parameter             ....  4.400000
 RI-approximation to the Coulomb term is turned on
   Number of AuxJ basis functions       .... 1311


General Settings:
 Integral files         IntName         .... data/geom_opt_P_BP86/80271/80271
 Hartree-Fock type      HFTyp           .... RHF
 Total Charge           Charge          ....    0
 Multiplicity           Mult            ....    1
 Number of Electrons    NEL             ....  162
 Basis Dimension        Dim             ....  417
 Nuclear Repulsion      ENuc            ....   1858.3636658613 Eh

Convergence Acceleration:
 AO-DIIS                CNVDIIS         .... on
   Start iteration      DIISMaxIt       ....    12
   Startup error        DIISStart       ....  0.200000
   # of expansion vecs  DIISMaxEq       ....     5
   Bias factor          DIISBfac        ....   1.050
   Max. coefficient     DIISMaxC        ....  10.000
 MO-DIIS                CNVKDIIS        .... off
 Trust-Rad. Augm. Hess. CNVTRAH         .... auto
   Auto Start mean grad. ratio tolernc. ....  1.125000
   Auto Start start iteration           ....    50
   Auto Start num. interpolation iter.  ....    10
   Max. Number of Micro iterations      ....    24
   Max. Number of Macro iterations      .... Maxiter - #DIIS iter
   Number of Davidson start vectors     ....     2
   Converg. threshold    (grad. norm)   ....   1.000e-05
   Grad. Scal. Fac. for Micro threshold ....   0.100
   Minimum threshold for Micro iter.    ....   1.000e-02
   NR start threshold (gradient norm)   ....   1.000e-04
   Initial trust radius                 ....   0.400
   Minimum AH scaling param. (alpha)    ....   1.000
   Maximum AH scaling param. (alpha)    .... 1000.000
   Quad. conv. algorithm                .... NR
   White noise on init. David. guess    .... on
   Maximum white noise                  ....   0.010
   Pseudo random numbers                .... off
   Inactive MOs                         .... canonical
   Orbital update algorithm             .... Taylor
   Preconditioner                       .... Diag
   Full preconditioner red. dimension   ....   250
 SOSCF                  CNVSOSCF        .... on
   Start iteration      SOSCFMaxIt      ....   150
   Startup grad/error   SOSCFStart      ....  0.003300
   Hessian update       SOSCFHessUp     .... L-BFGS
 Level Shifting         CNVShift        .... on
   Level shift para.    LevelShift      ....    0.2500
   Turn off err/grad.   ShiftErr        ....    0.0010
 Zerner damping         CNVZerner       .... off
 Static damping         CNVDamp         .... on
   Fraction old density DampFac         ....    0.7000
   Max. Damping (<1)    DampMax         ....    0.9800
   Min. Damping (>=0)   DampMin         ....    0.0000
   Turn off err/grad.   DampErr         ....    0.1000

SCF Procedure:
 Maximum # iterations   MaxIter         ....   125
 SCF integral mode      SCFMode         .... Direct
   Integral package                     .... SHARK and LIBINT hybrid scheme
 Reset frequency        DirectResetFreq ....    20
 Integral Threshold     Thresh          ....  2.500e-11 Eh
 Primitive CutOff       TCut            ....  2.500e-12 Eh

Convergence Tolerance:
 Convergence Check Mode ConvCheckMode   .... Total+1el-Energy
 Convergence forced     ConvForced      .... 0
 Energy Change          TolE            ....  1.000e-08 Eh
 1-El. energy change                    ....  1.000e-05 Eh
 Orbital Gradient       TolG            ....  1.000e-05
 Orbital Rotation angle TolX            ....  1.000e-05
 DIIS Error             TolErr          ....  5.000e-07

------------------------------
INITIAL GUESS: MODEL POTENTIAL
------------------------------
Loading Hartree-Fock densities                     ... done
Calculating cut-offs                               ... done
Initializing the effective Hamiltonian             ... done
Setting up the integral package (SHARK)            ... done
Starting the Coulomb interaction                   ... done (   0.2 sec)
Making the grid                                    ... done (   0.3 sec)
Mapping shells                                     ... done
Starting the XC term evaluation                    ... done (   0.2 sec)
  promolecular density results
     # of electrons  =    161.986851454
     EX              =   -136.824374206
     EC              =     -5.962058986
     EX+EC           =   -142.786433192
Transforming the Hamiltonian                       ... done (   0.0 sec)
Diagonalizing the Hamiltonian                      ... done (   0.0 sec)
Back transforming the eigenvectors                 ... done (   0.0 sec)
Now organizing SCF variables                       ... done
                      ------------------
                      INITIAL GUESS DONE (   0.8 sec)
                      ------------------
             **** ENERGY FILE WAS UPDATED (data/geom_opt_P_BP86/80271/80271.en.tmp) ****
Finished Guess after   0.9 sec
Maximum memory used throughout the entire GUESS-calculation: 31.3 MB


           ************************************************************
           *        Program running with 6 parallel MPI-processes     *
           *              working on a common directory               *
           ************************************************************

-------------------------------------------------------------------------------------------
                                      ORCA LEAN-SCF
                              memory conserving SCF solver
-------------------------------------------------------------------------------------------

----------------------------------------D-I-I-S--------------------------------------------
Iteration    Energy (Eh)           Delta-E    RMSDP     MaxDP     DIISErr   Damp  Time(sec)
-------------------------------------------------------------------------------------------
               ***  Starting incremental Fock matrix formation  ***
    1    -1153.1706344868696306     0.00e+00  1.97e-03  7.43e-02  1.49e-01  0.700   1.3
    2    -1153.3663981907013749    -1.96e-01  1.41e-03  6.88e-02  7.38e-02  0.700   1.3
                               ***Turning on AO-DIIS***
    3    -1153.4407559291751113    -7.44e-02  5.88e-04  3.02e-02  2.39e-02  0.700   1.2
    4    -1153.4835628924545290    -4.28e-02  1.04e-03  6.26e-02  9.55e-03  0.000   1.2
    5    -1153.5777126225318625    -9.41e-02  2.19e-04  1.52e-02  5.17e-03  0.000   1.2
                              *** Initializing SOSCF ***
---------------------------------------S-O-S-C-F--------------------------------------
Iteration    Energy (Eh)           Delta-E    RMSDP     MaxDP     MaxGrad    Time(sec)
--------------------------------------------------------------------------------------
    6    -1153.5784400396535148    -7.27e-04  7.93e-05  3.91e-03  9.56e-04     1.2
               *** Restarting incremental Fock matrix formation ***
    7    -1153.5784870659001626    -4.70e-05  5.76e-05  2.87e-03  1.66e-04     1.3
    8    -1153.5784829788387924     4.09e-06  2.68e-05  9.84e-04  5.34e-04     1.0
    9    -1153.5784914987154934    -8.52e-06  2.41e-05  1.26e-03  1.98e-04     1.1
   10    -1153.5784899770380889     1.52e-06  1.16e-05  5.62e-04  2.32e-04     1.1
   11    -1153.5784931225482524    -3.15e-06  9.77e-06  5.94e-04  5.12e-05     1.0
   12    -1153.5784926469380025     4.76e-07  5.98e-06  2.79e-04  1.07e-04     1.1
   13    -1153.5784932981148359    -6.51e-07  2.89e-06  1.67e-04  1.39e-05     1.0
   14    -1153.5784932323042540     6.58e-08  1.76e-06  8.56e-05  2.15e-05     1.0
   15    -1153.5784933143897888    -8.21e-08  5.82e-07  4.25e-05  2.15e-06     1.0
                  *** Gradient check signals convergence ***

               *****************************************************
               *                     SUCCESS                       *
               *           SCF CONVERGED AFTER  15 CYCLES          *
               *****************************************************

             **** ENERGY FILE WAS UPDATED (data/geom_opt_P_BP86/80271/80271.en.tmp) ****

----------------
TOTAL SCF ENERGY
----------------

Total Energy       :      -1153.57849331438979 Eh          -31390.46666 eV

Components:
Nuclear Repulsion  :       1858.36366586132021 Eh           50568.64621 eV
Electronic Energy  :      -3011.94215917571000 Eh          -81959.11287 eV
One Electron Energy:      -5263.07155361578953 Eh         -143215.45791 eV
Two Electron Energy:       2251.12939444007952 Eh           61256.34504 eV

Virial components:
Potential Energy   :      -2296.38148661437663 Eh          -62487.71706 eV
Kinetic Energy     :       1142.80299329998707 Eh           31097.25040 eV
Virial Ratio       :          2.00942900926719

DFT components:
N(Alpha)           :       80.999800906191 electrons
N(Beta)            :       80.999800906191 electrons
N(Total)           :      161.999601812383 electrons
E(X)               :     -138.950012447126 Eh       
E(C)               :       -5.966901893807 Eh       
E(XC)              :     -144.916914340933 Eh       

---------------
SCF CONVERGENCE
---------------

  Last Energy change         ...    8.2086e-08  Tolerance :   1.0000e-08
  Last MAX-Density change    ...    4.2514e-05  Tolerance :   1.0000e-07
  Last RMS-Density change    ...    5.8250e-07  Tolerance :   5.0000e-09
  Last DIIS Error            ...    9.5576e-04  Tolerance :   5.0000e-07
  Last Orbital Gradient      ...    2.1496e-06  Tolerance :   1.0000e-05
  Last Orbital Rotation      ...    1.0352e-05  Tolerance :   1.0000e-05


----------------
ORBITAL ENERGIES
----------------

  NO   OCC          E(Eh)            E(eV) 
   0   2.0000     -76.341393     -2077.3549 
   1   2.0000      -9.927289      -270.1353 
   2   2.0000      -9.927272      -270.1348 
   3   2.0000      -9.927270      -270.1347 
   4   2.0000      -9.922433      -270.0031 
   5   2.0000      -9.922427      -270.0030 
   6   2.0000      -9.922345      -270.0007 
   7   2.0000      -9.915645      -269.8184 
   8   2.0000      -9.915616      -269.8176 
   9   2.0000      -9.915613      -269.8175 
  10   2.0000      -9.913941      -269.7720 
  11   2.0000      -9.913938      -269.7720 
  12   2.0000      -9.913937      -269.7719 
  13   2.0000      -9.913087      -269.7488 
  14   2.0000      -9.913082      -269.7487 
  15   2.0000      -9.913079      -269.7486 
  16   2.0000      -9.911899      -269.7165 
  17   2.0000      -9.911897      -269.7164 
  18   2.0000      -9.911891      -269.7163 
  19   2.0000      -9.906656      -269.5738 
  20   2.0000      -9.906654      -269.5738 
  21   2.0000      -9.906642      -269.5734 
  22   2.0000      -6.309679      -171.6951 
  23   2.0000      -4.531062      -123.2965 
  24   2.0000      -4.531058      -123.2964 
  25   2.0000      -4.527450      -123.1982 
  26   2.0000      -0.780928       -21.2501 
  27   2.0000      -0.773378       -21.0447 
  28   2.0000      -0.773373       -21.0445 
  29   2.0000      -0.701026       -19.0759 
  30   2.0000      -0.694945       -18.9104 
  31   2.0000      -0.694943       -18.9104 
  32   2.0000      -0.687975       -18.7208 
  33   2.0000      -0.666159       -18.1271 
  34   2.0000      -0.666155       -18.1270 
  35   2.0000      -0.617463       -16.8020 
  36   2.0000      -0.611351       -16.6357 
  37   2.0000      -0.611351       -16.6357 
  38   2.0000      -0.580468       -15.7953 
  39   2.0000      -0.542599       -14.7649 
  40   2.0000      -0.542596       -14.7648 
  41   2.0000      -0.530666       -14.4402 
  42   2.0000      -0.517442       -14.0803 
  43   2.0000      -0.517440       -14.0803 
  44   2.0000      -0.490298       -13.3417 
  45   2.0000      -0.454947       -12.3797 
  46   2.0000      -0.454943       -12.3796 
  47   2.0000      -0.435183       -11.8419 
  48   2.0000      -0.418407       -11.3854 
  49   2.0000      -0.417152       -11.3513 
  50   2.0000      -0.417150       -11.3512 
  51   2.0000      -0.395456       -10.7609 
  52   2.0000      -0.395454       -10.7609 
  53   2.0000      -0.387825       -10.5533 
  54   2.0000      -0.381751       -10.3880 
  55   2.0000      -0.381749       -10.3879 
  56   2.0000      -0.375333       -10.2133 
  57   2.0000      -0.364040        -9.9060 
  58   2.0000      -0.364036        -9.9059 
  59   2.0000      -0.362955        -9.8765 
  60   2.0000      -0.358374        -9.7519 
  61   2.0000      -0.358372        -9.7518 
  62   2.0000      -0.340134        -9.2555 
  63   2.0000      -0.333190        -9.0666 
  64   2.0000      -0.333188        -9.0665 
  65   2.0000      -0.324369        -8.8265 
  66   2.0000      -0.319485        -8.6936 
  67   2.0000      -0.319483        -8.6936 
  68   2.0000      -0.313173        -8.5219 
  69   2.0000      -0.302167        -8.2224 
  70   2.0000      -0.301783        -8.2119 
  71   2.0000      -0.301782        -8.2119 
  72   2.0000      -0.285404        -7.7662 
  73   2.0000      -0.285403        -7.7662 
  74   2.0000      -0.243301        -6.6205 
  75   2.0000      -0.233508        -6.3541 
  76   2.0000      -0.233503        -6.3539 
  77   2.0000      -0.224553        -6.1104 
  78   2.0000      -0.220869        -6.0101 
  79   2.0000      -0.220867        -6.0101 
  80   2.0000      -0.180082        -4.9003 
  81   0.0000      -0.057217        -1.5569 
  82   0.0000      -0.057215        -1.5569 
  83   0.0000      -0.045630        -1.2416 
  84   0.0000      -0.036244        -0.9863 
  85   0.0000      -0.034044        -0.9264 
  86   0.0000      -0.034040        -0.9263 
  87   0.0000       0.039979         1.0879 
  88   0.0000       0.039982         1.0880 
  89   0.0000       0.048629         1.3233 
  90   0.0000       0.054112         1.4725 
  91   0.0000       0.062256         1.6941 
*Only the first 10 virtual orbitals were printed.

                    ********************************
                    * MULLIKEN POPULATION ANALYSIS *
                    ********************************

-----------------------
MULLIKEN ATOMIC CHARGES
-----------------------
   0 C :    0.062215
   1 C :   -0.081167
   2 C :   -0.024092
   3 C :    0.013992
   4 C :    0.014633
   5 C :   -0.007414
   6 C :   -0.125244
   7 P :    0.209268
   8 C :   -0.125211
   9 C :   -0.007584
  10 C :    0.014695
  11 C :    0.014006
  12 C :   -0.024133
  13 C :   -0.081158
  14 C :    0.062388
  15 C :   -0.125273
  16 C :   -0.007365
  17 C :    0.014628
  18 C :    0.014028
  19 C :   -0.024234
  20 C :   -0.081112
  21 C :    0.062512
  22 H :    0.045993
  23 H :    0.049273
  24 H :    0.014469
  25 H :   -0.020014
  26 H :   -0.009464
  27 H :   -0.009902
  28 H :    0.006974
  29 H :    0.006953
  30 H :   -0.009919
  31 H :   -0.009441
  32 H :   -0.020039
  33 H :    0.049202
  34 H :    0.014491
  35 H :    0.045937
  36 H :    0.007043
  37 H :   -0.009956
  38 H :   -0.009491
  39 H :   -0.020023
  40 H :    0.049193
  41 H :    0.045883
  42 H :    0.014460
Sum of atomic charges:   -0.0000000

--------------------------------
MULLIKEN REDUCED ORBITAL CHARGES
--------------------------------
  0 C s       :     2.914945  s :     2.914945
      pz      :     0.991319  p :     2.997464
      px      :     0.992294
      py      :     1.013851
      dz2     :     0.005033  d :     0.025377
      dxz     :     0.006887
      dyz     :     0.004595
      dx2y2   :     0.007221
      dxy     :     0.001641

  1 C s       :     3.111215  s :     3.111215
      pz      :     0.998049  p :     2.929597
      px      :     0.975693
      py      :     0.955855
      dz2     :     0.008406  d :     0.040355
      dxz     :     0.010200
      dyz     :     0.006072
      dx2y2   :     0.007981
      dxy     :     0.007696

  2 C s       :     3.223001  s :     3.223001
      pz      :     0.916292  p :     2.768931
      px      :     0.867871
      py      :     0.984768
      dz2     :     0.006529  d :     0.032160
      dxz     :     0.008363
      dyz     :     0.005459
      dx2y2   :     0.006733
      dxy     :     0.005075

  3 C s       :     3.170314  s :     3.170314
      pz      :     0.958064  p :     2.782216
      px      :     0.894201
      py      :     0.929951
      dz2     :     0.007862  d :     0.033478
      dxz     :     0.008436
      dyz     :     0.005184
      dx2y2   :     0.004908
      dxy     :     0.007088

  4 C s       :     3.164564  s :     3.164564
      pz      :     0.875317  p :     2.787695
      px      :     0.967950
      py      :     0.944428
      dz2     :     0.005968  d :     0.033109
      dxz     :     0.007706
      dyz     :     0.005008
      dx2y2   :     0.007415
      dxy     :     0.007013

  5 C s       :     3.240947  s :     3.240947
      pz      :     0.927149  p :     2.733727
      px      :     0.849827
      py      :     0.956751
      dz2     :     0.006537  d :     0.032739
      dxz     :     0.008722
      dyz     :     0.005280
      dx2y2   :     0.006933
      dxy     :     0.005268

  6 C s       :     3.100013  s :     3.100013
      pz      :     0.976140  p :     2.991645
      px      :     1.017838
      py      :     0.997667
      dz2     :     0.007651  d :     0.033586
      dxz     :     0.008743
      dyz     :     0.005649
      dx2y2   :     0.005065
      dxy     :     0.006476

  7 P s       :     5.650496  s :     5.650496
      pz      :     3.341060  p :     8.969058
      px      :     2.818330
      py      :     2.809668
      dz2     :     0.016009  d :     0.171178
      dxz     :     0.033632
      dyz     :     0.031180
      dx2y2   :     0.044396
      dxy     :     0.045961

  8 C s       :     3.099832  s :     3.099832
      pz      :     0.980556  p :     2.991792
      px      :     1.017038
      py      :     0.994199
      dz2     :     0.006520  d :     0.033586
      dxz     :     0.004732
      dyz     :     0.008156
      dx2y2   :     0.007656
      dxy     :     0.006521

  9 C s       :     3.241002  s :     3.241002
      pz      :     0.936462  p :     2.733842
      px      :     0.949794
      py      :     0.847586
      dz2     :     0.006077  d :     0.032740
      dxz     :     0.004326
      dyz     :     0.007741
      dx2y2   :     0.006327
      dxy     :     0.008269

 10 C s       :     3.164590  s :     3.164590
      pz      :     0.906252  p :     2.787606
      px      :     0.913859
      py      :     0.967495
      dz2     :     0.004359  d :     0.033109
      dxz     :     0.004554
      dyz     :     0.007745
      dx2y2   :     0.008381
      dxy     :     0.008069

 11 C s       :     3.170302  s :     3.170302
      pz      :     0.954670  p :     2.782213
      px      :     0.970332
      py      :     0.857211
      dz2     :     0.006141  d :     0.033479
      dxz     :     0.004837
      dyz     :     0.007464
      dx2y2   :     0.008275
      dxy     :     0.006763

 12 C s       :     3.223104  s :     3.223104
      pz      :     0.949851  p :     2.768869
      px      :     0.935225
      py      :     0.883793
      dz2     :     0.005998  d :     0.032161
      dxz     :     0.004496
      dyz     :     0.007392
      dx2y2   :     0.006492
      dxy     :     0.007782

 13 C s       :     3.111209  s :     3.111209
      pz      :     0.981293  p :     2.929596
      px      :     0.998704
      py      :     0.949598
      dz2     :     0.007189  d :     0.040353
      dxz     :     0.005432
      dyz     :     0.009357
      dx2y2   :     0.008992
      dxy     :     0.009384

 14 C s       :     2.914901  s :     2.914901
      pz      :     1.003181  p :     2.997334
      px      :     0.997412
      py      :     0.996741
      dz2     :     0.005440  d :     0.025376
      dxz     :     0.006329
      dyz     :     0.004011
      dx2y2   :     0.004010
      dxy     :     0.005587

 15 C s       :     3.100043  s :     3.100043
      pz      :     0.959928  p :     2.991646
      px      :     0.993599
      py      :     1.038119
      dz2     :     0.007770  d :     0.033585
      dxz     :     0.007235
      dyz     :     0.006592
      dx2y2   :     0.006053
      dxy     :     0.005935

 16 C s       :     3.240726  s :     3.240726
      pz      :     0.929025  p :     2.733899
      px      :     0.905589
      py      :     0.899285
      dz2     :     0.007622  d :     0.032740
      dxz     :     0.007435
      dyz     :     0.006293
      dx2y2   :     0.005242
      dxy     :     0.006148

 17 C s       :     3.164619  s :     3.164619
      pz      :     0.874600  p :     2.787645
      px      :     0.969923
      py      :     0.943122
      dz2     :     0.006060  d :     0.033108
      dxz     :     0.006056
      dyz     :     0.006710
      dx2y2   :     0.007240
      dxy     :     0.007042

 18 C s       :     3.170300  s :     3.170300
      pz      :     0.936411  p :     2.782194
      px      :     0.885006
      py      :     0.960777
      dz2     :     0.006791  d :     0.033478
      dxz     :     0.007081
      dyz     :     0.007321
      dx2y2   :     0.006406
      dxy     :     0.005880

 19 C s       :     3.222931  s :     3.222931
      pz      :     0.940620  p :     2.769141
      px      :     0.947456
      py      :     0.881065
      dz2     :     0.007631  d :     0.032162
      dxz     :     0.007209
      dyz     :     0.006209
      dx2y2   :     0.004852
      dxy     :     0.006260

 20 C s       :     3.111222  s :     3.111222
      pz      :     0.983258  p :     2.929536
      px      :     0.939233
      py      :     1.007045
      dz2     :     0.008547  d :     0.040354
      dxz     :     0.007837
      dyz     :     0.008387
      dx2y2   :     0.008027
      dxy     :     0.007557

 21 C s       :     2.914809  s :     2.914809
      pz      :     0.998596  p :     2.997304
      px      :     1.009760
      py      :     0.988948
      dz2     :     0.006527  d :     0.025375
      dxz     :     0.002393
      dyz     :     0.007062
      dx2y2   :     0.002685
      dxy     :     0.006708

 22 H s       :     0.930213  s :     0.930213
      pz      :     0.005082  p :     0.023794
      px      :     0.005825
      py      :     0.012886

 23 H s       :     0.927091  s :     0.927091
      pz      :     0.008630  p :     0.023636
      px      :     0.009444
      py      :     0.005562

 24 H s       :     0.962693  s :     0.962693
      pz      :     0.005842  p :     0.022838
      px      :     0.011601
      py      :     0.005395

 25 H s       :     0.997627  s :     0.997627
      pz      :     0.006673  p :     0.022388
      px      :     0.011191
      py      :     0.004524

 26 H s       :     0.987062  s :     0.987062
      pz      :     0.005163  p :     0.022402
      px      :     0.009503
      py      :     0.007736

 27 H s       :     0.987491  s :     0.987491
      pz      :     0.010880  p :     0.022411
      px      :     0.003995
      py      :     0.007536

 28 H s       :     0.969671  s :     0.969671
      pz      :     0.006873  p :     0.023355
      px      :     0.011965
      py      :     0.004518

 29 H s       :     0.969693  s :     0.969693
      pz      :     0.005665  p :     0.023354
      px      :     0.006934
      py      :     0.010755

 30 H s       :     0.987508  s :     0.987508
      pz      :     0.009445  p :     0.022411
      px      :     0.009143
      py      :     0.003823

 31 H s       :     0.987039  s :     0.987039
      pz      :     0.005745  p :     0.022402
      px      :     0.004765
      py      :     0.011892

 32 H s       :     0.997652  s :     0.997652
      pz      :     0.005571  p :     0.022388
      px      :     0.006796
      py      :     0.010020

 33 H s       :     0.927161  s :     0.927161
      pz      :     0.010383  p :     0.023636
      px      :     0.006011
      py      :     0.007243

 34 H s       :     0.962670  s :     0.962670
      pz      :     0.005361  p :     0.022839
      px      :     0.005809
      py      :     0.011669

 35 H s       :     0.930267  s :     0.930267
      pz      :     0.005690  p :     0.023796
      px      :     0.010009
      py      :     0.008097

 36 H s       :     0.969604  s :     0.969604
      pz      :     0.005275  p :     0.023353
      px      :     0.007158
      py      :     0.010920

 37 H s       :     0.987545  s :     0.987545
      pz      :     0.010978  p :     0.022411
      px      :     0.004935
      py      :     0.006498

 38 H s       :     0.987089  s :     0.987089
      pz      :     0.006740  p :     0.022402
      px      :     0.010453
      py      :     0.005209

 39 H s       :     0.997637  s :     0.997637
      pz      :     0.005122  p :     0.022387
      px      :     0.006849
      py      :     0.010416

 40 H s       :     0.927169  s :     0.927169
      pz      :     0.009802  p :     0.023637
      px      :     0.005656
      py      :     0.008180

 41 H s       :     0.930319  s :     0.930319
      pz      :     0.004879  p :     0.023798
      px      :     0.011934
      py      :     0.006985

 42 H s       :     0.962703  s :     0.962703
      pz      :     0.004919  p :     0.022837
      px      :     0.008705
      py      :     0.009213



                     *******************************
                     * LOEWDIN POPULATION ANALYSIS *
                     *******************************

----------------------
LOEWDIN ATOMIC CHARGES
----------------------
   0 C :   -0.064567
   1 C :   -0.023325
   2 C :   -0.034770
   3 C :   -0.026378
   4 C :   -0.037759
   5 C :   -0.031766
   6 C :   -0.177841
   7 P :    0.507421
   8 C :   -0.177853
   9 C :   -0.031781
  10 C :   -0.037751
  11 C :   -0.026375
  12 C :   -0.034766
  13 C :   -0.023331
  14 C :   -0.064537
  15 C :   -0.177841
  16 C :   -0.031775
  17 C :   -0.037753
  18 C :   -0.026369
  19 C :   -0.034781
  20 C :   -0.023328
  21 C :   -0.064530
  22 H :    0.040206
  23 H :    0.039491
  24 H :    0.030726
  25 H :    0.027511
  26 H :    0.029015
  27 H :    0.029110
  28 H :    0.031212
  29 H :    0.031212
  30 H :    0.029107
  31 H :    0.029018
  32 H :    0.027506
  33 H :    0.039478
  34 H :    0.030726
  35 H :    0.040198
  36 H :    0.031231
  37 H :    0.029102
  38 H :    0.029013
  39 H :    0.027507
  40 H :    0.039473
  41 H :    0.040189
[...]
      dz2     :     0.017295  d :     0.085853
      dxz     :     0.019508
      dyz     :     0.016118
      dx2y2   :     0.015159
      dxy     :     0.017773

 20 C s       :     2.867425  s :     2.867425
      pz      :     1.003707  p :     3.059193
      px      :     1.026962
      py      :     1.028524
      dz2     :     0.018084  d :     0.103795
      dxz     :     0.019376
      dyz     :     0.020838
      dx2y2   :     0.021740
      dxy     :     0.023757

 21 C s       :     2.845401  s :     2.845401
      pz      :     1.042395  p :     3.160206
      px      :     1.065012
      py      :     1.052799
      dz2     :     0.013248  d :     0.066984
      dxz     :     0.009504
      dyz     :     0.019479
      dx2y2   :     0.004809
      dxy     :     0.019944

 22 H s       :     0.890264  s :     0.890264
      pz      :     0.015751  p :     0.065499
      px      :     0.012379
      py      :     0.037370

 23 H s       :     0.895876  s :     0.895876
      pz      :     0.024626  p :     0.066780
      px      :     0.029676
      py      :     0.012478

 24 H s       :     0.902416  s :     0.902416
      pz      :     0.018277  p :     0.063896
      px      :     0.032301
      py      :     0.013318

 25 H s       :     0.904428  s :     0.904428
      pz      :     0.018172  p :     0.066062
      px      :     0.035371
      py      :     0.012519

 26 H s       :     0.901882  s :     0.901882
      pz      :     0.014980  p :     0.065832
      px      :     0.027680
      py      :     0.023172

 27 H s       :     0.901730  s :     0.901730
      pz      :     0.029843  p :     0.066018
      px      :     0.011997
      py      :     0.024179

 28 H s       :     0.894532  s :     0.894532
      pz      :     0.018502  p :     0.069602
      px      :     0.038584
      py      :     0.012516

 29 H s       :     0.894471  s :     0.894471
      pz      :     0.015167  p :     0.069607
      px      :     0.020781
      py      :     0.033659

 30 H s       :     0.901721  s :     0.901721
      pz      :     0.025075  p :     0.066020
      px      :     0.029672
      py      :     0.011273

 31 H s       :     0.901871  s :     0.901871
      pz      :     0.016404  p :     0.065831
      px      :     0.013541
      py      :     0.035886

 32 H s       :     0.904428  s :     0.904428
      pz      :     0.015028  p :     0.066065
      px      :     0.021005
      py      :     0.030033

 33 H s       :     0.896070  s :     0.896070
      pz      :     0.029423  p :     0.066809
      px      :     0.014029
      py      :     0.023357

 34 H s       :     0.902374  s :     0.902374
      pz      :     0.015525  p :     0.063906
      px      :     0.014836
      py      :     0.033545

 35 H s       :     0.890181  s :     0.890181
      pz      :     0.018688  p :     0.065459
      px      :     0.028817
      py      :     0.017953

 36 H s       :     0.894408  s :     0.894408
      pz      :     0.014258  p :     0.069615
      px      :     0.020978
      py      :     0.034379

 37 H s       :     0.901717  s :     0.901717
      pz      :     0.030140  p :     0.066019
      px      :     0.015014
      py      :     0.020864

 38 H s       :     0.901857  s :     0.901857
      pz      :     0.019589  p :     0.065831
      px      :     0.031868
      py      :     0.014373

 39 H s       :     0.904424  s :     0.904424
      pz      :     0.014052  p :     0.066064
      px      :     0.019062
      py      :     0.032950

 40 H s       :     0.896068  s :     0.896068
      pz      :     0.029964  p :     0.066830
      px      :     0.014544
      py      :     0.022321

 41 H s       :     0.890353  s :     0.890353
      pz      :     0.014372  p :     0.065376
      px      :     0.032038
      py      :     0.018965

 42 H s       :     0.902360  s :     0.902360
      pz      :     0.014265  p :     0.063912
      px      :     0.024923
      py      :     0.024724



                      *****************************
                      * MAYER POPULATION ANALYSIS *
                      *****************************

  NA   - Mulliken gross atomic population
  ZA   - Total nuclear charge
  QA   - Mulliken gross atomic charge
  VA   - Mayer's total valence
  BVA  - Mayer's bonded valence
  FA   - Mayer's free valence

  ATOM       NA         ZA         QA         VA         BVA        FA
  0 C      5.9704     6.0000     0.0296     3.9104     3.9104    -0.0000
  1 C      6.0621     6.0000    -0.0621     4.1008     4.1008    -0.0000
  2 C      6.0356     6.0000    -0.0356     3.8566     3.8566    -0.0000
  3 C      5.9897     6.0000     0.0103     3.8037     3.8037    -0.0000
  4 C      5.9961     6.0000     0.0039     3.8117     3.8117    -0.0000
  5 C      6.0015     6.0000    -0.0015     3.8757     3.8757    -0.0000
  6 C      6.1567     6.0000    -0.1567     3.8673     3.8673    -0.0000
  7 P     14.7895    15.0000     0.2105     3.2032     3.2032    -0.0000
  8 C      6.1578     6.0000    -0.1578     3.8679     3.8679    -0.0000
  9 C      6.0018     6.0000    -0.0018     3.8758     3.8758    -0.0000
 10 C      5.9961     6.0000     0.0039     3.8117     3.8117    -0.0000
 11 C      5.9898     6.0000     0.0102     3.8037     3.8037    -0.0000
 12 C      6.0353     6.0000    -0.0353     3.8567     3.8567    -0.0000
 13 C      6.0614     6.0000    -0.0614     4.1003     4.1003    -0.0000
 14 C      5.9710     6.0000     0.0290     3.9106     3.9106    -0.0000
 15 C      6.1578     6.0000    -0.1578     3.8681     3.8681    -0.0000
 16 C      6.0011     6.0000    -0.0011     3.8747     3.8747    -0.0000
 17 C      5.9962     6.0000     0.0038     3.8118     3.8118    -0.0000
 18 C      5.9898     6.0000     0.0102     3.8039     3.8039    -0.0000
 19 C      6.0355     6.0000    -0.0355     3.8572     3.8572    -0.0000
 20 C      6.0616     6.0000    -0.0616     4.1003     4.1003    -0.0000
 21 C      5.9704     6.0000     0.0296     3.9103     3.9103    -0.0000
 22 H      0.9473     1.0000     0.0527     1.0001     1.0001    -0.0000
 23 H      0.9418     1.0000     0.0582     1.0005     1.0005    -0.0000
 24 H      0.9753     1.0000     0.0247     0.9946     0.9946    -0.0000
 25 H      1.0139     1.0000    -0.0139     0.9879     0.9879    -0.0000
 26 H      0.9998     1.0000     0.0002     0.9783     0.9783    -0.0000
 27 H      1.0006     1.0000    -0.0006     0.9788     0.9788     0.0000
 28 H      0.9792     1.0000     0.0208     0.9874     0.9874    -0.0000
 29 H      0.9790     1.0000     0.0210     0.9873     0.9873    -0.0000
 30 H      1.0005     1.0000    -0.0005     0.9788     0.9788     0.0000
 31 H      0.9998     1.0000     0.0002     0.9783     0.9783    -0.0000
 32 H      1.0139     1.0000    -0.0139     0.9879     0.9879    -0.0000
 33 H      0.9419     1.0000     0.0581     1.0007     1.0007    -0.0000
 34 H      0.9752     1.0000     0.0248     0.9946     0.9946     0.0000
 35 H      0.9471     1.0000     0.0529     0.9997     0.9997    -0.0000
 36 H      0.9789     1.0000     0.0211     0.9873     0.9873    -0.0000
 37 H      1.0006     1.0000    -0.0006     0.9788     0.9788    -0.0000
 38 H      0.9998     1.0000     0.0002     0.9783     0.9783     0.0000
 39 H      1.0139     1.0000    -0.0139     0.9879     0.9879    -0.0000
 40 H      0.9418     1.0000     0.0582     1.0009     1.0009    -0.0000
 41 H      0.9476     1.0000     0.0524     0.9994     0.9994    -0.0000
 42 H      0.9752     1.0000     0.0248     0.9946     0.9946    -0.0000

  Mayer bond orders larger than 0.100000
B(  0-C ,  1-C ) :   1.1116 B(  0-C , 22-H ) :   0.9324 B(  0-C , 23-H ) :   0.9183 
B(  0-C , 24-H ) :   0.9449 B(  1-C ,  2-C ) :   1.4018 B(  1-C ,  6-C ) :   1.3728 
B(  2-C ,  3-C ) :   1.3659 B(  2-C , 25-H ) :   0.9714 B(  3-C ,  4-C ) :   1.3660 
B(  3-C , 26-H ) :   0.9739 B(  4-C ,  5-C ) :   1.3759 B(  4-C , 27-H ) :   0.9755 
B(  5-C ,  6-C ) :   1.3800 B(  5-C , 28-H ) :   0.9609 B(  6-C ,  7-P ) :   0.9468 
B(  7-P ,  8-C ) :   0.9464 B(  7-P , 15-C ) :   0.9470 B(  8-C ,  9-C ) :   1.3794 
B(  8-C , 13-C ) :   1.3733 B(  9-C , 10-C ) :   1.3760 B(  9-C , 29-H ) :   0.9608 
B( 10-C , 11-C ) :   1.3657 B( 10-C , 30-H ) :   0.9756 B( 11-C , 12-C ) :   1.3661 
B( 11-C , 31-H ) :   0.9740 B( 12-C , 13-C ) :   1.4015 B( 12-C , 32-H ) :   0.9714 
B( 13-C , 14-C ) :   1.1113 B( 14-C , 33-H ) :   0.9184 B( 14-C , 34-H ) :   0.9448 
B( 14-C , 35-H ) :   0.9326 B( 15-C , 16-C ) :   1.3787 B( 15-C , 20-C ) :   1.3737 
B( 16-C , 17-C ) :   1.3762 B( 16-C , 36-H ) :   0.9609 B( 17-C , 18-C ) :   1.3656 
B( 17-C , 37-H ) :   0.9756 B( 18-C , 19-C ) :   1.3664 B( 18-C , 38-H ) :   0.9739 
B( 19-C , 20-C ) :   1.4015 B( 19-C , 39-H ) :   0.9714 B( 20-C , 21-C ) :   1.1110 
B( 21-C , 40-H ) :   0.9187 B( 21-C , 41-H ) :   0.9327 B( 21-C , 42-H ) :   0.9450 


-------
TIMINGS
-------

Total SCF time: 0 days 0 hours 0 min 6 sec 

Total time                  ....       6.966 sec
Sum of individual times     ....       6.846 sec  ( 98.3%)

SCF preparation             ....       0.149 sec  (  2.1%)
Fock matrix formation       ....       6.062 sec  ( 87.0%)
  Startup                   ....       0.027 sec  (  0.4% of F)
  Split-RI-J                ....       2.188 sec  ( 36.1% of F)
  XC integration            ....       3.744 sec  ( 61.8% of F)
    Basis function eval.    ....       1.116 sec  ( 29.8% of XC)
    Density eval.           ....       1.190 sec  ( 31.8% of XC)
    XC-Functional eval.     ....       0.089 sec  (  2.4% of XC)
    XC-Potential eval.      ....       0.849 sec  ( 22.7% of XC)
Diagonalization             ....       0.000 sec  (  0.0%)
Density matrix formation    ....       0.069 sec  (  1.0%)
Total Energy calculation    ....       0.024 sec  (  0.3%)
Population analysis         ....       0.120 sec  (  1.7%)
Orbital Transformation      ....       0.065 sec  (  0.9%)
Orbital Orthonormalization  ....       0.000 sec  (  0.0%)
DIIS solution               ....       0.071 sec  (  1.0%)
SOSCF solution              ....       0.286 sec  (  4.1%)
Finished LeanSCF after   7.0 sec

Maximum memory used throughout the entire LEANSCF-calculation: 47.7 MB


-------------------------------------------------------------------------------
                          DFT DISPERSION CORRECTION                            
                                                                               
                              DFTD3 V3.1  Rev 1                                
                          USING Becke-Johnson damping                          
-------------------------------------------------------------------------------
The BP86 functional is recognized
Active option DFTDOPT                   ...         4   

molecular C6(AA) [au] = 23140.359557 


            DFT-D V3
 parameters
 s6 scaling factor         :     1.0000 
 a1 scaling factor         :     0.3946 
 s8 scaling factor         :     3.2822 
 a2 scaling factor         :     4.8516 
 ad hoc parameters k1-k3   :    16.0000     1.3333    -4.0000 

 Edisp/kcal,au: -66.711726951476  -0.106311892637 
 E6   /kcal   : -24.454799279 
 E8   /kcal   : -42.256927673 
 % E8         :  63.342577990 

-------------------------   ----------------
Dispersion correction           -0.106311893
-------------------------   ----------------


-------------------------   --------------------
FINAL SINGLE POINT ENERGY     -1153.693737242222
-------------------------   --------------------

                                *** OPTIMIZATION RUN DONE ***



           ************************************************************
           *        Program running with 6 parallel MPI-processes     *
           *              working on a common directory               *
           ************************************************************

------------------------------------------------------------------------------
                              ORCA PROPERTY CALCULATIONS
------------------------------------------------------------------------------

GBWName                                 ... data/geom_opt_P_BP86/80271/80271.gbw
Number of atoms                         ...     43
Number of basis functions               ...    417
Max core memory                         ...   1024 MB

Electric properties:
Dipole moment                           ... YES
Quadrupole moment                       ...  NO
Static polarizability (Dipole/Dipole)   ...  NO
Static polarizability (Dipole/Quad.)    ...  NO
Static polarizability (Quad./Quad.)     ...  NO
Static polarizability (Velocity)        ...  NO

Atomic electric properties:
Dipole moment                           ...  NO
Quadrupole moment                       ...  NO
Static polarizability                   ...  NO

Choice of electric origin               ... Center of mass
Position of electric origin             ...     0.013922     0.000408     0.094470

General magnetic properties:
Magnetizability                         ...  NO

EPR properties:
g-Tensor (aka g-matrix)                 ...  NO
Zero-Field splitting spin-orbit         ...  NO
Zero-field splitting spin-spin          ...  NO
Hyperfine couplings                     ...  NO (   0 nuclei)
Quadrupole couplings                    ...  NO (   0 nuclei)
Contact density                         ...  NO (   0 nuclei)

NMR properties:
Chemical shifts                         ...  NO (   0 nuclei)
Spin-rotation constants                 ...  NO (   0 nuclei)
Spin-spin couplings                     ...  NO (   0 nuclei,    0 pairs)

Choice of magnetic origin               ... GIAO
Position of magnetic origin             ...     0.000000     0.000000     0.000000

Properties with geometric perturbations:
SCF Hessian                             ...  NO
IR spectrum                             ...  NO
VCD spectrum                            ...  NO
X-ray spectroscopy properties:
SCF XES/XAS/RIXS spectra                ...  NO


-------------
DIPOLE MOMENT
-------------

Method             : SCF
Type of density    : Electron Density
Multiplicity       :   1
Irrep              :   0
Energy             : -1153.5874253495849189 Eh
Relativity type    : 
Basis              : AO
                                X                 Y                 Z
Electronic contribution:      0.420590582       0.022359652       3.012670518
Nuclear contribution   :     -0.409317339      -0.020356268      -2.876230201
                        -----------------------------------------
Total Dipole Moment    :      0.011273243       0.002003384       0.136440317
                        -----------------------------------------
Magnitude (a.u.)       :      0.136919902
Magnitude (Debye)      :      0.348022734



--------------------
Rotational spectrum 
--------------------
 
Rotational constants in cm-1:             0.009519             0.009502             0.005929 
Rotational constants in MHz :           285.360231           284.874082           177.752827 

Dipole components along the rotational axes: 
x,y,z [a.u.] :    -0.005947     0.000635     0.136789 
x,y,z [Debye]:    -0.015117     0.001613     0.347691 

 

Dipole moment calculation done in   0.0 sec 

Maximum memory used throughout the entire PROP-calculation: 24.6 MB

--------------------------------
SUGGESTED CITATIONS FOR THIS RUN
--------------------------------

Below you find a list of papers that are relevant to this ORCA run
We neither can nor want to force you to cite these papers, but we appreciate if you do
You receive ORCA, which is the product of decades of hard work by many enthusiastic individuals, for free
The only thing we kindly ask in return is that you cite our papers,
We deeply appreciate it, if you show your appreciation for ORCA by not just citing the generic ORCA reference.

Please note that relegating all ORCA citations to the supporting information does *not* help us.
SI sections are not indexed - citations you put there will not count into any citation statistics
But we need these citations in order to attract the funding resources that allow us to do what we are doing

Therefore, if you are a happy ORCA user, please consider citing a few of the papers listed below in the main body of your paper

In addition to the list printed below, the program has created the file data/geom_opt_P_BP86/80271/80271.bibtex that contains the list in bibtex format
You can import this file easily into all common literature databanks and citation aid programs


List of essential papers. We consider these as the minimum necessary citations

  1. Neese,F.
     Software update: the ORCA program system, version 5.0
     WIRES Comput. Molec. Sci., 2022 12(1)e1606
     doi.org/10.1002/wcms.1606

List of papers to cite with high priority. The work reported in these papers was absolutely
necessary for this run to complete.
Our perspective: the developers of density functionals and basis sets usually get cited in chemistry papers
Good! But without the algorithms to do something with them, the functionals or basis sets would not do anything.
Hence, in our opinion, the algorithm design and method developments papers are equally worthy of getting cited

  1. Neese,F.
     An improvement of the resolution of the identity approximation for the formation of the Coulomb matrix
     J. Comp. Chem., 2003 24(14)1740-1747
     doi.org/10.1002/jcc.10318
  2. Neese,F.
     The SHARK Integral Generation and Digestion System
     J. Comp. Chem., 2022  1-16
     doi.org/10.1002/jcc.26942
  3. Grimme,S.; Antony,J.; Ehrlich,S.; Krieg,H.
     A consistent and accurate ab initio parametrization of density functional dispersion correction (DFT-D) for the 94 elements H-Pu
     J. Chem. Phys., 2010 132 154104-XXXX
     doi.org/10.1063/1.3382344
  4. Grimme,S.; Ehrlich,S.; Goerigk,L.
     Effect of the damping function in dispersion corrected density functional theory
     J. Comput. Chem., 2011 32(7)1456-1465
     doi.org/10.1002/jcc.21759

List of suggested additional citations. These are papers that are important in the 'surrounding' of 
of this run, or papers that preceded the highly important papers. If you like your results we are grateful for a citation.

  1. Neese,F.
     The ORCA program system
     WIRES Comput. Molec. Sci., 2012 2(1)73-78
     doi.org/10.1002/wcms.81
  2. Neese,F.
     Software update: the ORCA program system, version 4.0
     WIRES Comput. Molec. Sci., 2018 8(1)1-6
     doi.org/10.1002/wcms.1327
  3. Neese,F.; Wennmohs,F.; Becker,U.; Riplinger,C.
     The ORCA quantum chemistry program package
     J. Chem. Phys., 2020 152 Art. No. L224108
     doi.org/10.1063/5.0004608

List of optional additional citations

  1. Neese,F.
     Approximate second-order SCF convergence for spin unrestricted wavefunctions
     Chem. Phys. Lett., 2000 325(1-3)93-98
     doi.org/10.1016/s0009-2614(00)00662-x

Timings for individual modules:

Sum of individual times          ...      282.293 sec (=   4.705 min)
Startup calculation              ...       20.611 sec (=   0.344 min)   7.3 %
SCF iterations                   ...      171.468 sec (=   2.858 min)  60.7 %
Property calculations            ...        0.195 sec (=   0.003 min)   0.1 %
SCF Gradient evaluation          ...       89.737 sec (=   1.496 min)  31.8 %
Geometry relaxation              ...        0.282 sec (=   0.005 min)   0.1 %
                             ****ORCA TERMINATED NORMALLY****
TOTAL RUN TIME: 0 days 0 hours 4 minutes 44 seconds 871 msec
