
                                 *****************
                                 * O   R   C   A *
                                 *****************

                                            #,                                       
                                            ###                                      
                                            ####                                     
                                            #####                                    
                                            ######                                   
                                           ########,                                 
                                     ,,################,,,,,                         
                               ,,#################################,,                 
                          ,,##########################################,,             
                       ,#########################################, ''#####,          
                    ,#############################################,,   '####,        
                  ,##################################################,,,,####,       
                ,###########''''           ''''###############################       
              ,#####''   ,,,,##########,,,,          '''####'''          '####       
            ,##' ,,,,###########################,,,                        '##       
           ' ,,###''''                  '''############,,,                           
         ,,##''                                '''############,,,,        ,,,,,,###''
      ,#''                                            '''#######################'''  
     '                                                          ''''####''''         
             ,#######,   #######,   ,#######,      ##                                
            ,#'     '#,  ##    ##  ,#'     '#,    #''#        ,####,   ,####,        
            ##       ##  ##   ,#'  ##            #'  '#       #'       #'  '#        
            ##       ##  #######   ##           ,######,      #####,   #    #        
            '#,     ,#'  ##    ##  '#,     ,#' ,#      #,     #,   #   #,  ,#        
             '#######'   ##     ##  '#######'  #'      '#     '####' # '####'        



                #########################################################
                #                        -***-                          #
                #          Department of theory and spectroscopy        #
                #                                                       #
                #                      Frank Neese                      #
                #                                                       #
                #     Directorship, Architecture, Infrastructure        #
                #                    SHARK, DRIVERS                     #
                #        Core code/Algorithms in most modules           #
                #                                                       #
                #        Max Planck Institute fuer Kohlenforschung      #
                #                Kaiser Wilhelm Platz 1                 #
                #                 D-45470 Muelheim/Ruhr                 #
                #                      Germany                          #
                #                                                       #
                #                  All rights reserved                  #
                #                        -***-                          #
                #########################################################


                         Program Version 6.0.0  -   RELEASE   -


 With contributions from (in alphabetic order):
   Daniel Aravena         : Magnetic Suceptibility
   Michael Atanasov       : Ab Initio Ligand Field Theory (pilot matlab implementation)
   Alexander A. Auer      : GIAO ZORA, VPT2 properties, NMR spectrum
   Ute Becker             : All parallelization in ORCA, NUMFREQ, NUMCALC
   Giovanni Bistoni       : ED, misc. LED, open-shell LED, HFLD
   Martin Brehm           : Molecular dynamics
   Dmytro Bykov           : pre 5.0 version of the SCF Hessian
   Marcos Casanova-Páez   : Triplet and SCS-CIS(D). UHF-(DLPNO)-IP/EA/STEOM-CCSD. UHF-CVS-IP/STEOM-CCSD
   Vijay G. Chilkuri      : MRCI spin determinant printing, contributions to CSF-ICE
   Pauline Colinet        : FMM embedding
   Dipayan Datta          : RHF DLPNO-CCSD density
   Achintya Kumar Dutta   : EOM-CC, STEOM-CC
   Nicolas Foglia         : Exact transition moments, OPA infrastructure, MCD improvements
   Dmitry Ganyushin       : Spin-Orbit,Spin-Spin,Magnetic field MRCI
   Miquel Garcia          : C-PCM and meta-GGA Hessian, CCSD/C-PCM, Gaussian charge scheme
   Tiago L. C. Gouveia    : GS-ROHF, GS-ROCIS
   Yang Guo               : DLPNO-NEVPT2, F12-NEVPT2, CIM, IAO-localization
   Andreas Hansen         : Spin unrestricted coupled pair/coupled cluster methods
   Ingolf Harden          : AUTO-CI MPn and infrastructure 
   Benjamin Helmich-Paris : MC-RPA, TRAH-(SCF,CASSCF), AVAS, COSX integrals, SCF dyn. polar.
   Lee Huntington         : MR-EOM, pCC
   Robert Izsak           : Overlap fitted RIJCOSX, COSX-SCS-MP3, EOM
   Riya Kayal             : Wick's Theorem for AUTO-CI, AUTO-CI UHF-CCSDT
   Emily Kempfer          : AUTO-CI, RHF CISDT and CCSDT
   Christian Kollmar      : KDIIS, OOCD, Brueckner-CCSD(T), CCSD density, CASPT2, CASPT2-K, improved NEVPT2
   Axel Koslowski         : Symmetry handling
   Simone Kossmann        : Meta GGA functionals, TD-DFT gradient, OOMP2, (MP2 Hessian; deprecated post 5.0)
   Lucas Lang             : DCDCAS
   Marvin Lechner         : AUTO-CI (C++ implementation), FIC-MRCC
   Spencer Leger          : CASSCF response
   Dagmar Lenk            : GEPOL surface, SMD, ORCA-2-JSON
   Dimitrios Liakos       : Extrapolation schemes; Compound Job, initial MDCI parallelization
   Dimitrios Manganas     : Further ROCIS development; embedding schemes. LFT, Crystal Embedding
   Dimitrios Pantazis     : SARC Basis sets
   Anastasios Papadopoulos: AUTO-CI, single reference methods and gradients
   Taras Petrenko         : pre 6.0 DFT Hessian and TD-DFT gradient, (ASA, deprecated), ECA, 1-Electron XAS/XES, NRVS
   Peter Pinski           : DLPNO-MP2, DLPNO-MP2 Gradient
   Christoph Reimann      : Effective Core Potentials
   Marius Retegan         : Local ZFS, SOC
   Christoph Riplinger    : Optimizer, TS searches, QM/MM, DLPNO-CCSD(T), (RO)-DLPNO pert. Triples
   Michael Roemelt        : Original ROCIS implementation
   Masaaki Saitow         : Open-shell DLPNO-CCSD energy and density
   Barbara Sandhoefer     : DKH picture change effects
   Kantharuban Sivalingam : CASSCF convergence/infrastructure, NEVPT2 and variants, FIC-MRCI
   Bernardo de Souza      : ESD, SOC TD-DFT
   Georgi Stoychev        : AutoAux, RI-MP2 NMR, DLPNO-MP2 response, X2C
   Van Anh Tran           : RI-MP2 g-tensors
   Willem Van den Heuvel  : Paramagnetic NMR
   Zikuan Wang            : NOTCH, Electric field optimization 
   Frank Wennmohs         : Technical directorship and infrastructure
   Hang Xu                : AUTO-CI-Response properties 


 We gratefully acknowledge several colleagues who have allowed us to
 interface, adapt or use parts of their codes:
   Stefan Grimme, W. Hujo, H. Kruse, P. Pracht,  : VdW corrections, initial TS optimization,
                  C. Bannwarth, S. Ehlert,         DFT functionals, gCP, sTDA/sTD-DF
                  L. Wittmann, M. Mueller
   Ed Valeev, F. Pavosevic, A. Kumar             : LibInt (2-el integral package), F12 methods
   Garnet Chan, S. Sharma, J. Yang, R. Olivares  : DMRG
   Ulf Ekstrom                                   : XCFun DFT Library
   Mihaly Kallay                                 : mrcc  (arbitrary order and MRCC methods)
   Frank Weinhold                                : gennbo (NPA and NBO analysis)
   Simon Mueller                                 : openCOSMO-RS
   Christopher J. Cramer and Donald G. Truhlar   : smd solvation model
   Lars Goerigk                                  : TD-DFT with DH, B97 family of functionals
   V. Asgeirsson, H. Jonsson                     : NEB implementation
   FAccTs GmbH                                   : IRC, NEB, NEB-TS, DLPNO-Multilevel, CI-OPT
                                                   MM, QMMM, 2- and 3-layer-ONIOM, Crystal-QMMM,
                                                   LR-CPCM, SF, NACMEs, symmetry and pop. for TD-DFT,
                                                   nearIR, NL-DFT gradient (VV10), updates on ESD,
                                                   ML-optimized integration grids, MBIS, APM,
                                                   GOAT, DOCKER, SOLVATOR, interface openCOSMO-RS
   S Lehtola, MJT Oliveira, MAL Marques          : LibXC Library
   Liviu Ungur et al                             : ANISO software


 Your calculation uses the libint2 library for the computation of 2-el integrals
 For citations please refer to: http://libint.valeyev.net

 Your ORCA version has been built with support for libXC version: 6.2.2
 For citations please refer to: https://libxc.gitlab.io

 This ORCA versions uses:
   CBLAS   interface :  Fast vector & matrix operations
   LAPACKE interface :  Fast linear algebra routines
   Shared memory     :  Shared parallel matrices


Your calculation utilizes the atom-pairwise dispersion correction
with the Becke-Johnson damping scheme (D3BJ)


Warning: RI is on but no J-basis has been assigned. Assigning Def2/J (nothing to worry about!)
================================================================================

----- Orbital basis set information -----
Your calculation utilizes the basis: def2-SVP
   F. Weigend and R. Ahlrichs, Phys. Chem. Chem. Phys. 7, 3297 (2005).

----- AuxJ basis set information -----
Your calculation utilizes the auxiliary basis: def2/J
   F. Weigend, Phys. Chem. Chem. Phys. 8, 1057 (2006).

================================================================================
                                        WARNINGS
                       Please study these warnings very carefully!
================================================================================


WARNING: Geometry Optimization
  ===> : Switching off AutoStart
         For restart on a previous wavefunction, please use MOREAD

================================================================================
                                       INPUT FILE
================================================================================
NAME = data/geom_opt_P_BP86/82101/82101.inp
|  1> ! RI BP86 def2-SVP D3BJ TIGHTSCF Opt
|  2> %pal
|  3> nprocs 6
|  4> end
|  5> 
|  6> * xyz 0 1
|  7> C     -1.279596    4.723808    1.550721
|  8> C     -0.356288    3.920945    2.216479
|  9> C      0.306080    2.901389    1.530687
| 10> C      0.046140    2.663062    0.169986
| 11> C     -0.877151    3.491291   -0.489178
| 12> C     -1.538649    4.510897    0.198465
| 13> C      0.778650    1.581586   -0.583351
| 14> P      0.002994    0.010120   -0.057405
| 15> C      0.938399   -1.197124   -1.065049
| 16> C      2.293548   -1.301089   -0.412026
| 17> C      2.472319   -2.035958    0.772831
| 18> C      3.734065   -2.150285    1.358885
| 19> C      4.836936   -1.541495    0.764434
| 20> C      4.680342   -0.821470   -0.417969
| 21> C      3.418846   -0.705834   -1.005577
| 22> C     -1.580587    0.077536   -0.971457
| 23> C     -2.294029   -1.207413   -0.634436
| 24> C     -2.381608   -2.243451   -1.578831
| 25> C     -3.063578   -3.424929   -1.280406
| 26> C     -3.675897   -3.583683   -0.039077
| 27> C     -3.611082   -2.560563    0.903973
| 28> C     -2.930004   -1.378748    0.607359
| 29> H     -1.795133    5.516860    2.085531
| 30> H     -0.150224    4.086557    3.270521
| 31> H      1.026031    2.282886    2.063997
| 32> H     -1.088975    3.345821   -1.545862
| 33> H     -2.255331    5.140590   -0.322021
| 34> H      0.706753    1.732523   -1.665842
| 35> H      1.840124    1.629838   -0.320524
| 36> H      1.023848   -0.880503   -2.110127
| 37> H      0.473198   -2.187943   -1.064977
| 38> H      1.619927   -2.518350    1.248249
| 39> H      3.853774   -2.714842    2.279668
| 40> H      5.818634   -1.630568    1.221669
| 41> H      5.541750   -0.350763   -0.884299
| 42> H      3.319223   -0.144821   -1.931834
| 43> H     -2.206939    0.918249   -0.656785
| 44> H     -1.427080    0.175639   -2.051527
| 45> H     -1.915996   -2.137032   -2.555813
| 46> H     -3.118499   -4.221257   -2.017899
| 47> H     -4.205820   -4.503514    0.192923
| 48> H     -4.090130   -2.680570    1.871964
| 49> H     -2.888984   -0.587392    1.353930
| 50> **                         ****END OF INPUT****
================================================================================

                       *****************************
                       * Geometry Optimization Run *
                       *****************************

Geometry optimization settings:
Update method            Update   .... BFGS
Choice of coordinates    CoordSys .... (2022) Redundant Internals
Initial Hessian          InHess   .... Almloef's Model
Max. no of cycles        MaxIter  .... 129

Convergence Tolerances:
Energy Change            TolE     ....  5.0000e-06 Eh
Max. Gradient            TolMAXG  ....  3.0000e-04 Eh/bohr
RMS Gradient             TolRMSG  ....  1.0000e-04 Eh/bohr
Max. Displacement        TolMAXD  ....  4.0000e-03 bohr
RMS Displacement         TolRMSD  ....  2.0000e-03 bohr
Strict Convergence                .... False

------------------------------------------------------------------------------
                        ORCA OPTIMIZATION COORDINATE SETUP
------------------------------------------------------------------------------

The optimization will be done in redundant internal coordinates (2022)
Making redundant internal coordinates   ...  (2022 redundants) done
Evaluating the initial hessian          ...  (Almloef) done
Evaluating the coordinates              ...  done
Calculating the B-matrix                .... done
Calculating the G-matrix                .... done
Diagonalizing the G-matrix              .... done
Small eigenvalue found = 3.367e-03
Small eigenvalue found = 3.583e-03
Small eigenvalue found = 4.344e-03
Small eigenvalue found = 9.363e-03
Small eigenvalue found = 9.813e-03
Small eigenvalue found = 1.431e-02
Small eigenvalue found = 2.493e-02
The first mode is                       ....   99
The number of degrees of freedom        ....  123

    -----------------------------------------------------------------
                    Redundant Internal Coordinates


    -----------------------------------------------------------------
         Definition                    Initial Value    Approx d2E/dq
    -----------------------------------------------------------------
      1. B(C   1,C   0)                  1.3930         0.618053   
      2. B(C   2,C   1)                  1.3959         0.611400   
      3. B(C   3,C   2)                  1.4057         0.589870   
      4. B(C   4,C   3)                  1.4046         0.592149   
      5. B(C   5,C   0)                  1.3932         0.617470   
      6. B(C   5,C   4)                  1.3964         0.610201   
      7. B(C   6,C   3)                  1.5079         0.405211   
      8. B(P   7,C   6)                  1.8297         0.417575   
      9. B(C   8,P   7)                  1.8297         0.417575   
     10. B(C   9,C   8)                  1.5079         0.405212   
     11. B(C  10,C   9)                  1.4057         0.589869   
     12. B(C  11,C  10)                  1.3959         0.611403   
     13. B(C  12,C  11)                  1.3930         0.618052   
     14. B(C  13,C  12)                  1.3932         0.617472   
     15. B(C  14,C   9)                  1.4046         0.592148   
     16. B(C  14,C  13)                  1.3964         0.610203   
     17. B(C  15,P   7)                  1.8297         0.417576   
     18. B(C  16,C  15)                  1.5079         0.405212   
     19. B(C  17,C  16)                  1.4046         0.592149   
     20. B(C  18,C  17)                  1.3964         0.610200   
     21. B(C  19,C  18)                  1.3932         0.617471   
     22. B(C  20,C  19)                  1.3930         0.618055   
     23. B(C  21,C  20)                  1.3959         0.611402   
     24. B(C  21,C  16)                  1.4057         0.589871   
     25. B(H  22,C   0)                  1.0866         0.364606   
     26. B(H  23,C   1)                  1.0867         0.364506   
     27. B(H  24,C   2)                  1.0887         0.361807   
     28. B(H  25,C   4)                  1.0875         0.363450   
     29. B(H  26,C   5)                  1.0868         0.364409   
     30. B(H  27,C   6)                  1.0953         0.353124   
     31. B(H  28,C   6)                  1.0946         0.354075   
     32. B(H  29,C   8)                  1.0953         0.353123   
     33. B(H  30,C   8)                  1.0946         0.354075   
     34. B(H  31,C  10)                  1.0887         0.361806   
     35. B(H  32,C  11)                  1.0867         0.364505   
     36. B(H  33,C  12)                  1.0866         0.364608   
     37. B(H  34,C  13)                  1.0868         0.364409   
     38. B(H  35,C  14)                  1.0875         0.363449   
     39. B(H  36,C  15)                  1.0946         0.354075   
     40. B(H  37,C  15)                  1.0953         0.353122   
     41. B(H  38,C  17)                  1.0875         0.363449   
     42. B(H  39,C  18)                  1.0868         0.364410   
     43. B(H  40,C  19)                  1.0866         0.364606   
     44. B(H  41,C  20)                  1.0867         0.364505   
     45. B(H  42,C  21)                  1.0887         0.361807   
     46. A(C   1,C   0,H  22)          119.9937         0.353465   
     47. A(C   5,C   0,H  22)          120.0680         0.353408   
     48. A(C   1,C   0,C   5)          119.9381         0.433502   
     49. A(C   0,C   1,C   2)          120.0459         0.432732   
     50. A(C   0,C   1,H  23)          120.0953         0.353448   
     51. A(C   2,C   1,H  23)          119.8588         0.352801   
     52. A(C   1,C   2,C   3)          120.7749         0.429120   
     53. A(C   1,C   2,H  24)          119.2136         0.352358   
     54. A(C   3,C   2,H  24)          120.0101         0.350229   
     55. A(C   4,C   3,C   6)          120.5159         0.399154   
     56. A(C   2,C   3,C   4)          118.4153         0.426666   
     57. A(C   2,C   3,C   6)          121.0237         0.398884   
     58. A(C   3,C   4,C   5)          120.7187         0.429266   
     59. A(C   5,C   4,H  25)          118.9393         0.352511   
     60. A(C   3,C   4,H  25)          120.3418         0.350726   
     61. A(C   4,C   5,H  26)          119.9746         0.352668   
     62. A(C   0,C   5,H  26)          119.9291         0.353376   
     63. A(C   0,C   5,C   4)          120.0962         0.432506   
     64. A(P   7,C   6,H  27)          112.0002         0.349671   
     65. A(C   3,C   6,H  27)          111.2863         0.327630   
     66. A(C   3,C   6,H  28)          108.6335         0.327775   
     67. A(P   7,C   6,H  28)          112.3300         0.349830   
     68. A(C   3,C   6,P   7)          105.4530         0.399926   
     69. A(H  27,C   6,H  28)          107.1503         0.289182   
     70. A(C   8,P   7,C  15)          101.0498         0.428646   
     71. A(C   6,P   7,C  15)          101.0496         0.428646   
     72. A(C   6,P   7,C   8)          101.0495         0.428646   
     73. A(H  29,C   8,H  30)          107.1502         0.289182   
     74. A(C   9,C   8,H  29)          111.2863         0.327630   
     75. A(P   7,C   8,H  30)          112.3301         0.349830   
     76. A(P   7,C   8,H  29)          112.0002         0.349671   
     77. A(P   7,C   8,C   9)          105.4529         0.399927   
     78. A(C   9,C   8,H  30)          108.6335         0.327775   
     79. A(C   8,C   9,C  10)          121.0237         0.398883   
     80. A(C  10,C   9,C  14)          118.4153         0.426666   
     81. A(C   8,C   9,C  14)          120.5159         0.399154   
     82. A(C   9,C  10,C  11)          120.7749         0.429120   
     83. A(C  11,C  10,H  31)          119.2136         0.352358   
     84. A(C   9,C  10,H  31)          120.0101         0.350229   
     85. A(C  10,C  11,C  12)          120.0459         0.432732   
     86. A(C  12,C  11,H  32)          120.0953         0.353448   
     87. A(C  10,C  11,H  32)          119.8588         0.352801   
     88. A(C  11,C  12,H  33)          119.9936         0.353465   
     89. A(C  13,C  12,H  33)          120.0681         0.353408   
     90. A(C  11,C  12,C  13)          119.9381         0.433502   
     91. A(C  14,C  13,H  34)          119.9746         0.352668   
     92. A(C  12,C  13,H  34)          119.9290         0.353376   
     93. A(C  12,C  13,C  14)          120.0963         0.432506   
     94. A(C  13,C  14,H  35)          118.9394         0.352511   
     95. A(C   9,C  14,H  35)          120.3418         0.350726   
     96. A(C   9,C  14,C  13)          120.7187         0.429266   
     97. A(C  16,C  15,H  36)          108.6334         0.327775   
     98. A(P   7,C  15,H  36)          112.3299         0.349830   
     99. A(P   7,C  15,C  16)          105.4530         0.399927   
    100. A(P   7,C  15,H  37)          112.0003         0.349671   
    101. A(H  36,C  15,H  37)          107.1503         0.289182   
    102. A(C  16,C  15,H  37)          111.2863         0.327629   
    103. A(C  17,C  16,C  21)          118.4153         0.426666   
    104. A(C  15,C  16,C  21)          121.0236         0.398884   
    105. A(C  15,C  16,C  17)          120.5159         0.399154   
    106. A(C  16,C  17,C  18)          120.7187         0.429266   
    107. A(C  18,C  17,H  38)          118.9392         0.352510   
    108. A(C  16,C  17,H  38)          120.3420         0.350726   
    109. A(C  17,C  18,C  19)          120.0962         0.432506   
    110. A(C  19,C  18,H  39)          119.9292         0.353376   
    111. A(C  17,C  18,H  39)          119.9746         0.352668   
    112. A(C  18,C  19,C  20)          119.9381         0.433502   
    113. A(C  20,C  19,H  40)          119.9937         0.353465   
    114. A(C  18,C  19,H  40)          120.0680         0.353408   
    115. A(C  19,C  20,C  21)          120.0459         0.432733   
    116. A(C  21,C  20,H  41)          119.8588         0.352801   
    117. A(C  19,C  20,H  41)          120.0953         0.353448   
    118. A(C  16,C  21,C  20)          120.7749         0.429121   
    119. A(C  20,C  21,H  42)          119.2136         0.352358   
    120. A(C  16,C  21,H  42)          120.0101         0.350230   
    121. D(C   2,C   1,C   0,C   5)     -0.1881         0.026423   
    122. D(H  23,C   1,C   0,H  22)     -0.0171         0.026423   
    123. D(C   2,C   1,C   0,H  22)    179.9654         0.026423   
    124. D(H  23,C   1,C   0,C   5)    179.8293         0.026423   
    125. D(C   3,C   2,C   1,H  23)    179.4679         0.025824   
    126. D(C   3,C   2,C   1,C   0)     -0.5147         0.025824   
    127. D(H  24,C   2,C   1,H  23)     -0.0991         0.025824   
    128. D(H  24,C   2,C   1,C   0)    179.9183         0.025824   
    129. D(C   6,C   3,C   2,C   1)    178.7489         0.023944   
    130. D(C   6,C   3,C   2,H  24)     -1.6875         0.023944   
    131. D(C   4,C   3,C   2,H  24)   -179.2568         0.023944   
    132. D(C   4,C   3,C   2,C   1)      1.1797         0.023944   
    133. D(C   5,C   4,C   3,C   6)   -178.7505         0.024139   
    134. D(C   5,C   4,C   3,C   2)     -1.1685         0.024139   
    135. D(H  25,C   4,C   3,C   2)    178.9388         0.024139   
    136. D(H  25,C   4,C   3,C   6)      1.3568         0.024139   
    137. D(H  26,C   5,C   4,H  25)      0.2790         0.025717   
    138. D(H  26,C   5,C   4,C   3)   -179.6152         0.025717   
    139. D(C   0,C   5,C   4,H  25)   -179.6121         0.025717   
    140. D(H  26,C   5,C   0,H  22)      0.1539         0.026370   
    141. D(C   0,C   5,C   4,C   3)      0.4937         0.025717   
    142. D(H  26,C   5,C   0,C   1)   -179.6925         0.026370   
    143. D(C   4,C   5,C   0,C   1)      0.1986         0.026370   
    144. D(C   4,C   5,C   0,H  22)   -179.9550         0.026370   
    145. D(H  28,C   6,C   3,C   2)    -44.0219         0.012172   
    146. D(H  27,C   6,C   3,C   4)     15.7637         0.012172   
    147. D(H  27,C   6,C   3,C   2)   -161.7546         0.012172   
    148. D(P   7,C   6,C   3,C   4)   -105.8924         0.012172   
    149. D(P   7,C   6,C   3,C   2)     76.5893         0.012172   
    150. D(C   8,P   7,C   6,H  27)     57.3025         0.003866   
    151. D(C   8,P   7,C   6,C   3)    178.4950         0.003866   
    152. D(C  15,P   7,C   6,H  27)    -46.4132         0.003866   
    153. D(C  15,P   7,C   6,C   3)     74.7793         0.003866   
    154. D(C   8,P   7,C   6,H  28)    -63.3462         0.003866   
    155. D(H  30,C   8,P   7,C   6)   -167.0616         0.003866   
    156. D(H  29,C   8,P   7,C  15)     57.3027         0.003866   
    157. D(H  29,C   8,P   7,C   6)    -46.4129         0.003866   
    158. D(C   9,C   8,P   7,C  15)    178.4952         0.003866   
    159. D(C   9,C   8,P   7,C   6)     74.7796         0.003866   
    160. D(C  14,C   9,C   8,H  29)     15.7632         0.012172   
    161. D(C  14,C   9,C   8,P   7)   -105.8929         0.012172   
    162. D(C  10,C   9,C   8,H  30)    -44.0224         0.012172   
    163. D(C  10,C   9,C   8,H  29)   -161.7550         0.012172   
    164. D(C  10,C   9,C   8,P   7)     76.5889         0.012172   
    165. D(H  31,C  10,C   9,C  14)   -179.2565         0.023944   
    166. D(H  31,C  10,C   9,C   8)     -1.6873         0.023944   
    167. D(C  11,C  10,C   9,C  14)      1.1799         0.023944   
    168. D(C  11,C  10,C   9,C   8)    178.7491         0.023944   
    169. D(H  32,C  11,C  10,H  31)     -0.0990         0.025824   
    170. D(C  12,C  11,C  10,H  31)    179.9181         0.025824   
    171. D(C  12,C  11,C  10,C   9)     -0.5148         0.025824   
    172. D(H  32,C  11,C  10,C   9)    179.4681         0.025824   
    173. D(H  33,C  12,C  11,H  32)     -0.0174         0.026422   
    174. D(H  33,C  12,C  11,C  10)    179.9655         0.026422   
    175. D(C  13,C  12,C  11,H  32)    179.8290         0.026422   
    176. D(C  13,C  12,C  11,C  10)     -0.1882         0.026422   
    177. D(H  34,C  13,C  12,H  33)      0.1538         0.026370   
    178. D(H  34,C  13,C  12,C  11)   -179.6924         0.026370   
    179. D(C  14,C  13,C  12,H  33)   -179.9550         0.026370   
    180. D(C  14,C  13,C  12,C  11)      0.1987         0.026370   
    181. D(H  35,C  14,C   9,C   8)      1.3568         0.024139   
    182. D(C  13,C  14,C   9,C  10)     -1.1687         0.024139   
    183. D(C  13,C  14,C   9,C   8)   -178.7506         0.024139   
    184. D(H  35,C  14,C  13,H  34)      0.2790         0.025717   
    185. D(H  35,C  14,C  13,C  12)   -179.6122         0.025717   
    186. D(C   9,C  14,C  13,H  34)   -179.6151         0.025717   
    187. D(C   9,C  14,C  13,C  12)      0.4938         0.025717   
    188. D(H  35,C  14,C   9,C  10)    178.9388         0.024139   
    189. D(H  37,C  15,P   7,C   6)     57.3025         0.003866   
    190. D(H  36,C  15,P   7,C   8)   -167.0617         0.003866   
    191. D(H  36,C  15,P   7,C   6)    -63.3463         0.003866   
    192. D(C  16,C  15,P   7,C   8)     74.7796         0.003866   
    193. D(C  16,C  15,P   7,C   6)    178.4951         0.003866   
    194. D(C  21,C  16,C  15,H  36)    -44.0215         0.012172   
    195. D(C  21,C  16,C  15,P   7)     76.5896         0.012172   
    196. D(C  17,C  16,C  15,H  37)     15.7638         0.012172   
    197. D(C  17,C  16,C  15,H  36)    133.4964         0.012172   
    198. D(C  17,C  16,C  15,P   7)   -105.8925         0.012172   
    199. D(H  38,C  17,C  16,C  21)    178.9387         0.024139   
    200. D(H  38,C  17,C  16,C  15)      1.3571         0.024139   
    201. D(C  18,C  17,C  16,C  21)     -1.1687         0.024139   
    202. D(C  18,C  17,C  16,C  15)   -178.7502         0.024139   
    203. D(H  39,C  18,C  17,H  38)      0.2790         0.025717   
    204. D(H  39,C  18,C  17,C  16)   -179.6151         0.025717   
    205. D(C  19,C  18,C  17,H  38)   -179.6119         0.025717   
    206. D(C  19,C  18,C  17,C  16)      0.4940         0.025717   
    207. D(H  40,C  19,C  18,H  39)      0.1539         0.026370   
    208. D(H  40,C  19,C  18,C  17)   -179.9551         0.026370   
    209. D(C  20,C  19,C  18,H  39)   -179.6926         0.026370   
    210. D(C  20,C  19,C  18,C  17)      0.1984         0.026370   
    211. D(H  41,C  20,C  19,H  40)     -0.0172         0.026423   
    212. D(H  41,C  20,C  19,C  18)    179.8294         0.026423   
    213. D(C  21,C  20,C  19,H  40)    179.9655         0.026423   
    214. D(C  21,C  20,C  19,C  18)     -0.1879         0.026423   
    215. D(H  42,C  21,C  20,H  41)     -0.0992         0.025824   
    216. D(H  42,C  21,C  20,C  19)    179.9181         0.025824   
    217. D(C  16,C  21,C  20,H  41)    179.4678         0.025824   
    218. D(C  16,C  21,C  20,C  19)     -0.5149         0.025824   
    219. D(H  42,C  21,C  16,C  17)   -179.2566         0.023944   
    220. D(H  42,C  21,C  16,C  15)     -1.6878         0.023944   
    221. D(C  20,C  21,C  16,C  17)      1.1799         0.023944   
    222. D(C  20,C  21,C  16,C  15)    178.7486         0.023944   
    -----------------------------------------------------------------

Number of atoms                         .... 43
Number of degrees of freedom            .... 222


         *************************************************************
         *                GEOMETRY OPTIMIZATION CYCLE   1            *
         *************************************************************
---------------------------------
CARTESIAN COORDINATES (ANGSTROEM)
---------------------------------
  C     -1.279596    4.723808    1.550721
  C     -0.356288    3.920945    2.216479
  C      0.306080    2.901389    1.530687
  C      0.046140    2.663062    0.169986
  C     -0.877151    3.491291   -0.489178
  C     -1.538649    4.510897    0.198465
  C      0.778650    1.581586   -0.583351
  P      0.002994    0.010120   -0.057405
  C      0.938399   -1.197124   -1.065049
  C      2.293548   -1.301089   -0.412026
  C      2.472319   -2.035958    0.772831
  C      3.734065   -2.150285    1.358885
  C      4.836936   -1.541495    0.764434
  C      4.680342   -0.821470   -0.417969
  C      3.418846   -0.705834   -1.005577
  C     -1.580587    0.077536   -0.971457
  C     -2.294029   -1.207413   -0.634436
  C     -2.381608   -2.243451   -1.578831
  C     -3.063578   -3.424929   -1.280406
  C     -3.675897   -3.583683   -0.039077
  C     -3.611082   -2.560563    0.903973
  C     -2.930004   -1.378748    0.607359
  H     -1.795133    5.516860    2.085531
  H     -0.150224    4.086557    3.270521
  H      1.026031    2.282886    2.063997
  H     -1.088975    3.345821   -1.545862
  H     -2.255331    5.140590   -0.322021
  H      0.706753    1.732523   -1.665842
  H      1.840124    1.629838   -0.320524
  H      1.023848   -0.880503   -2.110127
  H      0.473198   -2.187943   -1.064977
  H      1.619927   -2.518350    1.248249
  H      3.853774   -2.714842    2.279668
  H      5.818634   -1.630568    1.221669
  H      5.541750   -0.350763   -0.884299
  H      3.319223   -0.144821   -1.931834
  H     -2.206939    0.918249   -0.656785
  H     -1.427080    0.175639   -2.051527
  H     -1.915996   -2.137032   -2.555813
  H     -3.118499   -4.221257   -2.017899
  H     -4.205820   -4.503514    0.192923
  H     -4.090130   -2.680570    1.871964
  H     -2.888984   -0.587392    1.353930

----------------------------
CARTESIAN COORDINATES (A.U.)
----------------------------
  NO LB      ZA    FRAG     MASS         X           Y           Z
   0 C     6.0000    0    12.011   -2.418086    8.926703    2.930438
   1 C     6.0000    0    12.011   -0.673287    7.409512    4.188538
   2 C     6.0000    0    12.011    0.578407    5.482831    2.892579
   3 C     6.0000    0    12.011    0.087192    5.032458    0.321227
   4 C     6.0000    0    12.011   -1.657575    6.597584   -0.924412
   5 C     6.0000    0    12.011   -2.907625    8.524360    0.375044
   6 C     6.0000    0    12.011    1.471435    2.988764   -1.102374
   7 P    15.0000    0    30.974    0.005658    0.019124   -0.108480
   8 C     6.0000    0    12.011    1.773317   -2.262237   -2.012651
   9 C     6.0000    0    12.011    4.334178   -2.458702   -0.778616
  10 C     6.0000    0    12.011    4.672006   -3.847403    1.460439
  11 C     6.0000    0    12.011    7.056360   -4.063450    2.567920
  12 C     6.0000    0    12.011    9.140484   -2.913003    1.444571
  13 C     6.0000    0    12.011    8.844565   -1.552353   -0.789847
  14 C     6.0000    0    12.011    6.460683   -1.333833   -1.900265
  15 C     6.0000    0    12.011   -2.986877    0.146522   -1.835788
  16 C     6.0000    0    12.011   -4.335087   -2.281680   -1.198910
  17 C     6.0000    0    12.011   -4.500587   -4.239508   -2.983558
  18 C     6.0000    0    12.011   -5.789323   -6.472178   -2.419617
  19 C     6.0000    0    12.011   -6.946439   -6.772179   -0.073845
  20 C     6.0000    0    12.011   -6.823956   -4.838763    1.708261
  21 C     6.0000    0    12.011   -5.536905   -2.605456    1.147742
  22 H     1.0000    0     1.008   -3.392310   10.425355    3.941082
  23 H     1.0000    0     1.008   -0.283882    7.722474    6.180389
  24 H     1.0000    0     1.008    1.938918    4.314029    3.900389
  25 H     1.0000    0     1.008   -2.057865    6.322685   -2.921256
  26 H     1.0000    0     1.008   -4.261958    9.714307   -0.608531
  27 H     1.0000    0     1.008    1.335570    3.273994   -3.147985
  28 H     1.0000    0     1.008    3.477330    3.079947   -0.605703
  29 H     1.0000    0     1.008    1.934792   -1.663910   -3.987562
  30 H     1.0000    0     1.008    0.894215   -4.134613   -2.012515
  31 H     1.0000    0     1.008    3.061218   -4.758992    2.358849
  32 H     1.0000    0     1.008    7.282577   -5.130308    4.307948
  33 H     1.0000    0     1.008   10.995625   -3.081327    2.308620
  34 H     1.0000    0     1.008   10.472390   -0.662846   -1.671083
  35 H     1.0000    0     1.008    6.272422   -0.273672   -3.650637
  36 H     1.0000    0     1.008   -4.170510    1.735239   -1.241144
  37 H     1.0000    0     1.008   -2.696790    0.331910   -3.876824
  38 H     1.0000    0     1.008   -3.620708   -4.038405   -4.829787
  39 H     1.0000    0     1.008   -5.893109   -7.977020   -3.813276
  40 H     1.0000    0     1.008   -7.947848   -8.510408    0.364572
  41 H     1.0000    0     1.008   -7.729226   -5.065543    3.537499
  42 H     1.0000    0     1.008   -5.459389   -1.110010    2.558557

--------------------------------
INTERNAL COORDINATES (ANGSTROEM)
--------------------------------
 C      0   0   0     0.000000000000     0.00000000     0.00000000
 C      1   0   0     1.392953830605     0.00000000     0.00000000
 C      2   1   0     1.395899878868   120.04594164     0.00000000
 C      3   2   1     1.405658484103   120.77485992   359.48527705
 C      4   3   2     1.404609100789   118.41528432     1.17966825
 C      1   2   3     1.393210623081   119.93809508   359.81189103
 C      4   3   2     1.507871968784   121.02372405   178.74893605
 P      7   4   3     1.829690360254   105.45298249    76.58928785
 C      8   7   4     1.829690416518   101.04951988   178.49495024
 C      9   8   7     1.507871536954   105.45292534    74.77958328
 C     10   9   8     1.405659143623   121.02366033    76.58890921
 C     11  10   9     1.395898607479   120.77485805   178.74905716
 C     12  11  10     1.392954305834   120.04594691   359.48517034
 C     13  12  11     1.393210154955   119.93806394   359.81182996
 C     14  13  12     1.396433673389   120.09629010     0.19873218
 C      8   7   4     1.829689798660   101.04962988    74.77927140
 C     16   8   7     1.507871537766   105.45299079   178.49506523
 C     17  16   8     1.404609103883   120.51590398   254.10745072
 C     18  17  16     1.396435041815   120.71866041   181.24975237
 C     19  18  17     1.393210348985   120.09619085     0.49396503
 C     20  19  18     1.392953273131   119.93814448     0.19842320
 C     21  20  19     1.395898922310   120.04593842   359.81209620
 H      1   2   3     1.086614747357   119.99368067   179.96541277
 H      2   1   3     1.086689580517   120.09530405   180.01743931
 H      3   2   1     1.088712523814   119.21358240   179.91832246
 H      5   4   3     1.087479656698   120.34184564   178.93883664
 H      6   1   2     1.086762181698   119.92906599   180.30748780
 H      7   4   3     1.095325486629   111.28625844   198.24537010
 H      7   4   3     1.094592773642   108.63353397   315.97808794
 H      9   8   7     1.095325711981   112.00017006   313.58714058
 H      9   8   7     1.094593196738   112.33012786   192.93843869
 H     11  10   9     1.088713202846   120.01013686   358.31267236
 H     12  11  10     1.086690472959   119.85879593   179.46808306
 H     13  12  11     1.086613458300   119.99362959   179.96545319
 H     14  13  12     1.086762389491   119.92903156   180.30755963
 H     15  14  13     1.087479819742   118.93939264   180.38783250
 H     16   8   7     1.094592912391   112.32994590   296.65374959
 H     16   8   7     1.095326345231   112.00034615    57.30246838
 H     18  17  16     1.087480283237   120.34200802     1.35714162
 H     19  18  17     1.086761484813   119.97455374   180.38489237
 H     20  19  18     1.086614676180   120.06801001   180.04488957
 H     21  20  19     1.086690039723   120.09526691   179.82937727
 H     22  21  20     1.088712642150   119.21358286   179.91808522

---------------------------
INTERNAL COORDINATES (A.U.)
---------------------------
 C      0   0   0     0.000000000000     0.00000000     0.00000000
 C      1   0   0     2.632301257040     0.00000000     0.00000000
 C      2   1   0     2.637868481435   120.04594164     0.00000000
 C      3   2   1     2.656309572777   120.77485992   359.48527705
 C      4   3   2     2.654326525704   118.41528432     1.17966825
 C      1   2   3     2.632786524493   119.93809508   359.81189103
 C      4   3   2     2.849465066019   121.02372405   178.74893605
 P      7   4   3     3.457613690757   105.45298249    76.58928785
 C      8   7   4     3.457613797079   101.04951988   178.49495024
 C      9   8   7     2.849464249977   105.45292534    74.77958328
 C     10   9   8     2.656310819090   121.02366033    76.58890921
 C     11  10   9     2.637866078857   120.77485805   178.74905716
 C     12  11  10     2.632302155093   120.04594691   359.48517034
 C     13  12  11     2.632785639863   119.93806394   359.81182996
 C     14  13  12     2.638877206892   120.09629010     0.19873218
 C      8   7   4     3.457612629497   101.04962988    74.77927140
 C     16   8   7     2.849464251513   105.45299079   178.49506523
 C     17  16   8     2.654326531551   120.51590398   254.10745072
 C     18  17  16     2.638879792841   120.71866041   181.24975237
 C     19  18  17     2.632786006526   120.09619085     0.49396503
 C     20  19  18     2.632300203566   119.93814448     0.19842320
 C     21  20  19     2.637866673801   120.04593842   359.81209620
 H      1   2   3     2.053404285584   119.99368067   179.96541277
 H      2   1   3     2.053545699763   120.09530405   180.01743931
 H      3   2   1     2.057368508579   119.21358240   179.91832246
 H      5   4   3     2.055038727370   120.34184564   178.93883664
 H      6   1   2     2.053682896112   119.92906599   180.30748780
 H      7   4   3     2.069865197233   111.28625844   198.24537010
 H      7   4   3     2.068480570352   108.63353397   315.97808794
 H      9   8   7     2.069865623086   112.00017006   313.58714058
 H      9   8   7     2.068481369889   112.33012786   192.93843869
 H     11  10   9     2.057369791764   120.01013686   358.31267236
 H     12  11  10     2.053547386233   119.85879593   179.46808306
 H     13  12  11     2.053401849619   119.99362959   179.96545319
 H     14  13  12     2.053683288785   119.92903156   180.30755963
 H     15  14  13     2.055039035479   118.93939264   180.38783250
 H     16   8   7     2.068480832551   112.32994590   296.65374959
 H     16   8   7     2.069866819756   112.00034615    57.30246838
 H     18  17  16     2.055039911357   120.34200802     1.35714162
 H     19  18  17     2.053681579191   119.97455374   180.38489237
 H     20  19  18     2.053404151080   120.06801001   180.04488957
 H     21  20  19     2.053546567537   120.09526691   179.82937727
 H     22  21  20     2.057368732201   119.21358286   179.91808522

---------------------
BASIS SET INFORMATION
---------------------
There are 3 groups of distinct atoms

 Group   1 Type C   : 7s4p1d contracted to 3s2p1d pattern {511/31/1}
 Group   2 Type P   : 10s7p1d contracted to 4s3p1d pattern {5311/511/1}
 Group   3 Type H   : 4s1p contracted to 2s1p pattern {31/1}

Atom   0C    basis set group =>   1
Atom   1C    basis set group =>   1
Atom   2C    basis set group =>   1
Atom   3C    basis set group =>   1
Atom   4C    basis set group =>   1
Atom   5C    basis set group =>   1
Atom   6C    basis set group =>   1
Atom   7P    basis set group =>   2
Atom   8C    basis set group =>   1
Atom   9C    basis set group =>   1
Atom  10C    basis set group =>   1
Atom  11C    basis set group =>   1
Atom  12C    basis set group =>   1
Atom  13C    basis set group =>   1
Atom  14C    basis set group =>   1
Atom  15C    basis set group =>   1
Atom  16C    basis set group =>   1
Atom  17C    basis set group =>   1
Atom  18C    basis set group =>   1
Atom  19C    basis set group =>   1
Atom  20C    basis set group =>   1
Atom  21C    basis set group =>   1
Atom  22H    basis set group =>   3
Atom  23H    basis set group =>   3
Atom  24H    basis set group =>   3
Atom  25H    basis set group =>   3
Atom  26H    basis set group =>   3
Atom  27H    basis set group =>   3
Atom  28H    basis set group =>   3
Atom  29H    basis set group =>   3
Atom  30H    basis set group =>   3
Atom  31H    basis set group =>   3
Atom  32H    basis set group =>   3
Atom  33H    basis set group =>   3
Atom  34H    basis set group =>   3
Atom  35H    basis set group =>   3
Atom  36H    basis set group =>   3
Atom  37H    basis set group =>   3
Atom  38H    basis set group =>   3
Atom  39H    basis set group =>   3
Atom  40H    basis set group =>   3
Atom  41H    basis set group =>   3
Atom  42H    basis set group =>   3
---------------------------------
AUXILIARY/J BASIS SET INFORMATION
---------------------------------
There are 3 groups of distinct atoms

 Group   1 Type C   : 12s5p4d2f1g contracted to 6s4p3d1f1g pattern {711111/2111/211/2/1}
 Group   2 Type P   : 14s5p5d2f1g contracted to 8s4p3d1f1g pattern {71111111/2111/311/2/1}
 Group   3 Type H   : 5s2p1d contracted to 3s1p1d pattern {311/2/1}

Atom   0C    basis set group =>   1
Atom   1C    basis set group =>   1
Atom   2C    basis set group =>   1
Atom   3C    basis set group =>   1
Atom   4C    basis set group =>   1
Atom   5C    basis set group =>   1
Atom   6C    basis set group =>   1
Atom   7P    basis set group =>   2
Atom   8C    basis set group =>   1
Atom   9C    basis set group =>   1
Atom  10C    basis set group =>   1
Atom  11C    basis set group =>   1
Atom  12C    basis set group =>   1
Atom  13C    basis set group =>   1
Atom  14C    basis set group =>   1
Atom  15C    basis set group =>   1
Atom  16C    basis set group =>   1
Atom  17C    basis set group =>   1
Atom  18C    basis set group =>   1
Atom  19C    basis set group =>   1
Atom  20C    basis set group =>   1
Atom  21C    basis set group =>   1
Atom  22H    basis set group =>   3
Atom  23H    basis set group =>   3
Atom  24H    basis set group =>   3
Atom  25H    basis set group =>   3
Atom  26H    basis set group =>   3
Atom  27H    basis set group =>   3
Atom  28H    basis set group =>   3
Atom  29H    basis set group =>   3
Atom  30H    basis set group =>   3
Atom  31H    basis set group =>   3
Atom  32H    basis set group =>   3
Atom  33H    basis set group =>   3
Atom  34H    basis set group =>   3
Atom  35H    basis set group =>   3
Atom  36H    basis set group =>   3
Atom  37H    basis set group =>   3
Atom  38H    basis set group =>   3
Atom  39H    basis set group =>   3
Atom  40H    basis set group =>   3
Atom  41H    basis set group =>   3
Atom  42H    basis set group =>   3


           ************************************************************
           *        Program running with 6 parallel MPI-processes     *
           *              working on a common directory               *
           ************************************************************
------------------------------------------------------------------------------
                             ORCA STARTUP CALCULATIONS
                           -- RI-GTO INTEGRALS CHOSEN --
------------------------------------------------------------------------------
------------------------------------------------------------------------------
                   ___                                                        
                  /   \      - P O W E R E D   B Y -                         
                 /     \                                                     
                 |  |  |   _    _      __       _____    __    __             
                 |  |  |  | |  | |    /  \     |  _  \  |  |  /  |          
                  \  \/   | |  | |   /    \    | | | |  |  | /  /          
                 / \  \   | |__| |  /  /\  \   | |_| |  |  |/  /          
                |  |  |   |  __  | /  /__\  \  |    /   |      \           
                |  |  |   | |  | | |   __   |  |    \   |  |\   \          
                \     /   | |  | | |  |  |  |  | |\  \  |  | \   \       
                 \___/    |_|  |_| |__|  |__|  |_| \__\ |__|  \__/        
                                                                              
                      - O R C A' S   B I G   F R I E N D -                    
                                      &                                       
                       - I N T E G R A L  F E E D E R -                       
                                                                              
 v1 FN, 2020, v2 2021, v3 2022-2024                                           
------------------------------------------------------------------------------


----------------------
SHARK INTEGRAL PACKAGE
----------------------

Number of atoms                             ...     43
Number of basis functions                   ...    417
Number of shells                            ...    197
Maximum angular momentum                    ...      2
Integral batch strategy                     ... SHARK/LIBINT Hybrid
RI-J (if used) integral strategy            ... SPLIT-RIJ (Revised 2003 algorithm where possible)
Printlevel                                  ...      1
Contraction scheme used                     ... SEGMENTED contraction
Prescreening option                         ... SCHWARTZ
   Thresh                                   ... 2.500e-11
   Tcut                                     ... 2.500e-12
   Tpresel                                  ... 2.500e-12 
Coulomb Range Separation                    ... NOT USED
Exchange Range Separation                   ... NOT USED
Multipole approximations                    ... NOT USED
Finite Nucleus Model                        ... NOT USED
CABS basis                                  ... NOT available
Auxiliary Coulomb fitting basis             ... AVAILABLE
   # of basis functions in Aux-J            ...   1311
   # of shells in Aux-J                     ...    437
   Maximum angular momentum in Aux-J        ...      4
Auxiliary J/K fitting basis                 ... NOT available
Auxiliary Correlation fitting basis         ... NOT available
Auxiliary 'external' fitting basis          ... NOT available

Checking pre-screening integrals            ... done (  0.0 sec) Dimension = 197
Check shell pair data                       ... done (  0.0 sec)
Shell pair information
Shell pair cut-off parameter TPreSel        ...   2.5e-12
Total number of shell pairs                 ...     19503
Shell pairs after pre-screening             ...     14080
Total number of primitive shell pairs       ...     70859
Primitive shell pairs kept                  ...     32213
          la=0 lb=0:   4519 shell pairs
          la=1 lb=0:   5301 shell pairs
          la=1 lb=1:   1626 shell pairs
          la=2 lb=0:   1580 shell pairs
          la=2 lb=1:    927 shell pairs
          la=2 lb=2:    127 shell pairs

Calculating one electron integrals          ... done (  0.0 sec)
Calculating RI/J V-Matrix + Cholesky decomp.... done (  0.1 sec)
Calculating Nuclear repulsion               ... done (  0.0 sec) ENN=   1770.452459984045 Eh

Diagonalization of the overlap matrix:
Smallest eigenvalue                        ... 2.867e-04
Time for diagonalization                   ...    0.023 sec
Threshold for overlap eigenvalues          ... 1.000e-07
Number of eigenvalues below threshold      ... 0
Time for construction of square roots      ...    0.013 sec
Total time needed                          ...    0.039 sec

-------------------
DFT GRID GENERATION
-------------------

General Integration Accuracy     IntAcc      ... 4.388
Radial Grid Type                 RadialGrid  ... OptM3 with GC (2021)
Angular Grid (max. ang.)         AngularGrid ... 4 (Lebedev-302)
Angular grid pruning method      GridPruning ... 4 (adaptive)
Weight generation scheme         WeightScheme... mBecke (2022)
Basis function cutoff            BFCut       ... 1.0000e-11
Integration weight cutoff        WCut        ... 1.0000e-14
Partially contracted basis set               ... off
Rotationally invariant grid construction     ... off
Angular grids for H and He will be reduced by one unit

Total number of grid points                  ...   199349
Total number of batches                      ...     3139
Average number of points per batch           ...       63
Average number of grid points per atom       ...     4636
Initializing property integral containers    ... done (  0.0 sec)

SHARK setup successfully completed in   1.6 seconds

Maximum memory used throughout the entire STARTUP-calculation: 53.6 MB


           ************************************************************
           *        Program running with 6 parallel MPI-processes     *
           *              working on a common directory               *
           ************************************************************
-------------------------------------------------------------------------------
                                 ORCA GUESS
                   Start orbitals & Density for SCF / CASSCF
-------------------------------------------------------------------------------

------------
SCF SETTINGS
------------
Hamiltonian:
 Density Functional     Method          .... DFT(GTOs)
 Exchange Functional    Exchange        .... B88
   X-Alpha parameter    XAlpha          ....  0.666667
   Becke's b parameter  XBeta           ....  0.004200
 Correlation Functional Correlation     .... P86
 LDA part of GGA corr.  LDAOpt          .... PW91-LDA
 Gradients option       PostSCFGGA      .... off
   NL short-range parameter             ....  4.400000
 RI-approximation to the Coulomb term is turned on
   Number of AuxJ basis functions       .... 1311


General Settings:
 Integral files         IntName         .... data/geom_opt_P_BP86/82101/82101
 Hartree-Fock type      HFTyp           .... RHF
 Total Charge           Charge          ....    0
 Multiplicity           Mult            ....    1
 Number of Electrons    NEL             ....  162
 Basis Dimension        Dim             ....  417
 Nuclear Repulsion      ENuc            ....   1770.4524599840 Eh

Convergence Acceleration:
 AO-DIIS                CNVDIIS         .... on
   Start iteration      DIISMaxIt       ....    12
   Startup error        DIISStart       ....  0.200000
   # of expansion vecs  DIISMaxEq       ....     5
   Bias factor          DIISBfac        ....   1.050
   Max. coefficient     DIISMaxC        ....  10.000
 MO-DIIS                CNVKDIIS        .... off
 Trust-Rad. Augm. Hess. CNVTRAH         .... auto
   Auto Start mean grad. ratio tolernc. ....  1.125000
   Auto Start start iteration           ....    50
   Auto Start num. interpolation iter.  ....    10
   Max. Number of Micro iterations      ....    24
   Max. Number of Macro iterations      .... Maxiter - #DIIS iter
   Number of Davidson start vectors     ....     2
   Converg. threshold    (grad. norm)   ....   1.000e-05
   Grad. Scal. Fac. for Micro threshold ....   0.100
   Minimum threshold for Micro iter.    ....   1.000e-02
   NR start threshold (gradient norm)   ....   1.000e-04
   Initial trust radius                 ....   0.400
   Minimum AH scaling param. (alpha)    ....   1.000
   Maximum AH scaling param. (alpha)    .... 1000.000
   Quad. conv. algorithm                .... NR
   White noise on init. David. guess    .... on
   Maximum white noise                  ....   0.010
   Pseudo random numbers                .... off
   Inactive MOs                         .... canonical
   Orbital update algorithm             .... Taylor
   Preconditioner                       .... Diag
   Full preconditioner red. dimension   ....   250
 SOSCF                  CNVSOSCF        .... on
   Start iteration      SOSCFMaxIt      ....   150
   Startup grad/error   SOSCFStart      ....  0.003300
   Hessian update       SOSCFHessUp     .... L-BFGS
 Level Shifting         CNVShift        .... on
   Level shift para.    LevelShift      ....    0.2500
   Turn off err/grad.   ShiftErr        ....    0.0010
 Zerner damping         CNVZerner       .... off
 Static damping         CNVDamp         .... on
   Fraction old density DampFac         ....    0.7000
   Max. Damping (<1)    DampMax         ....    0.9800
   Min. Damping (>=0)   DampMin         ....    0.0000
   Turn off err/grad.   DampErr         ....    0.1000

SCF Procedure:
 Maximum # iterations   MaxIter         ....   125
 SCF integral mode      SCFMode         .... Direct
   Integral package                     .... SHARK and LIBINT hybrid scheme
 Reset frequency        DirectResetFreq ....    20
 Integral Threshold     Thresh          ....  2.500e-11 Eh
 Primitive CutOff       TCut            ....  2.500e-12 Eh

Convergence Tolerance:
 Convergence Check Mode ConvCheckMode   .... Total+1el-Energy
 Convergence forced     ConvForced      .... 0
 Energy Change          TolE            ....  1.000e-08 Eh
 1-El. energy change                    ....  1.000e-05 Eh
 Orbital Gradient       TolG            ....  1.000e-05
 Orbital Rotation angle TolX            ....  1.000e-05
 DIIS Error             TolErr          ....  5.000e-07

------------------------------
INITIAL GUESS: MODEL POTENTIAL
------------------------------
Loading Hartree-Fock densities                     ... done
Calculating cut-offs                               ... done
Initializing the effective Hamiltonian             ... done
Setting up the integral package (SHARK)            ... done
Starting the Coulomb interaction                   ... done (   0.2 sec)
Making the grid                                    ... done (   0.3 sec)
Mapping shells                                     ... done
Starting the XC term evaluation                    ... done (   0.2 sec)
  promolecular density results
     # of electrons  =    161.989582156
     EX              =   -136.860760410
     EC              =     -5.964377193
     EX+EC           =   -142.825137602
Transforming the Hamiltonian                       ... done (   0.0 sec)
Diagonalizing the Hamiltonian                      ... done (   0.0 sec)
Back transforming the eigenvectors                 ... done (   0.0 sec)
Now organizing SCF variables                       ... done
                      ------------------
                      INITIAL GUESS DONE (   0.8 sec)
                      ------------------
             **** ENERGY FILE WAS UPDATED (data/geom_opt_P_BP86/82101/82101.en.tmp) ****
Finished Guess after   0.9 sec
Maximum memory used throughout the entire GUESS-calculation: 30.2 MB


           ************************************************************
           *        Program running with 6 parallel MPI-processes     *
           *              working on a common directory               *
           ************************************************************

-------------------------------------------------------------------------------------------
                                      ORCA LEAN-SCF
                              memory conserving SCF solver
-------------------------------------------------------------------------------------------

----------------------------------------D-I-I-S--------------------------------------------
Iteration    Energy (Eh)           Delta-E    RMSDP     MaxDP     DIISErr   Damp  Time(sec)
-------------------------------------------------------------------------------------------
               ***  Starting incremental Fock matrix formation  ***
    1    -1153.1688832337742951     0.00e+00  1.93e-03  7.10e-02  1.31e-01  0.700   1.2
    2    -1153.3607634567126752    -1.92e-01  1.40e-03  4.71e-02  6.54e-02  0.700   1.2
                               ***Turning on AO-DIIS***
    3    -1153.4355919438564797    -7.48e-02  6.20e-04  4.01e-02  2.14e-02  0.700   1.2
    4    -1153.4781975053263068    -4.26e-02  1.20e-03  9.49e-02  9.41e-03  0.000   1.0
    5    -1153.5713327272899278    -9.31e-02  1.95e-04  8.86e-03  4.97e-03  0.000   1.1
                              *** Initializing SOSCF ***
---------------------------------------S-O-S-C-F--------------------------------------
Iteration    Energy (Eh)           Delta-E    RMSDP     MaxDP     MaxGrad    Time(sec)
--------------------------------------------------------------------------------------
    6    -1153.5720082394948349    -6.76e-04  7.80e-05  2.08e-03  9.58e-04     1.1
               *** Restarting incremental Fock matrix formation ***
    7    -1153.5720524600985755    -4.42e-05  5.65e-05  1.90e-03  1.73e-04     1.1
    8    -1153.5720546441109491    -2.18e-06  1.33e-05  4.97e-04  1.09e-04     1.1
    9    -1153.5720569571078613    -2.31e-06  1.42e-05  5.91e-04  8.96e-05     0.9
   10    -1153.5720567200435198     2.37e-07  6.53e-06  2.61e-04  1.21e-04     0.9
   11    -1153.5720573972168950    -6.77e-07  5.92e-06  1.82e-04  2.43e-05     1.0
   12    -1153.5720573924033943     4.81e-09  2.23e-06  7.18e-05  2.57e-05     0.9
                 **** Energy Check signals convergence ****

               *****************************************************
               *                     SUCCESS                       *
               *           SCF CONVERGED AFTER  12 CYCLES          *
               *****************************************************

             **** ENERGY FILE WAS UPDATED (data/geom_opt_P_BP86/82101/82101.en.tmp) ****

----------------
TOTAL SCF ENERGY
----------------

Total Energy       :      -1153.57205739240339 Eh          -31390.29153 eV

Components:
Nuclear Repulsion  :       1770.45245998404494 Eh           48176.46068 eV
Electronic Energy  :      -2924.02451737644833 Eh          -79566.75221 eV
One Electron Energy:      -5087.02553105661627 Eh         -138425.00209 eV
Two Electron Energy:       2163.00101368016794 Eh           58858.24988 eV

Virial components:
Potential Energy   :      -2296.68923444503525 Eh          -62496.09131 eV
Kinetic Energy     :       1143.11717705263163 Eh           31105.79978 eV
Virial Ratio       :          2.00914593932245

DFT components:
N(Alpha)           :       81.000122365246 electrons
N(Beta)            :       81.000122365246 electrons
N(Total)           :      162.000244730492 electrons
E(X)               :     -139.006864824067 Eh       
E(C)               :       -5.966125965276 Eh       
E(XC)              :     -144.972990789343 Eh       

---------------
SCF CONVERGENCE
---------------

  Last Energy change         ...   -4.8135e-09  Tolerance :   1.0000e-08
  Last MAX-Density change    ...    7.1766e-05  Tolerance :   1.0000e-07
  Last RMS-Density change    ...    2.2268e-06  Tolerance :   5.0000e-09
  Last DIIS Error            ...    9.5803e-04  Tolerance :   5.0000e-07
  Last Orbital Gradient      ...    2.5738e-05  Tolerance :   1.0000e-05
  Last Orbital Rotation      ...    5.6967e-05  Tolerance :   1.0000e-05


----------------
ORBITAL ENERGIES
----------------

  NO   OCC          E(Eh)            E(eV) 
   0   2.0000     -76.332400     -2077.1102 
   1   2.0000      -9.926224      -270.1063 
   2   2.0000      -9.926211      -270.1059 
   3   2.0000      -9.926205      -270.1058 
   4   2.0000      -9.916729      -269.8479 
   5   2.0000      -9.916722      -269.8477 
   6   2.0000      -9.916671      -269.8463 
   7   2.0000      -9.914637      -269.7910 
   8   2.0000      -9.914632      -269.7909 
   9   2.0000      -9.914618      -269.7905 
  10   2.0000      -9.914353      -269.7833 
  11   2.0000      -9.914348      -269.7831 
  12   2.0000      -9.914339      -269.7829 
  13   2.0000      -9.913765      -269.7673 
  14   2.0000      -9.913764      -269.7672 
  15   2.0000      -9.913757      -269.7670 
  16   2.0000      -9.912913      -269.7441 
  17   2.0000      -9.912907      -269.7439 
  18   2.0000      -9.912902      -269.7438 
  19   2.0000      -9.912031      -269.7201 
  20   2.0000      -9.912030      -269.7201 
  21   2.0000      -9.912023      -269.7198 
  22   2.0000      -6.303312      -171.5218 
  23   2.0000      -4.524809      -123.1263 
  24   2.0000      -4.524807      -123.1263 
  25   2.0000      -4.520498      -123.0090 
  26   2.0000      -0.779699       -21.2167 
  27   2.0000      -0.775641       -21.1063 
  28   2.0000      -0.775636       -21.1061 
  29   2.0000      -0.724535       -19.7156 
  30   2.0000      -0.697241       -18.9729 
  31   2.0000      -0.697235       -18.9727 
  32   2.0000      -0.668853       -18.2004 
  33   2.0000      -0.668848       -18.2003 
  34   2.0000      -0.668835       -18.1999 
  35   2.0000      -0.644497       -17.5377 
  36   2.0000      -0.611517       -16.6402 
  37   2.0000      -0.611511       -16.6401 
  38   2.0000      -0.543632       -14.7930 
  39   2.0000      -0.542946       -14.7743 
  40   2.0000      -0.542939       -14.7741 
  41   2.0000      -0.534722       -14.5505 
  42   2.0000      -0.521288       -14.1850 
  43   2.0000      -0.521282       -14.1848 
  44   2.0000      -0.487842       -13.2749 
  45   2.0000      -0.460672       -12.5355 
  46   2.0000      -0.460667       -12.5354 
  47   2.0000      -0.456306       -12.4167 
  48   2.0000      -0.420099       -11.4315 
  49   2.0000      -0.417918       -11.3721 
  50   2.0000      -0.417913       -11.3720 
  51   2.0000      -0.407548       -11.0899 
  52   2.0000      -0.407543       -11.0898 
  53   2.0000      -0.403782       -10.9875 
  54   2.0000      -0.384969       -10.4755 
  55   2.0000      -0.384963       -10.4754 
  56   2.0000      -0.376587       -10.2474 
  57   2.0000      -0.374245       -10.1837 
  58   2.0000      -0.374238       -10.1835 
  59   2.0000      -0.370583       -10.0841 
  60   2.0000      -0.354252        -9.6397 
  61   2.0000      -0.354246        -9.6395 
  62   2.0000      -0.352933        -9.6038 
  63   2.0000      -0.337715        -9.1897 
  64   2.0000      -0.337714        -9.1897 
  65   2.0000      -0.329419        -8.9640 
  66   2.0000      -0.314559        -8.5596 
  67   2.0000      -0.314554        -8.5594 
  68   2.0000      -0.305056        -8.3010 
  69   2.0000      -0.299797        -8.1579 
  70   2.0000      -0.299751        -8.1566 
  71   2.0000      -0.299746        -8.1565 
  72   2.0000      -0.289518        -7.8782 
  73   2.0000      -0.289514        -7.8781 
  74   2.0000      -0.233316        -6.3489 
  75   2.0000      -0.230277        -6.2662 
  76   2.0000      -0.230271        -6.2660 
  77   2.0000      -0.229126        -6.2348 
  78   2.0000      -0.214480        -5.8363 
  79   2.0000      -0.214474        -5.8361 
  80   2.0000      -0.193949        -5.2776 
  81   0.0000      -0.043795        -1.1917 
  82   0.0000      -0.043620        -1.1870 
  83   0.0000      -0.043616        -1.1869 
  84   0.0000      -0.038024        -1.0347 
  85   0.0000      -0.036568        -0.9951 
  86   0.0000      -0.036564        -0.9950 
  87   0.0000       0.035467         0.9651 
  88   0.0000       0.037258         1.0138 
  89   0.0000       0.037261         1.0139 
  90   0.0000       0.048699         1.3252 
  91   0.0000       0.048702         1.3253 
*Only the first 10 virtual orbitals were printed.

                    ********************************
                    * MULLIKEN POPULATION ANALYSIS *
                    ********************************

-----------------------
MULLIKEN ATOMIC CHARGES
-----------------------
   0 C :    0.007948
   1 C :    0.006151
   2 C :    0.011005
   3 C :   -0.055968
   4 C :   -0.005027
   5 C :    0.004498
   6 C :   -0.038000
   7 P :    0.106775
   8 C :   -0.038206
   9 C :   -0.055741
  10 C :    0.011124
  11 C :    0.006191
  12 C :    0.007848
  13 C :    0.004539
  14 C :   -0.005267
  15 C :   -0.038287
  16 C :   -0.055567
  17 C :   -0.005199
  18 C :    0.004427
  19 C :    0.007887
  20 C :    0.006243
  21 C :    0.010982
  22 H :   -0.007522
  23 H :   -0.006191
  24 H :   -0.009782
  25 H :   -0.020979
  26 H :   -0.009271
  27 H :    0.020230
  28 H :    0.067393
  29 H :    0.020257
  30 H :    0.067400
  31 H :   -0.009837
  32 H :   -0.006231
  33 H :   -0.007504
  34 H :   -0.009269
  35 H :   -0.020914
  36 H :    0.067393
  37 H :    0.020271
  38 H :   -0.020911
  39 H :   -0.009268
  40 H :   -0.007490
  41 H :   -0.006236
  42 H :   -0.009896
Sum of atomic charges:   -0.0000000

--------------------------------
MULLIKEN REDUCED ORBITAL CHARGES
--------------------------------
  0 C s       :     3.163614  s :     3.163614
      pz      :     0.935159  p :     2.795483
      px      :     0.952266
      py      :     0.908058
      dz2     :     0.008310  d :     0.032954
      dxz     :     0.007899
      dyz     :     0.008578
      dx2y2   :     0.003851
      dxy     :     0.004317

  1 C s       :     3.170723  s :     3.170723
      pz      :     0.846886  p :     2.790106
      px      :     0.968862
      py      :     0.974358
      dz2     :     0.008753  d :     0.033020
      dxz     :     0.005591
      dyz     :     0.006440
      dx2y2   :     0.006596
      dxy     :     0.005640

  2 C s       :     3.219490  s :     3.219490
      pz      :     0.931524  p :     2.737779
      px      :     0.907620
      py      :     0.898634
      dz2     :     0.008204  d :     0.031726
      dxz     :     0.007241
      dyz     :     0.008203
      dx2y2   :     0.003527
      dxy     :     0.004551

  3 C s       :     3.071985  s :     3.071985
      pz      :     0.990559  p :     2.942691
      px      :     0.987112
      py      :     0.965020
      dz2     :     0.010238  d :     0.041291
      dxz     :     0.008724
      dyz     :     0.009600
      dx2y2   :     0.007062
      dxy     :     0.005666

  4 C s       :     3.207053  s :     3.207053
      pz      :     0.822381  p :     2.765917
      px      :     0.986004
      py      :     0.957532
      dz2     :     0.008542  d :     0.032057
      dxz     :     0.005421
      dyz     :     0.006326
      dx2y2   :     0.006250
      dxy     :     0.005517

  5 C s       :     3.172510  s :     3.172510
      pz      :     0.934722  p :     2.790014
      px      :     0.918295
      py      :     0.936996
      dz2     :     0.008313  d :     0.032978
      dxz     :     0.007767
      dyz     :     0.008807
      dx2y2   :     0.003555
      dxy     :     0.004536

  6 C s       :     2.996125  s :     2.996125
      pz      :     0.987663  p :     3.014098
      px      :     1.030641
      py      :     0.995795
      dz2     :     0.007846  d :     0.027777
      dxz     :     0.003361
      dyz     :     0.005246
      dx2y2   :     0.006860
      dxy     :     0.004463

  7 P s       :     5.816661  s :     5.816661
      pz      :     3.312298  p :     8.887793
      px      :     2.780151
      py      :     2.795344
      dz2     :     0.021369  d :     0.188770
      dxz     :     0.041137
      dyz     :     0.035645
      dx2y2   :     0.043375
      dxy     :     0.047244

  8 C s       :     2.996245  s :     2.996245
      pz      :     0.998001  p :     3.014184
      px      :     0.991596
      py      :     1.024587
      dz2     :     0.007734  d :     0.027778
      dxz     :     0.005450
      dyz     :     0.003392
      dx2y2   :     0.005050
      dxy     :     0.006152

  9 C s       :     3.071945  s :     3.071945
      pz      :     0.991409  p :     2.942506
      px      :     0.965998
      py      :     0.985098
      dz2     :     0.008951  d :     0.041290
      dxz     :     0.010812
      dyz     :     0.005595
      dx2y2   :     0.007497
      dxy     :     0.008435

 10 C s       :     3.219452  s :     3.219452
      pz      :     0.946015  p :     2.737699
      px      :     0.839646
      py      :     0.952038
      dz2     :     0.006897  d :     0.031725
      dxz     :     0.008881
      dyz     :     0.004595
      dx2y2   :     0.005123
      dxy     :     0.006228

 11 C s       :     3.170701  s :     3.170701
      pz      :     0.878737  p :     2.790088
      px      :     0.965143
      py      :     0.946208
      dz2     :     0.006142  d :     0.033020
      dxz     :     0.008514
      dyz     :     0.004132
      dx2y2   :     0.007000
      dxy     :     0.007232

 12 C s       :     3.163614  s :     3.163614
      pz      :     0.950402  p :     2.795583
      px      :     0.861551
      py      :     0.983631
      dz2     :     0.007243  d :     0.032955
      dxz     :     0.009103
      dyz     :     0.005013
      dx2y2   :     0.006628
      dxy     :     0.004968

 13 C s       :     3.172505  s :     3.172505
      pz      :     0.946751  p :     2.789979
      px      :     0.888319
      py      :     0.954908
      dz2     :     0.007242  d :     0.032977
      dxz     :     0.009447
      dyz     :     0.004705
      dx2y2   :     0.005139
      dxy     :     0.006444

 14 C s       :     3.206909  s :     3.206909
      pz      :     0.861714  p :     2.766300
      px      :     0.943987
      py      :     0.960600
      dz2     :     0.005968  d :     0.032058
      dxz     :     0.008385
      dyz     :     0.004056
      dx2y2   :     0.006693
      dxy     :     0.006955

 15 C s       :     2.996014  s :     2.996014
      pz      :     1.000166  p :     3.014494
      px      :     1.006857
      py      :     1.007471
      dz2     :     0.007808  d :     0.027779
      dxz     :     0.004182
      dyz     :     0.003700
      dx2y2   :     0.005368
      dxy     :     0.006721

 16 C s       :     3.071891  s :     3.071891
      pz      :     0.994561  p :     2.942386
      px      :     0.971783
      py      :     0.976042
      dz2     :     0.009738  d :     0.041290
      dxz     :     0.006856
      dyz     :     0.010830
      dx2y2   :     0.006993
      dxy     :     0.006874

 17 C s       :     3.206902  s :     3.206902
      pz      :     0.854078  p :     2.766239
      px      :     0.955226
      py      :     0.956935
      dz2     :     0.007224  d :     0.032058
      dxz     :     0.004797
      dyz     :     0.008127
      dx2y2   :     0.006091
      dxy     :     0.005820

 18 C s       :     3.172552  s :     3.172552
      pz      :     0.907188  p :     2.790043
      px      :     0.984135
      py      :     0.898720
      dz2     :     0.007010  d :     0.032978
      dxz     :     0.005162
      dyz     :     0.010446
      dx2y2   :     0.005736
      dxy     :     0.004623

 19 C s       :     3.163592  s :     3.163592
      pz      :     0.962201  p :     2.795566
      px      :     0.954512
      py      :     0.878853
      dz2     :     0.009299  d :     0.032955
      dxz     :     0.006019
      dyz     :     0.008768
      dx2y2   :     0.003795
      dxy     :     0.005075

 20 C s       :     3.170721  s :     3.170721
      pz      :     0.865993  p :     2.790016
      px      :     0.959576
      py      :     0.964446
      dz2     :     0.007442  d :     0.033019
      dxz     :     0.004942
      dyz     :     0.008280
      dx2y2   :     0.006261
      dxy     :     0.006095

 21 C s       :     3.219451  s :     3.219451
      pz      :     0.909294  p :     2.737840
      px      :     0.964931
      py      :     0.863616
      dz2     :     0.006731  d :     0.031726
      dxz     :     0.005046
      dyz     :     0.009823
      dx2y2   :     0.005618
      dxy     :     0.004507

 22 H s       :     0.985102  s :     0.985102
      pz      :     0.006178  p :     0.022420
      px      :     0.006703
      py      :     0.009539

 23 H s       :     0.983809  s :     0.983809
      pz      :     0.013083  p :     0.022382
      px      :     0.004803
      py      :     0.004496

 24 H s       :     0.987312  s :     0.987312
      pz      :     0.006114  p :     0.022470
      px      :     0.008638
      py      :     0.007718

 25 H s       :     0.998477  s :     0.998477
      pz      :     0.013039  p :     0.022502
      px      :     0.004887
      py      :     0.004576

 26 H s       :     0.986871  s :     0.986871
      pz      :     0.006057  p :     0.022400
      px      :     0.008746
      py      :     0.007597

 27 H s       :     0.957302  s :     0.957302
      pz      :     0.012774  p :     0.022468
      px      :     0.004848
      py      :     0.004846

 28 H s       :     0.909344  s :     0.909344
      pz      :     0.005455  p :     0.023263
      px      :     0.012875
      py      :     0.004933

 29 H s       :     0.957276  s :     0.957276
      pz      :     0.012285  p :     0.022467
      px      :     0.004408
      py      :     0.005774

 30 H s       :     0.909338  s :     0.909338
      pz      :     0.004930  p :     0.023262
      px      :     0.006601
      py      :     0.011732

 31 H s       :     0.987366  s :     0.987366
      pz      :     0.006002  p :     0.022471
      px      :     0.010047
      py      :     0.006422

 32 H s       :     0.983849  s :     0.983849
      pz      :     0.011183  p :     0.022382
      px      :     0.003897
      py      :     0.007302

 33 H s       :     0.985084  s :     0.985084
      pz      :     0.005861  p :     0.022420
      px      :     0.011777
      py      :     0.004782

 34 H s       :     0.986869  s :     0.986869
      pz      :     0.005919  p :     0.022400
      px      :     0.009967
      py      :     0.006514

 35 H s       :     0.998414  s :     0.998414
      pz      :     0.011268  p :     0.022500
      px      :     0.003852
      py      :     0.007379

 36 H s       :     0.909349  s :     0.909349
      pz      :     0.005816  p :     0.023259
      px      :     0.007466
      py      :     0.009976

 37 H s       :     0.957265  s :     0.957265
      pz      :     0.012939  p :     0.022464
      px      :     0.005108
      py      :     0.004417

 38 H s       :     0.998410  s :     0.998410
      pz      :     0.011810  p :     0.022500
      px      :     0.006658
      py      :     0.004032

 39 H s       :     0.986868  s :     0.986868
      pz      :     0.008425  p :     0.022400
      px      :     0.004730
      py      :     0.009245

 40 H s       :     0.985070  s :     0.985070
      pz      :     0.004357  p :     0.022420
      px      :     0.007083
      py      :     0.010980

 41 H s       :     0.983854  s :     0.983854
      pz      :     0.011736  p :     0.022382
      px      :     0.006577
      py      :     0.004069

 42 H s       :     0.987425  s :     0.987425
      pz      :     0.008587  p :     0.022471
      px      :     0.004707
      py      :     0.009176



                     *******************************
                     * LOEWDIN POPULATION ANALYSIS *
                     *******************************

----------------------
LOEWDIN ATOMIC CHARGES
----------------------
   0 C :   -0.035185
   1 C :   -0.027134
   2 C :   -0.026190
   3 C :   -0.040078
   4 C :   -0.037851
   5 C :   -0.030445
   6 C :   -0.171674
   7 P :    0.492180
   8 C :   -0.171692
   9 C :   -0.040064
  10 C :   -0.026177
  11 C :   -0.027128
  12 C :   -0.035198
  13 C :   -0.030429
  14 C :   -0.037892
  15 C :   -0.171738
  16 C :   -0.040034
  17 C :   -0.037883
  18 C :   -0.030445
  19 C :   -0.035191
  20 C :   -0.027116
  21 C :   -0.026196
  22 H :    0.028379
  23 H :    0.030028
  24 H :    0.030082
  25 H :    0.024434
  26 H :    0.028966
  27 H :    0.021711
  28 H :    0.040917
  29 H :    0.021707
  30 H :    0.040924
  31 H :    0.030073
  32 H :    0.030023
  33 H :    0.028385
  34 H :    0.028969
  35 H :    0.024442
  36 H :    0.040919
  37 H :    0.021716
  38 H :    0.024442
  39 H :    0.028970
  40 H :    0.028386
  41 H :    0.030023
  42 H :    0.030064

-------------------------------
[...]
      dz2     :     0.026861  d :     0.085702
      dxz     :     0.016259
      dyz     :     0.024396
      dx2y2   :     0.007809
      dxy     :     0.010377

 20 C s       :     2.872091  s :     2.872091
      pz      :     1.036045  p :     3.070647
      px      :     0.989323
      py      :     1.045279
      dz2     :     0.020501  d :     0.086397
      dxz     :     0.012430
      dyz     :     0.024897
      dx2y2   :     0.014069
      dxy     :     0.014501

 21 C s       :     2.872296  s :     2.872296
      pz      :     1.034977  p :     3.075072
      px      :     1.003259
      py      :     1.036835
      dz2     :     0.019673  d :     0.084991
      dxz     :     0.012888
      dyz     :     0.027033
      dx2y2   :     0.012651
      dxy     :     0.012745

 22 H s       :     0.902272  s :     0.902272
      pz      :     0.015236  p :     0.066002
      px      :     0.020450
      py      :     0.030316

 23 H s       :     0.901458  s :     0.901458
      pz      :     0.039570  p :     0.065664
      px      :     0.012816
      py      :     0.013279

 24 H s       :     0.901455  s :     0.901455
      pz      :     0.022083  p :     0.066603
      px      :     0.022409
      py      :     0.022110

 25 H s       :     0.906403  s :     0.906403
      pz      :     0.039704  p :     0.066267
      px      :     0.013035
      py      :     0.013527

 26 H s       :     0.901946  s :     0.901946
      pz      :     0.021911  p :     0.065725
      px      :     0.022431
      py      :     0.021383

 27 H s       :     0.907572  s :     0.907572
      pz      :     0.041598  p :     0.068091
      px      :     0.012739
      py      :     0.013755

 28 H s       :     0.887626  s :     0.887626
      pz      :     0.014910  p :     0.069316
      px      :     0.039758
      py      :     0.014648

 29 H s       :     0.907542  s :     0.907542
      pz      :     0.040665  p :     0.068092
      px      :     0.012225
      py      :     0.015203

 30 H s       :     0.887536  s :     0.887536
      pz      :     0.012929  p :     0.069330
      px      :     0.020070
      py      :     0.036331

 31 H s       :     0.901429  s :     0.901429
      pz      :     0.021664  p :     0.066611
      px      :     0.027013
      py      :     0.017935

 32 H s       :     0.901455  s :     0.901455
      pz      :     0.034355  p :     0.065666
      px      :     0.012405
      py      :     0.018906

 33 H s       :     0.902263  s :     0.902263
      pz      :     0.014368  p :     0.066004
      px      :     0.038139
      py      :     0.013498

 34 H s       :     0.901930  s :     0.901930
      pz      :     0.021362  p :     0.065724
      px      :     0.026420
      py      :     0.017942

 35 H s       :     0.906382  s :     0.906382
      pz      :     0.034617  p :     0.066258
      px      :     0.012320
      py      :     0.019321

 36 H s       :     0.887789  s :     0.887789
      pz      :     0.017046  p :     0.069262
      px      :     0.022424
      py      :     0.029792

 37 H s       :     0.907540  s :     0.907540
      pz      :     0.039760  p :     0.068108
      px      :     0.015027
      py      :     0.013321

 38 H s       :     0.906419  s :     0.906419
      pz      :     0.033890  p :     0.066271
      px      :     0.019106
      py      :     0.013276

 39 H s       :     0.901911  s :     0.901911
      pz      :     0.029805  p :     0.065723
      px      :     0.013159
      py      :     0.022758

 40 H s       :     0.902246  s :     0.902246
      pz      :     0.011374  p :     0.066006
      px      :     0.020230
      py      :     0.034402

 41 H s       :     0.901434  s :     0.901434
      pz      :     0.033799  p :     0.065668
      px      :     0.018577
      py      :     0.013291

 42 H s       :     0.901413  s :     0.901413
      pz      :     0.030366  p :     0.066600
      px      :     0.013396
      py      :     0.022838



                      *****************************
                      * MAYER POPULATION ANALYSIS *
                      *****************************

  NA   - Mulliken gross atomic population
  ZA   - Total nuclear charge
  QA   - Mulliken gross atomic charge
  VA   - Mayer's total valence
  BVA  - Mayer's bonded valence
  FA   - Mayer's free valence

  ATOM       NA         ZA         QA         VA         BVA        FA
  0 C      6.0008     6.0000    -0.0008     3.8313     3.8313    -0.0000
  1 C      6.0012     6.0000    -0.0012     3.8463     3.8463    -0.0000
  2 C      6.0036     6.0000    -0.0036     3.8395     3.8395    -0.0000
  3 C      6.0299     6.0000    -0.0299     3.9548     3.9548    -0.0000
  4 C      6.0142     6.0000    -0.0142     3.8589     3.8589    -0.0000
  5 C      6.0026     6.0000    -0.0026     3.8482     3.8482    -0.0000
  6 C      6.0886     6.0000    -0.0886     3.8273     3.8273    -0.0000
  7 P     14.8632    15.0000     0.1368     3.1031     3.1031    -0.0000
  8 C      6.0887     6.0000    -0.0887     3.8265     3.8265    -0.0000
  9 C      6.0306     6.0000    -0.0306     3.9558     3.9558    -0.0000
 10 C      6.0036     6.0000    -0.0036     3.8392     3.8392    -0.0000
 11 C      6.0011     6.0000    -0.0011     3.8459     3.8459    -0.0000
 12 C      6.0009     6.0000    -0.0009     3.8312     3.8312    -0.0000
 13 C      6.0026     6.0000    -0.0026     3.8481     3.8481    -0.0000
 14 C      6.0142     6.0000    -0.0142     3.8587     3.8587    -0.0000
 15 C      6.0882     6.0000    -0.0882     3.8271     3.8271    -0.0000
 16 C      6.0311     6.0000    -0.0311     3.9562     3.9562    -0.0000
 17 C      6.0141     6.0000    -0.0141     3.8588     3.8588    -0.0000
 18 C      6.0024     6.0000    -0.0024     3.8478     3.8478    -0.0000
 19 C      6.0009     6.0000    -0.0009     3.8313     3.8313    -0.0000
 20 C      6.0011     6.0000    -0.0011     3.8460     3.8460    -0.0000
 21 C      6.0037     6.0000    -0.0037     3.8393     3.8393    -0.0000
 22 H      0.9979     1.0000     0.0021     0.9788     0.9788    -0.0000
 23 H      0.9973     1.0000     0.0027     0.9784     0.9784    -0.0000
 24 H      1.0029     1.0000    -0.0029     0.9909     0.9909    -0.0000
 25 H      1.0136     1.0000    -0.0136     0.9886     0.9886     0.0000
 26 H      0.9994     1.0000     0.0006     0.9783     0.9783    -0.0000
 27 H      0.9715     1.0000     0.0285     0.9946     0.9946    -0.0000
 28 H      0.9219     1.0000     0.0781     0.9871     0.9871    -0.0000
 29 H      0.9714     1.0000     0.0286     0.9947     0.9947     0.0000
 30 H      0.9216     1.0000     0.0784     0.9868     0.9868    -0.0000
 31 H      1.0027     1.0000    -0.0027     0.9909     0.9909     0.0000
 32 H      0.9973     1.0000     0.0027     0.9784     0.9784     0.0000
 33 H      0.9979     1.0000     0.0021     0.9788     0.9788    -0.0000
 34 H      0.9994     1.0000     0.0006     0.9783     0.9783    -0.0000
 35 H      1.0136     1.0000    -0.0136     0.9886     0.9886    -0.0000
 36 H      0.9222     1.0000     0.0778     0.9869     0.9869     0.0000
 37 H      0.9714     1.0000     0.0286     0.9947     0.9947    -0.0000
 38 H      1.0136     1.0000    -0.0136     0.9886     0.9886     0.0000
 39 H      0.9993     1.0000     0.0007     0.9783     0.9783    -0.0000
 40 H      0.9979     1.0000     0.0021     0.9788     0.9788    -0.0000
 41 H      0.9972     1.0000     0.0028     0.9784     0.9784    -0.0000
 42 H      1.0028     1.0000    -0.0028     0.9908     0.9908    -0.0000

  Mayer bond orders larger than 0.100000
B(  0-C ,  1-C ) :   1.3751 B(  0-C ,  5-C ) :   1.3861 B(  0-C , 22-H ) :   0.9764 
B(  1-C ,  2-C ) :   1.3879 B(  1-C , 23-H ) :   0.9742 B(  2-C ,  3-C ) :   1.3642 
B(  2-C , 24-H ) :   0.9764 B(  3-C ,  4-C ) :   1.3859 B(  3-C ,  6-C ) :   1.0479 
B(  4-C ,  5-C ) :   1.3786 B(  4-C , 25-H ) :   0.9713 B(  5-C , 26-H ) :   0.9738 
B(  6-C ,  7-P ) :   0.9471 B(  6-C , 27-H ) :   0.9082 B(  6-C , 28-H ) :   0.9164 
B(  7-P ,  8-C ) :   0.9464 B(  7-P , 15-C ) :   0.9465 B(  8-C ,  9-C ) :   1.0481 
B(  8-C , 29-H ) :   0.9082 B(  8-C , 30-H ) :   0.9163 B(  9-C , 10-C ) :   1.3643 
B(  9-C , 14-C ) :   1.3855 B( 10-C , 11-C ) :   1.3876 B( 10-C , 31-H ) :   0.9764 
B( 11-C , 12-C ) :   1.3751 B( 11-C , 32-H ) :   0.9743 B( 12-C , 13-C ) :   1.3860 
B( 12-C , 33-H ) :   0.9765 B( 13-C , 14-C ) :   1.3785 B( 13-C , 34-H ) :   0.9738 
B( 14-C , 35-H ) :   0.9714 B( 15-C , 16-C ) :   1.0484 B( 15-C , 36-H ) :   0.9166 
B( 15-C , 37-H ) :   0.9081 B( 16-C , 17-C ) :   1.3852 B( 16-C , 21-C ) :   1.3645 
B( 17-C , 18-C ) :   1.3786 B( 17-C , 38-H ) :   0.9714 B( 18-C , 19-C ) :   1.3858 
B( 18-C , 39-H ) :   0.9738 B( 19-C , 20-C ) :   1.3753 B( 19-C , 40-H ) :   0.9764 
B( 20-C , 21-C ) :   1.3875 B( 20-C , 41-H ) :   0.9743 B( 21-C , 42-H ) :   0.9764 


-------
TIMINGS
-------

Total SCF time: 0 days 0 hours 0 min 6 sec 

Total time                  ....       6.280 sec
Sum of individual times     ....       6.173 sec  ( 98.3%)

SCF preparation             ....       0.145 sec  (  2.3%)
Fock matrix formation       ....       5.447 sec  ( 86.7%)
  Startup                   ....       0.025 sec  (  0.5% of F)
  Split-RI-J                ....       1.960 sec  ( 36.0% of F)
  XC integration            ....       3.364 sec  ( 61.8% of F)
    Basis function eval.    ....       0.963 sec  ( 28.6% of XC)
    Density eval.           ....       1.010 sec  ( 30.0% of XC)
    XC-Functional eval.     ....       0.068 sec  (  2.0% of XC)
    XC-Potential eval.      ....       0.766 sec  ( 22.8% of XC)
Diagonalization             ....       0.000 sec  (  0.0%)
Density matrix formation    ....       0.066 sec  (  1.1%)
Total Energy calculation    ....       0.023 sec  (  0.4%)
Population analysis         ....       0.104 sec  (  1.7%)
Orbital Transformation      ....       0.055 sec  (  0.9%)
Orbital Orthonormalization  ....       0.000 sec  (  0.0%)
DIIS solution               ....       0.068 sec  (  1.1%)
SOSCF solution              ....       0.265 sec  (  4.2%)
Finished LeanSCF after   6.3 sec

Maximum memory used throughout the entire LEANSCF-calculation: 44.9 MB


-------------------------------------------------------------------------------
                          DFT DISPERSION CORRECTION                            
                                                                               
                              DFTD3 V3.1  Rev 1                                
                          USING Becke-Johnson damping                          
-------------------------------------------------------------------------------
The BP86 functional is recognized
Active option DFTDOPT                   ...         4   

molecular C6(AA) [au] = 23169.251839 


            DFT-D V3
 parameters
 s6 scaling factor         :     1.0000 
 a1 scaling factor         :     0.3946 
 s8 scaling factor         :     3.2822 
 a2 scaling factor         :     4.8516 
 ad hoc parameters k1-k3   :    16.0000     1.3333    -4.0000 

 Edisp/kcal,au: -59.480009424607  -0.094787418419 
 E6   /kcal   : -21.964393167 
 E8   /kcal   : -37.515616258 
 % E8         :  63.072646794 

-------------------------   ----------------
Dispersion correction           -0.094787418
-------------------------   ----------------


-------------------------   --------------------
FINAL SINGLE POINT ENERGY     -1153.681268697547
-------------------------   --------------------

                                *** OPTIMIZATION RUN DONE ***



           ************************************************************
           *        Program running with 6 parallel MPI-processes     *
           *              working on a common directory               *
           ************************************************************

------------------------------------------------------------------------------
                              ORCA PROPERTY CALCULATIONS
------------------------------------------------------------------------------

GBWName                                 ... data/geom_opt_P_BP86/82101/82101.gbw
Number of atoms                         ...     43
Number of basis functions               ...    417
Max core memory                         ...   1024 MB

Electric properties:
Dipole moment                           ... YES
Quadrupole moment                       ...  NO
Static polarizability (Dipole/Dipole)   ...  NO
Static polarizability (Dipole/Quad.)    ...  NO
Static polarizability (Quad./Quad.)     ...  NO
Static polarizability (Velocity)        ...  NO

Atomic electric properties:
Dipole moment                           ...  NO
Quadrupole moment                       ...  NO
Static polarizability                   ...  NO

Choice of electric origin               ... Center of mass
Position of electric origin             ...    -0.007563    -0.022847     0.136802

General magnetic properties:
Magnetizability                         ...  NO

EPR properties:
g-Tensor (aka g-matrix)                 ...  NO
Zero-Field splitting spin-orbit         ...  NO
Zero-field splitting spin-spin          ...  NO
Hyperfine couplings                     ...  NO (   0 nuclei)
Quadrupole couplings                    ...  NO (   0 nuclei)
Contact density                         ...  NO (   0 nuclei)

NMR properties:
Chemical shifts                         ...  NO (   0 nuclei)
Spin-rotation constants                 ...  NO (   0 nuclei)
Spin-spin couplings                     ...  NO (   0 nuclei,    0 pairs)

Choice of magnetic origin               ... GIAO
Position of magnetic origin             ...     0.000000     0.000000     0.000000

Properties with geometric perturbations:
SCF Hessian                             ...  NO
IR spectrum                             ...  NO
VCD spectrum                            ...  NO
X-ray spectroscopy properties:
SCF XES/XAS/RIXS spectra                ...  NO


-------------
DIPOLE MOMENT
-------------

Method             : SCF
Type of density    : Electron Density
Multiplicity       :   1
Irrep              :   0
Energy             : -1153.5864812791282930 Eh
Relativity type    : 
Basis              : AO
                                X                 Y                 Z
Electronic contribution:     -0.148565813      -0.456247759       2.711352846
Nuclear contribution   :      0.162263221       0.503245305      -3.002504063
                        -----------------------------------------
Total Dipole Moment    :      0.013697408       0.046997546      -0.291151217
                        -----------------------------------------
Magnitude (a.u.)       :      0.295237903
Magnitude (Debye)      :      0.750435111



--------------------
Rotational spectrum 
--------------------
 
Rotational constants in cm-1:             0.007306             0.007253             0.004118 
Rotational constants in MHz :           219.038638           217.450487           123.445875 

Dipole components along the rotational axes: 
x,y,z [a.u.] :    -0.004693    -0.000649    -0.295200 
x,y,z [Debye]:    -0.011928    -0.001650    -0.750338 

 

Dipole moment calculation done in   0.0 sec 

Maximum memory used throughout the entire PROP-calculation: 23.1 MB

--------------------------------
SUGGESTED CITATIONS FOR THIS RUN
--------------------------------

Below you find a list of papers that are relevant to this ORCA run
We neither can nor want to force you to cite these papers, but we appreciate if you do
You receive ORCA, which is the product of decades of hard work by many enthusiastic individuals, for free
The only thing we kindly ask in return is that you cite our papers,
We deeply appreciate it, if you show your appreciation for ORCA by not just citing the generic ORCA reference.

Please note that relegating all ORCA citations to the supporting information does *not* help us.
SI sections are not indexed - citations you put there will not count into any citation statistics
But we need these citations in order to attract the funding resources that allow us to do what we are doing

Therefore, if you are a happy ORCA user, please consider citing a few of the papers listed below in the main body of your paper

In addition to the list printed below, the program has created the file data/geom_opt_P_BP86/82101/82101.bibtex that contains the list in bibtex format
You can import this file easily into all common literature databanks and citation aid programs


List of essential papers. We consider these as the minimum necessary citations

  1. Neese,F.
     Software update: the ORCA program system, version 5.0
     WIRES Comput. Molec. Sci., 2022 12(1)e1606
     doi.org/10.1002/wcms.1606

List of papers to cite with high priority. The work reported in these papers was absolutely
necessary for this run to complete.
Our perspective: the developers of density functionals and basis sets usually get cited in chemistry papers
Good! But without the algorithms to do something with them, the functionals or basis sets would not do anything.
Hence, in our opinion, the algorithm design and method developments papers are equally worthy of getting cited

  1. Neese,F.
     An improvement of the resolution of the identity approximation for the formation of the Coulomb matrix
     J. Comp. Chem., 2003 24(14)1740-1747
     doi.org/10.1002/jcc.10318
  2. Neese,F.
     The SHARK Integral Generation and Digestion System
     J. Comp. Chem., 2022  1-16
     doi.org/10.1002/jcc.26942
  3. Grimme,S.; Antony,J.; Ehrlich,S.; Krieg,H.
     A consistent and accurate ab initio parametrization of density functional dispersion correction (DFT-D) for the 94 elements H-Pu
     J. Chem. Phys., 2010 132 154104-XXXX
     doi.org/10.1063/1.3382344
  4. Grimme,S.; Ehrlich,S.; Goerigk,L.
     Effect of the damping function in dispersion corrected density functional theory
     J. Comput. Chem., 2011 32(7)1456-1465
     doi.org/10.1002/jcc.21759

List of suggested additional citations. These are papers that are important in the 'surrounding' of 
of this run, or papers that preceded the highly important papers. If you like your results we are grateful for a citation.

  1. Neese,F.
     The ORCA program system
     WIRES Comput. Molec. Sci., 2012 2(1)73-78
     doi.org/10.1002/wcms.81
  2. Neese,F.
     Software update: the ORCA program system, version 4.0
     WIRES Comput. Molec. Sci., 2018 8(1)1-6
     doi.org/10.1002/wcms.1327
  3. Neese,F.; Wennmohs,F.; Becker,U.; Riplinger,C.
     The ORCA quantum chemistry program package
     J. Chem. Phys., 2020 152 Art. No. L224108
     doi.org/10.1063/5.0004608

List of optional additional citations

  1. Neese,F.
     Approximate second-order SCF convergence for spin unrestricted wavefunctions
     Chem. Phys. Lett., 2000 325(1-3)93-98
     doi.org/10.1016/s0009-2614(00)00662-x

Timings for individual modules:

Sum of individual times          ...      143.675 sec (=   2.395 min)
Startup calculation              ...       13.524 sec (=   0.225 min)   9.4 %
SCF iterations                   ...       82.147 sec (=   1.369 min)  57.2 %
Property calculations            ...        0.205 sec (=   0.003 min)   0.1 %
SCF Gradient evaluation          ...       47.634 sec (=   0.794 min)  33.2 %
Geometry relaxation              ...        0.165 sec (=   0.003 min)   0.1 %
                             ****ORCA TERMINATED NORMALLY****
TOTAL RUN TIME: 0 days 0 hours 2 minutes 25 seconds 270 msec
