
                                 *****************
                                 * O   R   C   A *
                                 *****************

                                            #,                                       
                                            ###                                      
                                            ####                                     
                                            #####                                    
                                            ######                                   
                                           ########,                                 
                                     ,,################,,,,,                         
                               ,,#################################,,                 
                          ,,##########################################,,             
                       ,#########################################, ''#####,          
                    ,#############################################,,   '####,        
                  ,##################################################,,,,####,       
                ,###########''''           ''''###############################       
              ,#####''   ,,,,##########,,,,          '''####'''          '####       
            ,##' ,,,,###########################,,,                        '##       
           ' ,,###''''                  '''############,,,                           
         ,,##''                                '''############,,,,        ,,,,,,###''
      ,#''                                            '''#######################'''  
     '                                                          ''''####''''         
             ,#######,   #######,   ,#######,      ##                                
            ,#'     '#,  ##    ##  ,#'     '#,    #''#        ,####,   ,####,        
            ##       ##  ##   ,#'  ##            #'  '#       #'       #'  '#        
            ##       ##  #######   ##           ,######,      #####,   #    #        
            '#,     ,#'  ##    ##  '#,     ,#' ,#      #,     #,   #   #,  ,#        
             '#######'   ##     ##  '#######'  #'      '#     '####' # '####'        



                #########################################################
                #                        -***-                          #
                #          Department of theory and spectroscopy        #
                #                                                       #
                #                      Frank Neese                      #
                #                                                       #
                #     Directorship, Architecture, Infrastructure        #
                #                    SHARK, DRIVERS                     #
                #        Core code/Algorithms in most modules           #
                #                                                       #
                #        Max Planck Institute fuer Kohlenforschung      #
                #                Kaiser Wilhelm Platz 1                 #
                #                 D-45470 Muelheim/Ruhr                 #
                #                      Germany                          #
                #                                                       #
                #                  All rights reserved                  #
                #                        -***-                          #
                #########################################################


                         Program Version 6.0.0  -   RELEASE   -


 With contributions from (in alphabetic order):
   Daniel Aravena         : Magnetic Suceptibility
   Michael Atanasov       : Ab Initio Ligand Field Theory (pilot matlab implementation)
   Alexander A. Auer      : GIAO ZORA, VPT2 properties, NMR spectrum
   Ute Becker             : All parallelization in ORCA, NUMFREQ, NUMCALC
   Giovanni Bistoni       : ED, misc. LED, open-shell LED, HFLD
   Martin Brehm           : Molecular dynamics
   Dmytro Bykov           : pre 5.0 version of the SCF Hessian
   Marcos Casanova-Páez   : Triplet and SCS-CIS(D). UHF-(DLPNO)-IP/EA/STEOM-CCSD. UHF-CVS-IP/STEOM-CCSD
   Vijay G. Chilkuri      : MRCI spin determinant printing, contributions to CSF-ICE
   Pauline Colinet        : FMM embedding
   Dipayan Datta          : RHF DLPNO-CCSD density
   Achintya Kumar Dutta   : EOM-CC, STEOM-CC
   Nicolas Foglia         : Exact transition moments, OPA infrastructure, MCD improvements
   Dmitry Ganyushin       : Spin-Orbit,Spin-Spin,Magnetic field MRCI
   Miquel Garcia          : C-PCM and meta-GGA Hessian, CCSD/C-PCM, Gaussian charge scheme
   Tiago L. C. Gouveia    : GS-ROHF, GS-ROCIS
   Yang Guo               : DLPNO-NEVPT2, F12-NEVPT2, CIM, IAO-localization
   Andreas Hansen         : Spin unrestricted coupled pair/coupled cluster methods
   Ingolf Harden          : AUTO-CI MPn and infrastructure 
   Benjamin Helmich-Paris : MC-RPA, TRAH-(SCF,CASSCF), AVAS, COSX integrals, SCF dyn. polar.
   Lee Huntington         : MR-EOM, pCC
   Robert Izsak           : Overlap fitted RIJCOSX, COSX-SCS-MP3, EOM
   Riya Kayal             : Wick's Theorem for AUTO-CI, AUTO-CI UHF-CCSDT
   Emily Kempfer          : AUTO-CI, RHF CISDT and CCSDT
   Christian Kollmar      : KDIIS, OOCD, Brueckner-CCSD(T), CCSD density, CASPT2, CASPT2-K, improved NEVPT2
   Axel Koslowski         : Symmetry handling
   Simone Kossmann        : Meta GGA functionals, TD-DFT gradient, OOMP2, (MP2 Hessian; deprecated post 5.0)
   Lucas Lang             : DCDCAS
   Marvin Lechner         : AUTO-CI (C++ implementation), FIC-MRCC
   Spencer Leger          : CASSCF response
   Dagmar Lenk            : GEPOL surface, SMD, ORCA-2-JSON
   Dimitrios Liakos       : Extrapolation schemes; Compound Job, initial MDCI parallelization
   Dimitrios Manganas     : Further ROCIS development; embedding schemes. LFT, Crystal Embedding
   Dimitrios Pantazis     : SARC Basis sets
   Anastasios Papadopoulos: AUTO-CI, single reference methods and gradients
   Taras Petrenko         : pre 6.0 DFT Hessian and TD-DFT gradient, (ASA, deprecated), ECA, 1-Electron XAS/XES, NRVS
   Peter Pinski           : DLPNO-MP2, DLPNO-MP2 Gradient
   Christoph Reimann      : Effective Core Potentials
   Marius Retegan         : Local ZFS, SOC
   Christoph Riplinger    : Optimizer, TS searches, QM/MM, DLPNO-CCSD(T), (RO)-DLPNO pert. Triples
   Michael Roemelt        : Original ROCIS implementation
   Masaaki Saitow         : Open-shell DLPNO-CCSD energy and density
   Barbara Sandhoefer     : DKH picture change effects
   Kantharuban Sivalingam : CASSCF convergence/infrastructure, NEVPT2 and variants, FIC-MRCI
   Bernardo de Souza      : ESD, SOC TD-DFT
   Georgi Stoychev        : AutoAux, RI-MP2 NMR, DLPNO-MP2 response, X2C
   Van Anh Tran           : RI-MP2 g-tensors
   Willem Van den Heuvel  : Paramagnetic NMR
   Zikuan Wang            : NOTCH, Electric field optimization 
   Frank Wennmohs         : Technical directorship and infrastructure
   Hang Xu                : AUTO-CI-Response properties 


 We gratefully acknowledge several colleagues who have allowed us to
 interface, adapt or use parts of their codes:
   Stefan Grimme, W. Hujo, H. Kruse, P. Pracht,  : VdW corrections, initial TS optimization,
                  C. Bannwarth, S. Ehlert,         DFT functionals, gCP, sTDA/sTD-DF
                  L. Wittmann, M. Mueller
   Ed Valeev, F. Pavosevic, A. Kumar             : LibInt (2-el integral package), F12 methods
   Garnet Chan, S. Sharma, J. Yang, R. Olivares  : DMRG
   Ulf Ekstrom                                   : XCFun DFT Library
   Mihaly Kallay                                 : mrcc  (arbitrary order and MRCC methods)
   Frank Weinhold                                : gennbo (NPA and NBO analysis)
   Simon Mueller                                 : openCOSMO-RS
   Christopher J. Cramer and Donald G. Truhlar   : smd solvation model
   Lars Goerigk                                  : TD-DFT with DH, B97 family of functionals
   V. Asgeirsson, H. Jonsson                     : NEB implementation
   FAccTs GmbH                                   : IRC, NEB, NEB-TS, DLPNO-Multilevel, CI-OPT
                                                   MM, QMMM, 2- and 3-layer-ONIOM, Crystal-QMMM,
                                                   LR-CPCM, SF, NACMEs, symmetry and pop. for TD-DFT,
                                                   nearIR, NL-DFT gradient (VV10), updates on ESD,
                                                   ML-optimized integration grids, MBIS, APM,
                                                   GOAT, DOCKER, SOLVATOR, interface openCOSMO-RS
   S Lehtola, MJT Oliveira, MAL Marques          : LibXC Library
   Liviu Ungur et al                             : ANISO software


 Your calculation uses the libint2 library for the computation of 2-el integrals
 For citations please refer to: http://libint.valeyev.net

 Your ORCA version has been built with support for libXC version: 6.2.2
 For citations please refer to: https://libxc.gitlab.io

 This ORCA versions uses:
   CBLAS   interface :  Fast vector & matrix operations
   LAPACKE interface :  Fast linear algebra routines
   Shared memory     :  Shared parallel matrices


Your calculation utilizes the atom-pairwise dispersion correction
with the Becke-Johnson damping scheme (D3BJ)


Warning: RI is on but no J-basis has been assigned. Assigning Def2/J (nothing to worry about!)
================================================================================

----- Orbital basis set information -----
Your calculation utilizes the basis: def2-SVP
   F. Weigend and R. Ahlrichs, Phys. Chem. Chem. Phys. 7, 3297 (2005).

----- AuxJ basis set information -----
Your calculation utilizes the auxiliary basis: def2/J
   F. Weigend, Phys. Chem. Chem. Phys. 8, 1057 (2006).

================================================================================
                                        WARNINGS
                       Please study these warnings very carefully!
================================================================================


WARNING: Geometry Optimization
  ===> : Switching off AutoStart
         For restart on a previous wavefunction, please use MOREAD

================================================================================
                                       INPUT FILE
================================================================================
NAME = data/geom_opt_P_BP86/80970/80970.inp
|  1> ! RI BP86 def2-SVP D3BJ TIGHTSCF Opt
|  2> %pal
|  3> nprocs 6
|  4> end
|  5> 
|  6> * xyz 0 1
|  7> C      4.347487   -1.500709    0.366468
|  8> C      3.110497   -2.381526    0.490950
|  9> C      1.950506   -1.851809   -0.351575
| 10> C      1.610596   -0.389510   -0.005306
| 11> C      2.874450    0.482624   -0.148946
| 12> C      4.029911   -0.047849    0.698162
| 13> P      0.253404    0.256272   -1.097790
| 14> C     -1.208829   -0.817736   -0.695416
| 15> C     -1.589000   -0.902979    0.787786
| 16> C     -2.767229   -1.852885    1.009128
| 17> C     -3.973497   -1.459863    0.163114
| 18> C     -3.610642   -1.357249   -1.314205
| 19> C     -2.431140   -0.412050   -1.541034
| 20> C     -0.195720    1.879957   -0.420147
| 21> C     -0.666112    2.854679   -1.315217
| 22> C     -1.028082    4.129635   -0.871618
| 23> C     -0.922907    4.452726    0.477399
| 24> C     -0.455708    3.501442    1.379542
| 25> C     -0.093985    2.226204    0.933054
| 26> H      5.133202   -1.869655    1.035203
| 27> H      4.740764   -1.565038   -0.655530
| 28> H      3.353979   -3.403685    0.179633
| 29> H      2.802282   -2.433340    1.542522
| 30> H      1.084436   -2.502180   -0.184136
| 31> H      2.210573   -1.942994   -1.414767
| 32> H      1.290255   -0.359384    1.041202
| 33> H      2.672889    1.517376    0.151826
| 34> H      3.193261    0.521397   -1.199559
| 35> H      3.772759    0.038629    1.761045
| 36> H      4.920142    0.569767    0.533837
| 37> H     -0.923486   -1.825930   -1.022691
| 38> H     -1.868140    0.083212    1.175197
| 39> H     -0.745803   -1.255375    1.391093
| 40> H     -2.462450   -2.876871    0.760225
| 41> H     -3.045774   -1.851744    2.069061
| 42> H     -4.773961   -2.196163    0.296576
| 43> H     -4.364467   -0.495664    0.510713
| 44> H     -4.478697   -1.005487   -1.883128
| 45> H     -3.358986   -2.353152   -1.699166
| 46> H     -2.748378    0.609165   -1.294084
| 47> H     -2.178887   -0.413422   -2.609084
| 48> H     -0.755431    2.629425   -2.376523
| 49> H     -1.389816    4.867450   -1.582684
| 50> H     -1.203117    5.443416    0.824632
| 51> H     -0.371544    3.749125    2.434457
| 52> H      0.260395    1.511748    1.669778
| 53> **                         ****END OF INPUT****
================================================================================

                       *****************************
                       * Geometry Optimization Run *
                       *****************************

Geometry optimization settings:
Update method            Update   .... BFGS
Choice of coordinates    CoordSys .... (2022) Redundant Internals
Initial Hessian          InHess   .... Almloef's Model
Max. no of cycles        MaxIter  .... 138

Convergence Tolerances:
Energy Change            TolE     ....  5.0000e-06 Eh
Max. Gradient            TolMAXG  ....  3.0000e-04 Eh/bohr
RMS Gradient             TolRMSG  ....  1.0000e-04 Eh/bohr
Max. Displacement        TolMAXD  ....  4.0000e-03 bohr
RMS Displacement         TolRMSD  ....  2.0000e-03 bohr
Strict Convergence                .... False

------------------------------------------------------------------------------
                        ORCA OPTIMIZATION COORDINATE SETUP
------------------------------------------------------------------------------

The optimization will be done in redundant internal coordinates (2022)
Making redundant internal coordinates   ...  (2022 redundants) done
Evaluating the initial hessian          ...  (Almloef) done
Evaluating the coordinates              ...  done
Calculating the B-matrix                .... done
Calculating the G-matrix                .... done
Diagonalizing the G-matrix              .... done
Small eigenvalue found = 4.442e-03
Small eigenvalue found = 5.684e-03
Small eigenvalue found = 9.105e-03
Small eigenvalue found = 2.056e-02
Small eigenvalue found = 2.302e-02
The first mode is                       ....  119
The number of degrees of freedom        ....  132

    -----------------------------------------------------------------
                    Redundant Internal Coordinates


    -----------------------------------------------------------------
         Definition                    Initial Value    Approx d2E/dq
    -----------------------------------------------------------------
      1. B(C   1,C   0)                  1.5236         0.382406   
      2. B(C   2,C   1)                  1.5284         0.375767   
      3. B(C   3,C   2)                  1.5407         0.359174   
      4. B(C   4,C   3)                  1.5423         0.357118   
      5. B(C   5,C   0)                  1.5237         0.382314   
      6. B(C   5,C   4)                  1.5278         0.376647   
      7. B(P   6,C   3)                  1.8581         0.376195   
      8. B(C   7,P   6)                  1.8584         0.375824   
      9. B(C   8,C   7)                  1.5335         0.368775   
     10. B(C   9,C   8)                  1.5296         0.374186   
     11. B(C  10,C   9)                  1.5249         0.380654   
     12. B(C  11,C  10)                  1.5247         0.380940   
     13. B(C  12,C  11)                  1.5284         0.375745   
     14. B(C  12,C   7)                  1.5407         0.359201   
     15. B(C  13,P   6)                  1.8158         0.439376   
     16. B(C  14,C  13)                  1.4045         0.592478   
     17. B(C  15,C  14)                  1.3976         0.607570   
     18. B(C  16,C  15)                  1.3911         0.622164   
     19. B(C  17,C  16)                  1.3918         0.620702   
     20. B(C  18,C  17)                  1.3987         0.605091   
     21. B(C  18,C  13)                  1.4005         0.601163   
     22. B(H  19,C   0)                  1.0958         0.352569   
     23. B(H  20,C   0)                  1.0969         0.351031   
     24. B(H  21,C   1)                  1.0959         0.352371   
     25. B(H  22,C   1)                  1.0970         0.350913   
     26. B(H  23,C   2)                  1.0959         0.352321   
     27. B(H  24,C   2)                  1.0983         0.349249   
     28. B(H  25,C   3)                  1.0949         0.353736   
     29. B(H  26,C   4)                  1.0963         0.351904   
     30. B(H  27,C   4)                  1.0986         0.348896   
     31. B(H  28,C   5)                  1.0970         0.351007   
     32. B(H  29,C   5)                  1.0959         0.352399   
     33. B(H  30,C   7)                  1.0977         0.350034   
     34. B(H  31,C   8)                  1.0957         0.352626   
     35. B(H  32,C   8)                  1.0951         0.353476   
     36. B(H  33,C   9)                  1.0970         0.350969   
     37. B(H  34,C   9)                  1.0959         0.352350   
     38. B(H  35,C  10)                  1.0958         0.352559   
     39. B(H  36,C  10)                  1.0970         0.350985   
     40. B(H  37,C  11)                  1.0959         0.352419   
     41. B(H  38,C  11)                  1.0970         0.350993   
     42. B(H  39,C  12)                  1.0975         0.350315   
     43. B(H  40,C  12)                  1.0974         0.350397   
     44. B(H  41,C  14)                  1.0886         0.361934   
     45. B(H  42,C  15)                  1.0867         0.364541   
     46. B(H  43,C  16)                  1.0865         0.364715   
     47. B(H  44,C  17)                  1.0869         0.364271   
     48. B(H  45,C  18)                  1.0857         0.365802   
     49. A(C   1,C   0,H  19)          109.7332         0.324438   
     50. A(C   1,C   0,C   5)          111.3599         0.366253   
     51. A(C   5,C   0,H  20)          109.4788         0.324192   
     52. A(C   1,C   0,H  20)          109.4684         0.324205   
     53. A(H  19,C   0,H  20)          106.9643         0.288720   
     54. A(C   5,C   0,H  19)          109.7335         0.324425   
     55. A(C   0,C   1,H  21)          109.6099         0.324408   
     56. A(C   2,C   1,H  21)          109.5899         0.323476   
     57. A(C   0,C   1,H  22)          109.4944         0.324187   
     58. A(C   2,C   1,H  22)          109.3622         0.323257   
     59. A(H  21,C   1,H  22)          106.8980         0.288679   
     60. A(C   0,C   1,C   2)          111.7633         0.365172   
     61. A(C   1,C   2,H  24)          108.9733         0.323005   
     62. A(H  23,C   2,H  24)          106.6033         0.288458   
     63. A(C   3,C   2,H  23)          110.7661         0.321084   
     64. A(C   3,C   2,H  24)          110.4013         0.320625   
     65. A(C   1,C   2,C   3)          111.8695         0.361282   
     66. A(C   1,C   2,H  23)          108.0515         0.323469   
     67. A(C   2,C   3,H  25)          107.7877         0.321295   
     68. A(C   4,C   3,H  25)          108.2542         0.320993   
     69. A(P   6,C   3,H  25)          109.7989         0.343686   
     70. A(C   4,C   3,P   6)          110.3204         0.384108   
     71. A(C   2,C   3,P   6)          111.0307         0.384491   
     72. A(C   2,C   3,C   4)          109.5718         0.358163   
     73. A(C   5,C   4,H  27)          108.8462         0.323075   
     74. A(H  26,C   4,H  27)          106.4046         0.288359   
     75. A(C   3,C   4,H  27)          110.2939         0.320271   
     76. A(C   5,C   4,H  26)          108.3407         0.323530   
     77. A(C   3,C   4,C   5)          111.8258         0.361072   
     78. A(C   3,C   4,H  26)          110.9489         0.320721   
     79. A(C   0,C   5,H  29)          109.5981         0.324399   
     80. A(C   4,C   5,H  29)          109.6060         0.323605   
     81. A(C   0,C   5,C   4)          111.5926         0.365303   
     82. A(C   0,C   5,H  28)          109.5697         0.324188   
     83. A(C   4,C   5,H  28)          109.4255         0.323395   
     84. A(H  28,C   5,H  29)          106.9352         0.288695   
     85. A(C   7,P   6,C  13)          103.9667         0.424486   
     86. A(C   3,P   6,C   7)          104.2739         0.412902   
     87. A(C   3,P   6,C  13)          105.7842         0.424561   
     88. A(P   6,C   7,C  12)          110.6848         0.384431   
     89. A(C   8,C   7,H  30)          107.5626         0.322130   
     90. A(P   6,C   7,H  30)          105.1717         0.343024   
     91. A(C   8,C   7,C  12)          110.4144         0.360131   
     92. A(P   6,C   7,C   8)          115.8874         0.386195   
     93. A(C  12,C   7,H  30)          106.5248         0.320746   
     94. A(C   9,C   8,H  32)          108.2740         0.323419   
     95. A(C   7,C   8,H  32)          111.0915         0.322647   
     96. A(C   9,C   8,H  31)          108.1529         0.323291   
     97. A(C   7,C   8,H  31)          110.7993         0.322520   
     98. A(C   7,C   8,C   9)          111.4352         0.362651   
     99. A(H  31,C   8,H  32)          106.9185         0.289041   
    100. A(C   8,C   9,C  10)          111.6543         0.364622   
    101. A(C  10,C   9,H  34)          109.5882         0.324160   
    102. A(H  33,C   9,H  34)          106.9197         0.288684   
    103. A(C   8,C   9,H  34)          109.5784         0.323250   
    104. A(C  10,C   9,H  33)          109.5411         0.323951   
    105. A(C   8,C   9,H  33)          109.4421         0.323041   
    106. A(C   9,C  10,C  11)          111.5094         0.365740   
    107. A(H  35,C  10,H  36)          106.9578         0.288713   
    108. A(C  11,C  10,H  36)          109.4321         0.323993   
    109. A(C   9,C  10,H  36)          109.4313         0.323954   
    110. A(C  11,C  10,H  35)          109.6997         0.324232   
    111. A(C   9,C  10,H  35)          109.7009         0.324192   
    112. A(H  37,C  11,H  38)          106.9147         0.288696   
    113. A(C  12,C  11,H  38)          109.4095         0.323265   
    114. A(C  10,C  11,H  38)          109.4828         0.323995   
    115. A(C  12,C  11,H  37)          109.6172         0.323480   
    116. A(C  10,C  11,H  37)          109.6403         0.324210   
    117. A(C  10,C  11,C  12)          111.6585         0.364928   
    118. A(H  39,C  12,H  40)          106.6540         0.288349   
    119. A(C  11,C  12,H  40)          108.7260         0.323175   
    120. A(C   7,C  12,H  40)          110.5776         0.320801   
    121. A(C  11,C  12,H  39)          108.6006         0.323163   
    122. A(C   7,C  12,H  39)          110.5386         0.320789   
    123. A(C   7,C  12,C  11)          111.5893         0.361283   
    124. A(C  14,C  13,C  18)          117.9389         0.428161   
    125. A(P   6,C  13,C  18)          124.3110         0.432902   
    126. A(P   6,C  13,C  14)          117.7481         0.431771   
    127. A(C  13,C  14,C  15)          121.1698         0.428976   
    128. A(C  15,C  14,H  41)          118.4860         0.352004   
    129. A(C  13,C  14,H  41)          120.3442         0.350511   
    130. A(C  14,C  15,C  16)          120.0047         0.432759   
    131. A(C  16,C  15,H  42)          120.1335         0.353851   
    132. A(C  14,C  15,H  42)          119.8618         0.352432   
    133. A(C  15,C  16,C  17)          119.6827         0.434427   
    134. A(C  17,C  16,H  43)          120.1740         0.353739   
    135. A(C  15,C  16,H  43)          120.1432         0.353880   
    136. A(C  16,C  17,C  18)          120.2024         0.432258   
    137. A(C  18,C  17,H  44)          119.8394         0.352144   
    138. A(C  16,C  17,H  44)          119.9582         0.353666   
    139. A(C  13,C  18,C  17)          121.0008         0.429782   
    140. A(C  17,C  18,H  45)          117.8889         0.352394   
    141. A(C  13,C  18,H  45)          121.1086         0.352006   
    142. D(C   2,C   1,C   0,H  20)    -66.8153         0.011647   
    143. D(H  21,C   1,C   0,H  20)     54.8854         0.011647   
    144. D(C   2,C   1,C   0,H  19)    176.0825         0.011647   
    145. D(H  21,C   1,C   0,C   5)    176.0844         0.011647   
    146. D(C   2,C   1,C   0,C   5)     54.3838         0.011647   
    147. D(H  21,C   1,C   0,H  19)    -62.2168         0.011647   
    148. D(C   3,C   2,C   1,H  21)   -177.1203         0.011267   
    149. D(C   3,C   2,C   1,C   0)    -55.4081         0.011267   
    150. D(H  23,C   2,C   1,H  22)    -56.1819         0.011267   
    151. D(H  23,C   2,C   1,C   0)   -177.5922         0.011267   
    152. D(H  23,C   2,C   1,H  21)     60.6956         0.011267   
    153. D(C   3,C   2,C   1,H  22)     66.0022         0.011267   
    154. D(C   4,C   3,C   2,H  24)    -66.3670         0.010353   
    155. D(C   4,C   3,C   2,C   1)     55.1713         0.010353   
    156. D(C   4,C   3,C   2,H  23)    175.7883         0.010353   
    157. D(P   6,C   3,C   2,H  24)     55.7439         0.010353   
    158. D(P   6,C   3,C   2,H  23)    -62.1008         0.010353   
    159. D(P   6,C   3,C   2,C   1)    177.2822         0.010353   
    160. D(H  26,C   4,C   3,H  25)    -59.2096         0.010244   
    161. D(H  26,C   4,C   3,C   2)   -176.5108         0.010244   
    162. D(H  26,C   4,C   3,P   6)     60.9547         0.010244   
    163. D(C   5,C   4,C   3,H  25)     61.8735         0.010244   
    164. D(C   5,C   4,C   3,C   2)    -55.4277         0.010244   
    165. D(C   5,C   4,C   3,P   6)   -177.9622         0.010244   
    166. D(H  28,C   5,C   0,H  20)   -172.0223         0.011642   
    167. D(H  28,C   5,C   0,C   1)     66.7846         0.011642   
    168. D(C   4,C   5,C   0,H  20)     66.6250         0.011642   
    169. D(H  28,C   5,C   0,H  19)    -54.9139         0.011642   
    170. D(C   4,C   5,C   0,H  19)   -176.2666         0.011642   
    171. D(C   0,C   5,C   4,C   3)     55.8186         0.011317   
    172. D(C   4,C   5,C   0,C   1)    -54.5680         0.011642   
    173. D(H  28,C   5,C   4,H  27)    172.2767         0.011317   
    174. D(H  28,C   5,C   4,C   3)    -65.6177         0.011317   
    175. D(H  28,C   5,C   4,H  26)     56.9652         0.011317   
    176. D(C   0,C   5,C   4,H  27)    -66.2869         0.011317   
    177. D(C   0,C   5,C   4,H  26)    178.4016         0.011317   
    178. D(C  13,P   6,C   3,C   4)    -66.3037         0.003409   
    179. D(C  13,P   6,C   3,C   2)    172.0221         0.003409   
    180. D(C   7,P   6,C   3,H  25)    -56.3860         0.003409   
    181. D(C   7,P   6,C   3,C   4)   -175.6162         0.003409   
    182. D(C   7,P   6,C   3,C   2)     62.7095         0.003409   
    183. D(H  30,C   7,P   6,C   3)    -64.7964         0.003405   
    184. D(C  12,C   7,P   6,C  13)     69.8929         0.003405   
    185. D(C  12,C   7,P   6,C   3)   -179.4664         0.003405   
    186. D(C   8,C   7,P   6,C  13)    -56.8097         0.003405   
    187. D(C   8,C   7,P   6,C   3)     53.8310         0.003405   
    188. D(H  31,C   8,C   7,H  30)    179.0455         0.010876   
    189. D(H  31,C   8,C   7,C  12)    -65.0976         0.010876   
    190. D(H  31,C   8,C   7,P   6)     61.7406         0.010876   
    191. D(C   9,C   8,C   7,H  30)    -60.4791         0.010876   
    192. D(C   9,C   8,C   7,C  12)     55.3778         0.010876   
    193. D(C   9,C   8,C   7,P   6)   -177.7839         0.010876   
    194. D(H  33,C   9,C   8,H  32)    -56.5406         0.011178   
    195. D(H  33,C   9,C   8,H  31)   -172.0581         0.011178   
    196. D(H  33,C   9,C   8,C   7)     65.9238         0.011178   
    197. D(C  10,C   9,C   8,H  31)     66.4899         0.011178   
    198. D(C  10,C   9,C   8,C   7)    -55.5282         0.011178   
    199. D(C  10,C   9,C   8,H  32)   -177.9926         0.011178   
    200. D(H  35,C  10,C   9,H  33)     54.9608         0.011546   
    201. D(H  35,C  10,C   9,C   8)    176.3554         0.011546   
    202. D(C  11,C  10,C   9,H  34)    176.2211         0.011546   
    203. D(C  11,C  10,C   9,H  33)    -66.7725         0.011546   
    204. D(C  11,C  10,C   9,C   8)     54.6222         0.011546   
    205. D(H  35,C  10,C   9,H  34)    -62.0457         0.011546   
    206. D(H  37,C  11,C  10,H  36)    -54.8159         0.011563   
    207. D(H  37,C  11,C  10,H  35)     62.2378         0.011563   
    208. D(H  37,C  11,C  10,C   9)   -176.0283         0.011563   
    209. D(C  12,C  11,C  10,H  36)     66.8707         0.011563   
    210. D(C  12,C  11,C  10,H  35)   -176.0757         0.011563   
    211. D(C  12,C  11,C  10,C   9)    -54.3417         0.011563   
    212. D(H  39,C  12,C  11,H  38)    171.4809         0.011266   
    213. D(H  39,C  12,C  11,H  37)     54.5400         0.011266   
    214. D(H  39,C  12,C  11,C  10)    -67.1599         0.011266   
    215. D(C   7,C  12,C  11,H  38)    -66.4272         0.011266   
    216. D(C   7,C  12,C  11,H  37)    176.6319         0.011266   
    217. D(C   7,C  12,C  11,C  10)     54.9320         0.011266   
    218. D(H  39,C  12,C   7,H  30)   -177.7090         0.010355   
    219. D(H  39,C  12,C   7,C   8)     65.7870         0.010355   
    220. D(H  39,C  12,C   7,P   6)    -63.8921         0.010355   
    221. D(C  11,C  12,C   7,H  30)     61.3220         0.010355   
    222. D(C  11,C  12,C   7,C   8)    -55.1820         0.010355   
    223. D(C  11,C  12,C   7,P   6)    175.1389         0.010355   
    224. D(C  18,C  13,P   6,C   7)     79.5623         0.003907   
    225. D(C  18,C  13,P   6,C   3)    -29.9694         0.003907   
    226. D(C  14,C  13,P   6,C   7)   -100.9528         0.003907   
    227. D(C  14,C  13,P   6,C   3)    149.5155         0.003907   
    228. D(H  41,C  14,C  13,C  18)    179.6583         0.024167   
    229. D(H  41,C  14,C  13,P   6)      0.1398         0.024167   
    230. D(C  15,C  14,C  13,C  18)     -0.2867         0.024167   
    231. D(C  15,C  14,C  13,P   6)   -179.8052         0.024167   
    232. D(H  42,C  15,C  14,H  41)      0.0772         0.025483   
    233. D(H  42,C  15,C  14,C  13)   -179.9768         0.025483   
    234. D(C  16,C  15,C  14,H  41)   -179.8183         0.025483   
    235. D(C  16,C  15,C  14,C  13)      0.1277         0.025483   
    236. D(H  43,C  16,C  15,H  42)      0.0677         0.026797   
    237. D(H  43,C  16,C  15,C  14)    179.9629         0.026797   
    238. D(C  17,C  16,C  15,H  42)   -179.8609         0.026797   
    239. D(C  17,C  16,C  15,C  14)      0.0343         0.026797   
    240. D(H  44,C  17,C  16,H  43)      0.0584         0.026663   
    241. D(H  44,C  17,C  16,C  15)    179.9870         0.026663   
    242. D(C  18,C  17,C  16,H  43)   -179.9577         0.026663   
    243. D(C  18,C  17,C  16,C  15)     -0.0291         0.026663   
    244. D(H  45,C  18,C  17,H  44)      0.3172         0.025264   
    245. D(H  45,C  18,C  17,C  16)   -179.6667         0.025264   
    246. D(C  13,C  18,C  17,H  44)    179.8454         0.025264   
    247. D(C  13,C  18,C  17,C  16)     -0.1385         0.025264   
    248. D(H  45,C  18,C  13,C  14)    179.8045         0.024919   
    249. D(H  45,C  18,C  13,P   6)     -0.7115         0.024919   
    250. D(C  17,C  18,C  13,C  14)      0.2915         0.024919   
    251. D(C  17,C  18,C  13,P   6)    179.7756         0.024919   
    -----------------------------------------------------------------

Number of atoms                         .... 46
Number of degrees of freedom            .... 251


         *************************************************************
         *                GEOMETRY OPTIMIZATION CYCLE   1            *
         *************************************************************
---------------------------------
CARTESIAN COORDINATES (ANGSTROEM)
---------------------------------
  C      4.347487   -1.500709    0.366468
  C      3.110497   -2.381526    0.490950
  C      1.950506   -1.851809   -0.351575
  C      1.610596   -0.389510   -0.005306
  C      2.874450    0.482624   -0.148946
  C      4.029911   -0.047849    0.698162
  P      0.253404    0.256272   -1.097790
  C     -1.208829   -0.817736   -0.695416
  C     -1.589000   -0.902979    0.787786
  C     -2.767229   -1.852885    1.009128
  C     -3.973497   -1.459863    0.163114
  C     -3.610642   -1.357249   -1.314205
  C     -2.431140   -0.412050   -1.541034
  C     -0.195720    1.879957   -0.420147
  C     -0.666112    2.854679   -1.315217
  C     -1.028082    4.129635   -0.871618
  C     -0.922907    4.452726    0.477399
  C     -0.455708    3.501442    1.379542
  C     -0.093985    2.226204    0.933054
  H      5.133202   -1.869655    1.035203
  H      4.740764   -1.565038   -0.655530
  H      3.353979   -3.403685    0.179633
  H      2.802282   -2.433340    1.542522
  H      1.084436   -2.502180   -0.184136
  H      2.210573   -1.942994   -1.414767
  H      1.290255   -0.359384    1.041202
  H      2.672889    1.517376    0.151826
  H      3.193261    0.521397   -1.199559
  H      3.772759    0.038629    1.761045
  H      4.920142    0.569767    0.533837
  H     -0.923486   -1.825930   -1.022691
  H     -1.868140    0.083212    1.175197
  H     -0.745803   -1.255375    1.391093
  H     -2.462450   -2.876871    0.760225
  H     -3.045774   -1.851744    2.069061
  H     -4.773961   -2.196163    0.296576
  H     -4.364467   -0.495664    0.510713
  H     -4.478697   -1.005487   -1.883128
  H     -3.358986   -2.353152   -1.699166
  H     -2.748378    0.609165   -1.294084
  H     -2.178887   -0.413422   -2.609084
  H     -0.755431    2.629425   -2.376523
  H     -1.389816    4.867450   -1.582684
  H     -1.203117    5.443416    0.824632
  H     -0.371544    3.749125    2.434457
  H      0.260395    1.511748    1.669778

----------------------------
CARTESIAN COORDINATES (A.U.)
----------------------------
  NO LB      ZA    FRAG     MASS         X           Y           Z
   0 C     6.0000    0    12.011    8.215560   -2.835929    0.692524
   1 C     6.0000    0    12.011    5.877987   -4.500432    0.927761
   2 C     6.0000    0    12.011    3.685922   -3.499412   -0.664380
   3 C     6.0000    0    12.011    3.043585   -0.736067   -0.010027
   4 C     6.0000    0    12.011    5.431923    0.912027   -0.281467
   5 C     6.0000    0    12.011    7.615428   -0.090422    1.319335
   6 P    15.0000    0    30.974    0.478864    0.484284   -2.074522
   7 C     6.0000    0    12.011   -2.284356   -1.545297   -1.314146
   8 C     6.0000    0    12.011   -3.002775   -1.706383    1.488700
   9 C     6.0000    0    12.011   -5.229305   -3.501445    1.906976
  10 C     6.0000    0    12.011   -7.508821   -2.758741    0.308241
  11 C     6.0000    0    12.011   -6.823125   -2.564829   -2.483488
  12 C     6.0000    0    12.011   -4.594189   -0.778662   -2.912132
  13 C     6.0000    0    12.011   -0.369857    3.552604   -0.793963
  14 C     6.0000    0    12.011   -1.258769    5.394562   -2.485400
  15 C     6.0000    0    12.011   -1.942793    7.803879   -1.647119
  16 C     6.0000    0    12.011   -1.744041    8.414433    0.902153
  17 C     6.0000    0    12.011   -0.861163    6.616766    2.606957
  18 C     6.0000    0    12.011   -0.177606    4.206916    1.763217
  19 H     1.0000    0     1.008    9.700346   -3.533136    1.956250
  20 H     1.0000    0     1.008    8.958746   -2.957493   -1.238772
  21 H     1.0000    0     1.008    6.338102   -6.432032    0.339457
  22 H     1.0000    0     1.008    5.295546   -4.598346    2.914944
  23 H     1.0000    0     1.008    2.049287   -4.728435   -0.347967
  24 H     1.0000    0     1.008    4.177378   -3.671727   -2.673522
  25 H     1.0000    0     1.008    2.438229   -0.679137    1.967587
  26 H     1.0000    0     1.008    5.051028    2.867425    0.286910
  27 H     1.0000    0     1.008    6.034389    0.985298   -2.266838
  28 H     1.0000    0     1.008    7.129481    0.072998    3.327893
  29 H     1.0000    0     1.008    9.297721    1.076704    1.008806
  30 H     1.0000    0     1.008   -1.745136   -3.450508   -1.932606
  31 H     1.0000    0     1.008   -3.530273    0.157248    2.220800
  32 H     1.0000    0     1.008   -1.409363   -2.372315    2.628785
  33 H     1.0000    0     1.008   -4.653356   -5.436498    1.436617
  34 H     1.0000    0     1.008   -5.755679   -3.499289    3.909959
  35 H     1.0000    0     1.008   -9.021479   -4.150147    0.560447
  36 H     1.0000    0     1.008   -8.247647   -0.936669    0.965108
  37 H     1.0000    0     1.008   -8.463511   -1.900095   -3.558596
  38 H     1.0000    0     1.008   -6.347564   -4.446813   -3.210958
  39 H     1.0000    0     1.008   -5.193682    1.151155   -2.445464
  40 H     1.0000    0     1.008   -4.117500   -0.781254   -4.930454
  41 H     1.0000    0     1.008   -1.427558    4.968893   -4.490978
  42 H     1.0000    0     1.008   -2.626372    9.198147   -2.990839
  43 H     1.0000    0     1.008   -2.273562   10.286565    1.558329
  44 H     1.0000    0     1.008   -0.702116    7.084819    4.600457
  45 H     1.0000    0     1.008    0.492075    2.856790    3.155423

--------------------------------
INTERNAL COORDINATES (ANGSTROEM)
--------------------------------
 C      0   0   0     0.000000000000     0.00000000     0.00000000
 C      1   0   0     1.523639923313     0.00000000     0.00000000
 C      2   1   0     1.528406881624   111.76329196     0.00000000
 C      3   2   1     1.540700942384   111.86954641   304.59193879
 C      4   3   2     1.542263627553   109.57177099    55.17129208
 C      1   2   3     1.523705222480   111.35986205    54.38375141
 P      4   3   2     1.858097361993   111.03066599   177.28215179
 C      7   4   3     1.858365778373   104.27388963    62.70950995
 C      8   7   4     1.533520306711   115.88740065    53.83098645
 C      9   8   7     1.529554597339   111.43516368   182.21605365
 C     10   9   8     1.524889657813   111.65425445   304.47180735
 C     11  10   9     1.524685151689   111.50940193    54.62216566
 C     12  11  10     1.528423211302   111.65854128   305.65826830
 C      7   4   3     1.815837377644   105.78421663   172.02205457
 C     14   7   4     1.404457872579   117.74813449   149.51554094
 C     15  14   7     1.397610516430   121.16983132   180.19483008
 C     16  15  14     1.391149323831   120.00465319     0.12772613
 C     17  16  15     1.391789548282   119.68269258     0.03428122
 C     18  17  16     1.398723353461   120.20241162   359.97089554
 H      1   2   3     1.095753490693   109.73318575   176.08252444
 H      1   2   3     1.096943449305   109.46839847   293.18467548
 H      2   1   3     1.095906373781   109.60987125   121.70069236
 H      2   1   3     1.097034570105   109.49439745   238.66625710
 H      3   2   1     1.095945026569   108.05145268   182.40784914
 H      3   2   1     1.098329084372   108.97325351    66.94961018
 H      4   3   2     1.094853837835   107.78765094   297.57788384
 H      5   4   3     1.096267455601   110.94886931   183.48918640
 H      5   4   3     1.098604330512   110.29386261    65.84419817
 H      6   1   2     1.096962108405   109.56973425    66.78463823
 H      6   1   2     1.095884785204   109.59814725   183.83220194
 H      8   7   4     1.097717948705   105.17170314   295.20355795
 H      9   8   7     1.095709409927   110.79927820    61.74064738
 H      9   8   7     1.095054089018   111.09152267   303.04497877
 H     10   9   8     1.096991463251   109.44208627    65.92377783
 H     10   9   8     1.095922708677   109.57841422   182.86719390
 H     11  10   9     1.095761110252   109.70086823   176.35539847
 H     11  10   9     1.096978722356   109.43133171   293.40930308
 H     12  11  10     1.095869229241   109.64030948   183.97170008
 H     12  11  10     1.096972424114   109.48280185    66.97503384
 H     13  12  11     1.097499124086   108.60061323   292.84009678
 H     13  12  11     1.097435310573   108.72604004   177.15821342
 H     15  14   7     1.088617322071   120.34415733     0.13982836
 H     16  15  14     1.086663387318   119.86175369   180.02323085
 H     17  16  15     1.086533513744   120.14322983   179.96286822
 H     18  17  16     1.086865265159   119.95823121   179.98697380
 H     19  18  17     1.085723174899   117.88889503   180.33328149

---------------------------
INTERNAL COORDINATES (A.U.)
---------------------------
 C      0   0   0     0.000000000000     0.00000000     0.00000000
 C      1   0   0     2.879262181770     0.00000000     0.00000000
 C      2   1   0     2.888270427470   111.76329196     0.00000000
 C      3   2   1     2.911502835380   111.86954641   304.59193879
 C      4   3   2     2.914455882383   109.57177099    55.17129208
 C      1   2   3     2.879385579312   111.35986205    54.38375141
 P      4   3   2     3.511295144328   111.03066599   177.28215179
 C      7   4   3     3.511802377777   104.27388963    62.70950995
 C      8   7   4     2.897933400490   115.88740065    53.83098645
 C      9   8   7     2.890439295851   111.43516368   182.21605365
 C     10   9   8     2.881623837715   111.65425445   304.47180735
 C     11  10   9     2.881237377149   111.50940193    54.62216566
 C     12  11  10     2.888301286089   111.65854128   305.65826830
 C      7   4   3     3.431435347485   105.78421663   172.02205457
 C     14   7   4     2.654040745803   117.74813449   149.51554094
 C     15  14   7     2.641101117942   121.16983132   180.19483008
 C     16  15  14     2.628891233430   120.00465319     0.12772613
 C     17  16  15     2.630101082306   119.68269258     0.03428122
 C     18  17  16     2.643204075161   120.20241162   359.97089554
 H      1   2   3     2.070674007698   109.73318575   176.08252444
 H      1   2   3     2.072922703586   109.46839847   293.18467548
 H      2   1   3     2.070962914865   109.60987125   121.70069236
 H      2   1   3     2.073094896942   109.49439745   238.66625710
 H      3   2   1     2.071035958049   108.05145268   182.40784914
 H      3   2   1     2.075541174384   108.97325351    66.94961018
 H      4   3   2     2.068973910180   107.78765094   297.57788384
 H      5   4   3     2.071645260616   110.94886931   183.48918640
 H      5   4   3     2.076061314207   110.29386261    65.84419817
 H      6   1   2     2.072957964175   109.56973425    66.78463823
 H      6   1   2     2.070922118367   109.59814725   183.83220194
 H      8   7   4     2.074386295343   105.17170314   295.20355795
 H      9   8   7     2.070590707122   110.79927820    61.74064738
 H      9   8   7     2.069352330074   111.09152267   303.04497877
 H     10   9   8     2.073013436794   109.44208627    65.92377783
 H     10   9   8     2.070993783346   109.57841422   182.86719390
 H     11  10   9     2.070688406577   109.70086823   176.35539847
 H     11  10   9     2.072989359992   109.43133171   293.40930308
 H     12  11  10     2.070892721857   109.64030948   183.97170008
 H     12  11  10     2.072977458039   109.48280185    66.97503384
 H     13  12  11     2.073972776741   108.60061323   292.84009678
 H     13  12  11     2.073852186678   108.72604004   177.15821342
 H     15  14   7     2.057188603357   120.34415733     0.13982836
 H     16  15  14     2.053496201790   119.86175369   180.02323085
 H     17  16  15     2.053250776303   120.14322983   179.96286822
 H     18  17  16     2.053877695623   119.95823121   179.98697380
 H     19  18  17     2.051719457810   117.88889503   180.33328149

---------------------
BASIS SET INFORMATION
---------------------
There are 3 groups of distinct atoms

 Group   1 Type C   : 7s4p1d contracted to 3s2p1d pattern {511/31/1}
 Group   2 Type P   : 10s7p1d contracted to 4s3p1d pattern {5311/511/1}
 Group   3 Type H   : 4s1p contracted to 2s1p pattern {31/1}

Atom   0C    basis set group =>   1
Atom   1C    basis set group =>   1
Atom   2C    basis set group =>   1
Atom   3C    basis set group =>   1
Atom   4C    basis set group =>   1
Atom   5C    basis set group =>   1
Atom   6P    basis set group =>   2
Atom   7C    basis set group =>   1
Atom   8C    basis set group =>   1
Atom   9C    basis set group =>   1
Atom  10C    basis set group =>   1
Atom  11C    basis set group =>   1
Atom  12C    basis set group =>   1
Atom  13C    basis set group =>   1
Atom  14C    basis set group =>   1
Atom  15C    basis set group =>   1
Atom  16C    basis set group =>   1
Atom  17C    basis set group =>   1
Atom  18C    basis set group =>   1
Atom  19H    basis set group =>   3
Atom  20H    basis set group =>   3
Atom  21H    basis set group =>   3
Atom  22H    basis set group =>   3
Atom  23H    basis set group =>   3
Atom  24H    basis set group =>   3
Atom  25H    basis set group =>   3
Atom  26H    basis set group =>   3
Atom  27H    basis set group =>   3
Atom  28H    basis set group =>   3
Atom  29H    basis set group =>   3
Atom  30H    basis set group =>   3
Atom  31H    basis set group =>   3
Atom  32H    basis set group =>   3
Atom  33H    basis set group =>   3
Atom  34H    basis set group =>   3
Atom  35H    basis set group =>   3
Atom  36H    basis set group =>   3
Atom  37H    basis set group =>   3
Atom  38H    basis set group =>   3
Atom  39H    basis set group =>   3
Atom  40H    basis set group =>   3
Atom  41H    basis set group =>   3
Atom  42H    basis set group =>   3
Atom  43H    basis set group =>   3
Atom  44H    basis set group =>   3
Atom  45H    basis set group =>   3
---------------------------------
AUXILIARY/J BASIS SET INFORMATION
---------------------------------
There are 3 groups of distinct atoms

 Group   1 Type C   : 12s5p4d2f1g contracted to 6s4p3d1f1g pattern {711111/2111/211/2/1}
 Group   2 Type P   : 14s5p5d2f1g contracted to 8s4p3d1f1g pattern {71111111/2111/311/2/1}
 Group   3 Type H   : 5s2p1d contracted to 3s1p1d pattern {311/2/1}

Atom   0C    basis set group =>   1
Atom   1C    basis set group =>   1
Atom   2C    basis set group =>   1
Atom   3C    basis set group =>   1
Atom   4C    basis set group =>   1
Atom   5C    basis set group =>   1
Atom   6P    basis set group =>   2
Atom   7C    basis set group =>   1
Atom   8C    basis set group =>   1
Atom   9C    basis set group =>   1
Atom  10C    basis set group =>   1
Atom  11C    basis set group =>   1
Atom  12C    basis set group =>   1
Atom  13C    basis set group =>   1
Atom  14C    basis set group =>   1
Atom  15C    basis set group =>   1
Atom  16C    basis set group =>   1
Atom  17C    basis set group =>   1
Atom  18C    basis set group =>   1
Atom  19H    basis set group =>   3
Atom  20H    basis set group =>   3
Atom  21H    basis set group =>   3
Atom  22H    basis set group =>   3
Atom  23H    basis set group =>   3
Atom  24H    basis set group =>   3
Atom  25H    basis set group =>   3
Atom  26H    basis set group =>   3
Atom  27H    basis set group =>   3
Atom  28H    basis set group =>   3
Atom  29H    basis set group =>   3
Atom  30H    basis set group =>   3
Atom  31H    basis set group =>   3
Atom  32H    basis set group =>   3
Atom  33H    basis set group =>   3
Atom  34H    basis set group =>   3
Atom  35H    basis set group =>   3
Atom  36H    basis set group =>   3
Atom  37H    basis set group =>   3
Atom  38H    basis set group =>   3
Atom  39H    basis set group =>   3
Atom  40H    basis set group =>   3
Atom  41H    basis set group =>   3
Atom  42H    basis set group =>   3
Atom  43H    basis set group =>   3
Atom  44H    basis set group =>   3
Atom  45H    basis set group =>   3


           ************************************************************
           *        Program running with 6 parallel MPI-processes     *
           *              working on a common directory               *
           ************************************************************
------------------------------------------------------------------------------
                             ORCA STARTUP CALCULATIONS
                           -- RI-GTO INTEGRALS CHOSEN --
------------------------------------------------------------------------------
------------------------------------------------------------------------------
                   ___                                                        
                  /   \      - P O W E R E D   B Y -                         
                 /     \                                                     
                 |  |  |   _    _      __       _____    __    __             
                 |  |  |  | |  | |    /  \     |  _  \  |  |  /  |          
                  \  \/   | |  | |   /    \    | | | |  |  | /  /          
                 / \  \   | |__| |  /  /\  \   | |_| |  |  |/  /          
                |  |  |   |  __  | /  /__\  \  |    /   |      \           
                |  |  |   | |  | | |   __   |  |    \   |  |\   \          
                \     /   | |  | | |  |  |  |  | |\  \  |  | \   \       
                 \___/    |_|  |_| |__|  |__|  |_| \__\ |__|  \__/        
                                                                              
                      - O R C A' S   B I G   F R I E N D -                    
                                      &                                       
                       - I N T E G R A L  F E E D E R -                       
                                                                              
 v1 FN, 2020, v2 2021, v3 2022-2024                                           
------------------------------------------------------------------------------


----------------------
SHARK INTEGRAL PACKAGE
----------------------

Number of atoms                             ...     46
Number of basis functions                   ...    405
Number of shells                            ...    197
Maximum angular momentum                    ...      2
Integral batch strategy                     ... SHARK/LIBINT Hybrid
RI-J (if used) integral strategy            ... SPLIT-RIJ (Revised 2003 algorithm where possible)
Printlevel                                  ...      1
Contraction scheme used                     ... SEGMENTED contraction
Prescreening option                         ... SCHWARTZ
   Thresh                                   ... 2.500e-11
   Tcut                                     ... 2.500e-12
   Tpresel                                  ... 2.500e-12 
Coulomb Range Separation                    ... NOT USED
Exchange Range Separation                   ... NOT USED
Multipole approximations                    ... NOT USED
Finite Nucleus Model                        ... NOT USED
CABS basis                                  ... NOT available
Auxiliary Coulomb fitting basis             ... AVAILABLE
   # of basis functions in Aux-J            ...   1230
   # of shells in Aux-J                     ...    422
   Maximum angular momentum in Aux-J        ...      4
Auxiliary J/K fitting basis                 ... NOT available
Auxiliary Correlation fitting basis         ... NOT available
Auxiliary 'external' fitting basis          ... NOT available

Checking pre-screening integrals            ... done (  0.0 sec) Dimension = 197
Check shell pair data                       ... done (  0.0 sec)
Shell pair information
Shell pair cut-off parameter TPreSel        ...   2.5e-12
Total number of shell pairs                 ...     19503
Shell pairs after pre-screening             ...     15250
Total number of primitive shell pairs       ...     68603
Primitive shell pairs kept                  ...     35010
          la=0 lb=0:   5185 shell pairs
          la=1 lb=0:   5848 shell pairs
          la=1 lb=1:   1671 shell pairs
          la=2 lb=0:   1573 shell pairs
          la=2 lb=1:    856 shell pairs
          la=2 lb=2:    117 shell pairs

Calculating one electron integrals          ... done (  0.0 sec)
Calculating RI/J V-Matrix + Cholesky decomp.... done (  0.1 sec)
Calculating Nuclear repulsion               ... done (  0.0 sec) ENN=   1622.143884862607 Eh

Diagonalization of the overlap matrix:
Smallest eigenvalue                        ... 2.803e-04
Time for diagonalization                   ...    0.023 sec
Threshold for overlap eigenvalues          ... 1.000e-07
Number of eigenvalues below threshold      ... 0
Time for construction of square roots      ...    0.013 sec
Total time needed                          ...    0.037 sec

-------------------
DFT GRID GENERATION
-------------------

General Integration Accuracy     IntAcc      ... 4.388
Radial Grid Type                 RadialGrid  ... OptM3 with GC (2021)
Angular Grid (max. ang.)         AngularGrid ... 4 (Lebedev-302)
Angular grid pruning method      GridPruning ... 4 (adaptive)
Weight generation scheme         WeightScheme... mBecke (2022)
Basis function cutoff            BFCut       ... 1.0000e-11
Integration weight cutoff        WCut        ... 1.0000e-14
Partially contracted basis set               ... off
Rotationally invariant grid construction     ... off
Angular grids for H and He will be reduced by one unit

Total number of grid points                  ...   199086
Total number of batches                      ...     3135
Average number of points per batch           ...       63
Average number of grid points per atom       ...     4328
Initializing property integral containers    ... done (  0.0 sec)

SHARK setup successfully completed in   1.4 seconds

Maximum memory used throughout the entire STARTUP-calculation: 56.0 MB


           ************************************************************
           *        Program running with 6 parallel MPI-processes     *
           *              working on a common directory               *
           ************************************************************
-------------------------------------------------------------------------------
                                 ORCA GUESS
                   Start orbitals & Density for SCF / CASSCF
-------------------------------------------------------------------------------

------------
SCF SETTINGS
------------
Hamiltonian:
 Density Functional     Method          .... DFT(GTOs)
 Exchange Functional    Exchange        .... B88
   X-Alpha parameter    XAlpha          ....  0.666667
   Becke's b parameter  XBeta           ....  0.004200
 Correlation Functional Correlation     .... P86
 LDA part of GGA corr.  LDAOpt          .... PW91-LDA
 Gradients option       PostSCFGGA      .... off
   NL short-range parameter             ....  4.400000
 RI-approximation to the Coulomb term is turned on
   Number of AuxJ basis functions       .... 1230


General Settings:
 Integral files         IntName         .... data/geom_opt_P_BP86/80970/80970
 Hartree-Fock type      HFTyp           .... RHF
 Total Charge           Charge          ....    0
 Multiplicity           Mult            ....    1
 Number of Electrons    NEL             ....  150
 Basis Dimension        Dim             ....  405
 Nuclear Repulsion      ENuc            ....   1622.1438848626 Eh

Convergence Acceleration:
 AO-DIIS                CNVDIIS         .... on
   Start iteration      DIISMaxIt       ....    12
   Startup error        DIISStart       ....  0.200000
   # of expansion vecs  DIISMaxEq       ....     5
   Bias factor          DIISBfac        ....   1.050
   Max. coefficient     DIISMaxC        ....  10.000
 MO-DIIS                CNVKDIIS        .... off
 Trust-Rad. Augm. Hess. CNVTRAH         .... auto
   Auto Start mean grad. ratio tolernc. ....  1.125000
   Auto Start start iteration           ....    50
   Auto Start num. interpolation iter.  ....    10
   Max. Number of Micro iterations      ....    24
   Max. Number of Macro iterations      .... Maxiter - #DIIS iter
   Number of Davidson start vectors     ....     2
   Converg. threshold    (grad. norm)   ....   1.000e-05
   Grad. Scal. Fac. for Micro threshold ....   0.100
   Minimum threshold for Micro iter.    ....   1.000e-02
   NR start threshold (gradient norm)   ....   1.000e-04
   Initial trust radius                 ....   0.400
   Minimum AH scaling param. (alpha)    ....   1.000
   Maximum AH scaling param. (alpha)    .... 1000.000
   Quad. conv. algorithm                .... NR
   White noise on init. David. guess    .... on
   Maximum white noise                  ....   0.010
   Pseudo random numbers                .... off
   Inactive MOs                         .... canonical
   Orbital update algorithm             .... Taylor
   Preconditioner                       .... Diag
   Full preconditioner red. dimension   ....   250
 SOSCF                  CNVSOSCF        .... on
   Start iteration      SOSCFMaxIt      ....   150
   Startup grad/error   SOSCFStart      ....  0.003300
   Hessian update       SOSCFHessUp     .... L-BFGS
 Level Shifting         CNVShift        .... on
   Level shift para.    LevelShift      ....    0.2500
   Turn off err/grad.   ShiftErr        ....    0.0010
 Zerner damping         CNVZerner       .... off
 Static damping         CNVDamp         .... on
   Fraction old density DampFac         ....    0.7000
   Max. Damping (<1)    DampMax         ....    0.9800
   Min. Damping (>=0)   DampMin         ....    0.0000
   Turn off err/grad.   DampErr         ....    0.1000

SCF Procedure:
 Maximum # iterations   MaxIter         ....   125
 SCF integral mode      SCFMode         .... Direct
   Integral package                     .... SHARK and LIBINT hybrid scheme
 Reset frequency        DirectResetFreq ....    20
 Integral Threshold     Thresh          ....  2.500e-11 Eh
 Primitive CutOff       TCut            ....  2.500e-12 Eh

Convergence Tolerance:
 Convergence Check Mode ConvCheckMode   .... Total+1el-Energy
 Convergence forced     ConvForced      .... 0
 Energy Change          TolE            ....  1.000e-08 Eh
 1-El. energy change                    ....  1.000e-05 Eh
 Orbital Gradient       TolG            ....  1.000e-05
 Orbital Rotation angle TolX            ....  1.000e-05
 DIIS Error             TolErr          ....  5.000e-07

------------------------------
INITIAL GUESS: MODEL POTENTIAL
------------------------------
Loading Hartree-Fock densities                     ... done
Calculating cut-offs                               ... done
Initializing the effective Hamiltonian             ... done
Setting up the integral package (SHARK)            ... done
Starting the Coulomb interaction                   ... done (   0.2 sec)
Making the grid                                    ... done (   0.3 sec)
Mapping shells                                     ... done
Starting the XC term evaluation                    ... done (   0.2 sec)
  promolecular density results
     # of electrons  =    149.986381063
     EX              =   -123.302686317
     EC              =     -5.542967532
     EX+EC           =   -128.845653850
Transforming the Hamiltonian                       ... done (   0.0 sec)
Diagonalizing the Hamiltonian                      ... done (   0.0 sec)
Back transforming the eigenvectors                 ... done (   0.0 sec)
Now organizing SCF variables                       ... done
                      ------------------
                      INITIAL GUESS DONE (   0.8 sec)
                      ------------------
             **** ENERGY FILE WAS UPDATED (data/geom_opt_P_BP86/80970/80970.en.tmp) ****
Finished Guess after   0.9 sec
Maximum memory used throughout the entire GUESS-calculation: 31.4 MB


           ************************************************************
           *        Program running with 6 parallel MPI-processes     *
           *              working on a common directory               *
           ************************************************************

-------------------------------------------------------------------------------------------
                                      ORCA LEAN-SCF
                              memory conserving SCF solver
-------------------------------------------------------------------------------------------

----------------------------------------D-I-I-S--------------------------------------------
Iteration    Energy (Eh)           Delta-E    RMSDP     MaxDP     DIISErr   Damp  Time(sec)
-------------------------------------------------------------------------------------------
               ***  Starting incremental Fock matrix formation  ***
    1    -1042.5067193627578490     0.00e+00  2.08e-03  6.53e-02  1.40e-01  0.700   1.3
    2    -1042.7255749059186201    -2.19e-01  1.47e-03  4.84e-02  6.58e-02  0.700   1.2
                               ***Turning on AO-DIIS***
    3    -1042.8013368023011935    -7.58e-02  6.58e-04  3.85e-02  1.97e-02  0.700   1.3
    4    -1042.8468751158811756    -4.55e-02  1.17e-03  7.42e-02  9.89e-03  0.000   1.2
    5    -1042.9500352702752934    -1.03e-01  2.38e-04  1.21e-02  5.97e-03  0.000   1.2
                              *** Initializing SOSCF ***
---------------------------------------S-O-S-C-F--------------------------------------
Iteration    Energy (Eh)           Delta-E    RMSDP     MaxDP     MaxGrad    Time(sec)
--------------------------------------------------------------------------------------
    6    -1042.9510141739601750    -9.79e-04  8.93e-05  2.88e-03  1.37e-03     1.2
               *** Restarting incremental Fock matrix formation ***
    7    -1042.9510856655779207    -7.15e-05  6.65e-05  1.66e-03  2.13e-04     1.2
    8    -1042.9510833788599484     2.29e-06  2.50e-05  1.23e-03  6.26e-04     1.1
    9    -1042.9510914354036686    -8.06e-06  3.06e-05  1.30e-03  3.21e-04     1.0
   10    -1042.9510909166665442     5.19e-07  1.31e-05  5.38e-04  2.20e-04     1.0
   11    -1042.9510933328833744    -2.42e-06  9.10e-06  4.00e-04  2.83e-05     1.0
   12    -1042.9510932567272903     7.62e-08  5.00e-06  2.75e-04  3.50e-05     1.0
   13    -1042.9510934792388070    -2.23e-07  2.16e-06  5.67e-05  1.45e-05     1.0
   14    -1042.9510934897116385    -1.05e-08  1.27e-06  5.81e-05  3.08e-05     1.0
   15    -1042.9510934949248622    -5.21e-09  9.31e-07  2.35e-05  9.16e-06     0.9
                 **** Energy Check signals convergence ****

               *****************************************************
               *                     SUCCESS                       *
               *           SCF CONVERGED AFTER  15 CYCLES          *
               *****************************************************

             **** ENERGY FILE WAS UPDATED (data/geom_opt_P_BP86/80970/80970.en.tmp) ****

----------------
TOTAL SCF ENERGY
----------------

Total Energy       :      -1042.95109349492486 Eh          -28380.14207 eV

Components:
Nuclear Repulsion  :       1622.14388486260668 Eh           44140.77918 eV
Electronic Energy  :      -2665.09497835753155 Eh          -72520.92125 eV
One Electron Energy:      -4642.74924320854370 Eh         -126335.62969 eV
Two Electron Energy:       1977.65426485101193 Eh           53814.70843 eV

Virial components:
Potential Energy   :      -2076.28324493749324 Eh          -56498.53942 eV
Kinetic Energy     :       1033.33215144256837 Eh           28118.39735 eV
Virial Ratio       :          2.00930866424598

DFT components:
N(Alpha)           :       75.000196248761 electrons
N(Beta)            :       75.000196248761 electrons
N(Total)           :      150.000392497521 electrons
E(X)               :     -125.548369655680 Eh       
E(C)               :       -5.520970268938 Eh       
E(XC)              :     -131.069339924618 Eh       

---------------
SCF CONVERGENCE
---------------

  Last Energy change         ...    5.2132e-09  Tolerance :   1.0000e-08
  Last MAX-Density change    ...    2.3539e-05  Tolerance :   1.0000e-07
  Last RMS-Density change    ...    9.3088e-07  Tolerance :   5.0000e-09
  Last DIIS Error            ...    1.3661e-03  Tolerance :   5.0000e-07
  Last Orbital Gradient      ...    9.1621e-06  Tolerance :   1.0000e-05
  Last Orbital Rotation      ...    2.8936e-05  Tolerance :   1.0000e-05


----------------
ORBITAL ENERGIES
----------------

  NO   OCC          E(Eh)            E(eV) 
   0   2.0000     -76.321140     -2076.8038 
   1   2.0000      -9.918696      -269.9014 
   2   2.0000      -9.917537      -269.8699 
   3   2.0000      -9.917479      -269.8683 
   4   2.0000      -9.917271      -269.8627 
   5   2.0000      -9.917178      -269.8601 
   6   2.0000      -9.916533      -269.8426 
   7   2.0000      -9.914132      -269.7773 
   8   2.0000      -9.913774      -269.7675 
   9   2.0000      -9.908765      -269.6312 
  10   2.0000      -9.904832      -269.5242 
  11   2.0000      -9.904587      -269.5175 
  12   2.0000      -9.904485      -269.5147 
  13   2.0000      -9.904321      -269.5103 
  14   2.0000      -9.902996      -269.4742 
  15   2.0000      -9.902851      -269.4703 
  16   2.0000      -9.902481      -269.4602 
  17   2.0000      -9.902090      -269.4496 
  18   2.0000      -9.901488      -269.4332 
  19   2.0000      -6.291012      -171.1871 
  20   2.0000      -4.512588      -122.7938 
  21   2.0000      -4.512120      -122.7810 
  22   2.0000      -4.508545      -122.6837 
  23   2.0000      -0.776365       -21.1260 
  24   2.0000      -0.757067       -20.6009 
  25   2.0000      -0.751406       -20.4468 
  26   2.0000      -0.692782       -18.8516 
  27   2.0000      -0.671605       -18.2753 
  28   2.0000      -0.669388       -18.2150 
  29   2.0000      -0.666145       -18.1267 
  30   2.0000      -0.665081       -18.0978 
  31   2.0000      -0.662209       -18.0196 
  32   2.0000      -0.578848       -15.7513 
  33   2.0000      -0.548340       -14.9211 
  34   2.0000      -0.545435       -14.8420 
  35   2.0000      -0.538981       -14.6664 
  36   2.0000      -0.535692       -14.5769 
  37   2.0000      -0.534499       -14.5444 
  38   2.0000      -0.496823       -13.5193 
  39   2.0000      -0.493940       -13.4408 
  40   2.0000      -0.486273       -13.2322 
  41   2.0000      -0.454511       -12.3679 
  42   2.0000      -0.427156       -11.6235 
  43   2.0000      -0.425779       -11.5860 
  44   2.0000      -0.406623       -11.0648 
  45   2.0000      -0.399315       -10.8659 
  46   2.0000      -0.398654       -10.8479 
  47   2.0000      -0.393618       -10.7109 
  48   2.0000      -0.391349       -10.6492 
  49   2.0000      -0.390781       -10.6337 
  50   2.0000      -0.385704       -10.4955 
  51   2.0000      -0.374864       -10.2006 
  52   2.0000      -0.374464       -10.1897 
  53   2.0000      -0.352305        -9.5867 
  54   2.0000      -0.342973        -9.3328 
  55   2.0000      -0.339682        -9.2432 
  56   2.0000      -0.336743        -9.1632 
  57   2.0000      -0.334236        -9.0950 
  58   2.0000      -0.330306        -8.9881 
  59   2.0000      -0.315251        -8.5784 
  60   2.0000      -0.310959        -8.4616 
  61   2.0000      -0.308470        -8.3939 
  62   2.0000      -0.305055        -8.3010 
  63   2.0000      -0.301223        -8.1967 
  64   2.0000      -0.299849        -8.1593 
  65   2.0000      -0.290735        -7.9113 
  66   2.0000      -0.278300        -7.5729 
  67   2.0000      -0.273292        -7.4367 
  68   2.0000      -0.267954        -7.2914 
  69   2.0000      -0.263498        -7.1701 
  70   2.0000      -0.257623        -7.0103 
  71   2.0000      -0.249431        -6.7874 
  72   2.0000      -0.232233        -6.3194 
  73   2.0000      -0.229993        -6.2584 
  74   2.0000      -0.177287        -4.8242 
  75   0.0000      -0.051751        -1.4082 
  76   0.0000      -0.043136        -1.1738 
  77   0.0000       0.024263         0.6602 
  78   0.0000       0.031691         0.8624 
  79   0.0000       0.037987         1.0337 
  80   0.0000       0.050173         1.3653 
  81   0.0000       0.051478         1.4008 
  82   0.0000       0.058336         1.5874 
  83   0.0000       0.061095         1.6625 
  84   0.0000       0.070527         1.9191 
  85   0.0000       0.075807         2.0628 
*Only the first 10 virtual orbitals were printed.

                    ********************************
                    * MULLIKEN POPULATION ANALYSIS *
                    ********************************

-----------------------
MULLIKEN ATOMIC CHARGES
-----------------------
   0 C :   -0.013186
   1 C :    0.005552
   2 C :    0.026694
   3 C :   -0.246704
   4 C :    0.044104
   5 C :    0.006186
   6 P :    0.203422
   7 C :   -0.237847
   8 C :    0.031044
   9 C :    0.005394
  10 C :   -0.013405
  11 C :   -0.000014
  12 C :    0.041778
  13 C :   -0.102239
  14 C :    0.013583
  15 C :    0.006957
  16 C :    0.011350
  17 C :    0.008201
  18 C :    0.005456
  19 H :    0.010816
  20 H :    0.004303
  21 H :    0.012066
  22 H :    0.000500
  23 H :    0.016617
  24 H :    0.014306
  25 H :    0.018866
  26 H :    0.018316
  27 H :    0.011859
  28 H :   -0.000574
  29 H :    0.012652
  30 H :    0.031393
  31 H :    0.015636
  32 H :    0.010225
  33 H :   -0.000649
  34 H :    0.008892
  35 H :    0.010491
  36 H :    0.004636
  37 H :    0.011516
  38 H :    0.002068
  39 H :    0.014391
  40 H :    0.015032
  41 H :   -0.008002
  42 H :   -0.005113
  43 H :   -0.005149
  44 H :   -0.009193
  45 H :   -0.012225
Sum of atomic charges:   -0.0000000

--------------------------------
MULLIKEN REDUCED ORBITAL CHARGES
--------------------------------
  0 C s       :     2.996636  s :     2.996636
      pz      :     0.986417  p :     2.981851
      px      :     1.009111
      py      :     0.986323
      dz2     :     0.006819  d :     0.034699
      dxz     :     0.007432
      dyz     :     0.004763
      dx2y2   :     0.007518
      dxy     :     0.008167

  1 C s       :     2.981770  s :     2.981770
      pz      :     0.998997  p :     2.977920
      px      :     0.982020
      py      :     0.996903
      dz2     :     0.009118  d :     0.034758
      dxz     :     0.007150
      dyz     :     0.003067
      dx2y2   :     0.008573
      dxy     :     0.006851

  2 C s       :     2.988541  s :     2.988541
      pz      :     1.014063  p :     2.950629
      px      :     0.987025
      py      :     0.949541
      dz2     :     0.009809  d :     0.034136
      dxz     :     0.004643
      dyz     :     0.004385
      dx2y2   :     0.005824
      dxy     :     0.009475

  3 C s       :     3.118240  s :     3.118240
      pz      :     1.020871  p :     3.092600
      px      :     1.035115
      py      :     1.036614
      dz2     :     0.008937  d :     0.035865
      dxz     :     0.006412
      dyz     :     0.004889
      dx2y2   :     0.007658
      dxy     :     0.007969

  4 C s       :     2.980433  s :     2.980433
      pz      :     1.002716  p :     2.941544
      px      :     0.944593
      py      :     0.994235
      dz2     :     0.008983  d :     0.033919
      dxz     :     0.006915
      dyz     :     0.002973
      dx2y2   :     0.008532
      dxy     :     0.006516

  5 C s       :     2.982999  s :     2.982999
      pz      :     1.005275  p :     2.976041
      px      :     0.980245
      py      :     0.990520
      dz2     :     0.009999  d :     0.034774
      dxz     :     0.004733
      dyz     :     0.004510
      dx2y2   :     0.006192
      dxy     :     0.009339

  6 P s       :     5.738503  s :     5.738503
      pz      :     3.313107  p :     8.892776
      px      :     2.813155
      py      :     2.766514
      dz2     :     0.018344  d :     0.165299
      dxz     :     0.031936
      dyz     :     0.029311
      dx2y2   :     0.039343
      dxy     :     0.046365

  7 C s       :     3.132885  s :     3.132885
      pz      :     1.024867  p :     3.068588
      px      :     1.026689
      py      :     1.017032
      dz2     :     0.009367  d :     0.036374
      dxz     :     0.008855
      dyz     :     0.006121
      dx2y2   :     0.005618
      dxy     :     0.006413

  8 C s       :     2.985239  s :     2.985239
      pz      :     0.970644  p :     2.949411
      px      :     0.978461
      py      :     1.000306
      dz2     :     0.006901  d :     0.034306
      dxz     :     0.008496
      dyz     :     0.006120
      dx2y2   :     0.006659
      dxy     :     0.006130

  9 C s       :     2.981128  s :     2.981128
      pz      :     0.983989  p :     2.978716
      px      :     0.982631
      py      :     1.012097
      dz2     :     0.009221  d :     0.034762
      dxz     :     0.006431
      dyz     :     0.002717
      dx2y2   :     0.008598
      dxy     :     0.007794

 10 C s       :     2.995829  s :     2.995829
      pz      :     0.988946  p :     2.982932
      px      :     1.010926
      py      :     0.983060
      dz2     :     0.009477  d :     0.034644
      dxz     :     0.007168
      dyz     :     0.005464
      dx2y2   :     0.004169
      dxy     :     0.008365

 11 C s       :     2.988347  s :     2.988347
      pz      :     1.001615  p :     2.976965
      px      :     0.980856
      py      :     0.994495
      dz2     :     0.007127  d :     0.034702
      dxz     :     0.008338
      dyz     :     0.006225
      dx2y2   :     0.006985
      dxy     :     0.006028

 12 C s       :     2.979085  s :     2.979085
      pz      :     0.977052  p :     2.945077
      px      :     0.947061
      py      :     1.020963
      dz2     :     0.009070  d :     0.034060
      dxz     :     0.006137
      dyz     :     0.002689
      dx2y2   :     0.008323
      dxy     :     0.007841

 13 C s       :     3.071661  s :     3.071661
      pz      :     0.992903  p :     2.995186
      px      :     1.005977
      py      :     0.996305
      dz2     :     0.009434  d :     0.035393
      dxz     :     0.006530
      dyz     :     0.011350
      dx2y2   :     0.004322
      dxy     :     0.003757

 14 C s       :     3.224391  s :     3.224391
      pz      :     0.851884  p :     2.729293
      px      :     0.963510
      py      :     0.913898
      dz2     :     0.009077  d :     0.032733
      dxz     :     0.003041
      dyz     :     0.009110
      dx2y2   :     0.005683
      dxy     :     0.005822

 15 C s       :     3.169761  s :     3.169761
      pz      :     0.909769  p :     2.790420
      px      :     0.969962
      py      :     0.910689
      dz2     :     0.007852  d :     0.032862
      dxz     :     0.005302
      dyz     :     0.011586
      dx2y2   :     0.003842
      dxy     :     0.004280

 16 C s       :     3.168615  s :     3.168615
      pz      :     0.952519  p :     2.786848
      px      :     0.970678
      py      :     0.863652
      dz2     :     0.009538  d :     0.033187
      dxz     :     0.006336
      dyz     :     0.010122
      dx2y2   :     0.004050
      dxy     :     0.003141

 17 C s       :     3.169217  s :     3.169217
      pz      :     0.838409  p :     2.789650
      px      :     0.985136
      py      :     0.966104
      dz2     :     0.009046  d :     0.032933
      dxz     :     0.003106
      dyz     :     0.009351
      dx2y2   :     0.005592
      dxy     :     0.005837

 18 C s       :     3.214522  s :     3.214522
      pz      :     0.918319  p :     2.746992
      px      :     0.953499
      py      :     0.875173
      dz2     :     0.007690  d :     0.033029
      dxz     :     0.005255
      dyz     :     0.011892
      dx2y2   :     0.003889
      dxy     :     0.004303

 19 H s       :     0.967559  s :     0.967559
      pz      :     0.007829  p :     0.021625
      px      :     0.008578
      py      :     0.005219

 20 H s       :     0.973722  s :     0.973722
      pz      :     0.011667  p :     0.021975
      px      :     0.005905
      py      :     0.004403

 21 H s       :     0.966310  s :     0.966310
      pz      :     0.005480  p :     0.021624
      px      :     0.004725
      py      :     0.011419

 22 H s       :     0.977526  s :     0.977526
      pz      :     0.011974  p :     0.021974
      px      :     0.004938
      py      :     0.005062

 23 H s       :     0.961465  s :     0.961465
      pz      :     0.005279  p :     0.021918
      px      :     0.009693
      py      :     0.006947

 24 H s       :     0.963869  s :     0.963869
      pz      :     0.012419  p :     0.021825
      px      :     0.005111
      py      :     0.004295

 25 H s       :     0.959419  s :     0.959419
      pz      :     0.011814  p :     0.021715
      px      :     0.005561
      py      :     0.004340

 26 H s       :     0.959670  s :     0.959670
      pz      :     0.005604  p :     0.022014
      px      :     0.004581
      py      :     0.011829

 27 H s       :     0.966284  s :     0.966284
      pz      :     0.012267  p :     0.021858
      px      :     0.004653
      py      :     0.004938

 28 H s       :     0.978589  s :     0.978589
      pz      :     0.012136  p :     0.021986
      px      :     0.005215
      py      :     0.004635

 29 H s       :     0.965710  s :     0.965710
      pz      :     0.005028  p :     0.021638
      px      :     0.009723
      py      :     0.006886

 30 H s       :     0.946909  s :     0.946909
      pz      :     0.005119  p :     0.021698
      px      :     0.005283
      py      :     0.011295

 31 H s       :     0.962093  s :     0.962093
      pz      :     0.005332  p :     0.022271
      px      :     0.005256
      py      :     0.011684

 32 H s       :     0.967822  s :     0.967822
      pz      :     0.006615  p :     0.021954
      px      :     0.009486
      py      :     0.005853

 33 H s       :     0.978692  s :     0.978692
      pz      :     0.005410  p :     0.021957
      px      :     0.004925
      py      :     0.011622

 34 H s       :     0.969485  s :     0.969485
[...]
      px      :     0.013977
      py      :     0.036441

 22 H s       :     0.913433  s :     0.913433
      pz      :     0.036451  p :     0.063589
      px      :     0.015048
      py      :     0.012091

 23 H s       :     0.910348  s :     0.910348
      pz      :     0.013176  p :     0.065425
      px      :     0.030824
      py      :     0.021425

 24 H s       :     0.910610  s :     0.910610
      pz      :     0.038116  p :     0.064635
      px      :     0.014052
      py      :     0.012468

 25 H s       :     0.915688  s :     0.915688
      pz      :     0.040085  p :     0.071950
      px      :     0.017759
      py      :     0.014106

 26 H s       :     0.906717  s :     0.906717
      pz      :     0.013745  p :     0.065878
      px      :     0.014297
      py      :     0.037836

 27 H s       :     0.910443  s :     0.910443
      pz      :     0.037811  p :     0.064681
      px      :     0.014617
      py      :     0.012253

 28 H s       :     0.914104  s :     0.914104
      pz      :     0.036677  p :     0.063523
      px      :     0.014169
      py      :     0.012678

 29 H s       :     0.908281  s :     0.908281
      pz      :     0.012665  p :     0.063984
      px      :     0.030185
      py      :     0.021134

 30 H s       :     0.907844  s :     0.907844
      pz      :     0.015631  p :     0.069360
      px      :     0.016219
      py      :     0.037510

 31 H s       :     0.905950  s :     0.905950
      pz      :     0.015269  p :     0.065890
      px      :     0.013449
      py      :     0.037172

 32 H s       :     0.911693  s :     0.911693
      pz      :     0.019855  p :     0.065318
      px      :     0.029869
      py      :     0.015595

 33 H s       :     0.914248  s :     0.914248
      pz      :     0.013736  p :     0.063540
      px      :     0.014087
      py      :     0.035717

 34 H s       :     0.909790  s :     0.909790
      pz      :     0.037530  p :     0.064011
      px      :     0.014182
      py      :     0.012298

 35 H s       :     0.909996  s :     0.909996
      pz      :     0.013448  p :     0.063854
      px      :     0.028185
      py      :     0.022221

 36 H s       :     0.911719  s :     0.911719
      pz      :     0.015246  p :     0.063638
      px      :     0.014395
      py      :     0.033996

 37 H s       :     0.909087  s :     0.909087
      pz      :     0.019797  p :     0.063920
      px      :     0.029064
      py      :     0.015059

 38 H s       :     0.913785  s :     0.913785
      pz      :     0.015455  p :     0.063530
      px      :     0.013317
      py      :     0.034757

 39 H s       :     0.908916  s :     0.908916
      pz      :     0.013935  p :     0.065573
      px      :     0.014120
      py      :     0.037518

 40 H s       :     0.909843  s :     0.909843
      pz      :     0.038353  p :     0.065014
      px      :     0.014128
      py      :     0.012533

 41 H s       :     0.904560  s :     0.904560
      pz      :     0.040537  p :     0.067013
      px      :     0.013388
      py      :     0.013088

 42 H s       :     0.901231  s :     0.901231
      pz      :     0.022512  p :     0.065841
      px      :     0.018946
      py      :     0.024383

 43 H s       :     0.901695  s :     0.901695
      pz      :     0.014811  p :     0.065904
      px      :     0.016023
      py      :     0.035070

 44 H s       :     0.902148  s :     0.902148
      pz      :     0.039058  p :     0.065863
      px      :     0.013895
      py      :     0.012910

 45 H s       :     0.904917  s :     0.904917
      pz      :     0.022816  p :     0.068214
      px      :     0.019422
      py      :     0.025977



                      *****************************
                      * MAYER POPULATION ANALYSIS *
                      *****************************

  NA   - Mulliken gross atomic population
  ZA   - Total nuclear charge
  QA   - Mulliken gross atomic charge
  VA   - Mayer's total valence
  BVA  - Mayer's bonded valence
  FA   - Mayer's free valence

  ATOM       NA         ZA         QA         VA         BVA        FA
  0 C      6.0269     6.0000    -0.0269     4.1232     4.1232    -0.0000
  1 C      6.0043     6.0000    -0.0043     4.1193     4.1193    -0.0000
  2 C      5.9822     6.0000     0.0178     4.0492     4.0492    -0.0000
  3 C      6.2774     6.0000    -0.2774     4.0373     4.0373    -0.0000
  4 C      5.9670     6.0000     0.0330     4.0326     4.0326    -0.0000
  5 C      6.0016     6.0000    -0.0016     4.1144     4.1144    -0.0000
  6 P     14.7694    15.0000     0.2306     3.0183     3.0183    -0.0000
  7 C      6.2539     6.0000    -0.2539     4.0315     4.0315    -0.0000
  8 C      5.9819     6.0000     0.0181     4.0310     4.0310    -0.0000
  9 C      6.0043     6.0000    -0.0043     4.1146     4.1146    -0.0000
 10 C      6.0268     6.0000    -0.0268     4.1225     4.1225    -0.0000
 11 C      6.0054     6.0000    -0.0054     4.1208     4.1208    -0.0000
 12 C      5.9761     6.0000     0.0239     4.0441     4.0441    -0.0000
 13 C      6.1261     6.0000    -0.1261     3.7953     3.7953    -0.0000
 14 C      5.9897     6.0000     0.0103     3.8815     3.8815    -0.0000
 15 C      6.0003     6.0000    -0.0003     3.8458     3.8458    -0.0000
 16 C      5.9985     6.0000     0.0015     3.8294     3.8294    -0.0000
 17 C      6.0001     6.0000    -0.0001     3.8527     3.8527    -0.0000
 18 C      6.0009     6.0000    -0.0009     3.9046     3.9046    -0.0000
 19 H      0.9820     1.0000     0.0180     0.9739     0.9739    -0.0000
 20 H      0.9891     1.0000     0.0109     0.9819     0.9819    -0.0000
 21 H      0.9815     1.0000     0.0185     0.9745     0.9745    -0.0000
 22 H      0.9936     1.0000     0.0064     0.9831     0.9831    -0.0000
 23 H      0.9761     1.0000     0.0239     0.9834     0.9834     0.0000
 24 H      0.9819     1.0000     0.0181     0.9902     0.9902    -0.0000
 25 H      0.9697     1.0000     0.0303     0.9814     0.9814    -0.0000
 26 H      0.9747     1.0000     0.0253     0.9924     0.9924    -0.0000
 27 H      0.9835     1.0000     0.0165     0.9914     0.9914    -0.0000
 28 H      0.9949     1.0000     0.0051     0.9829     0.9829    -0.0000
 29 H      0.9807     1.0000     0.0193     0.9746     0.9746     0.0000
 30 H      0.9627     1.0000     0.0373     0.9787     0.9787    -0.0000
 31 H      0.9755     1.0000     0.0245     1.0014     1.0014    -0.0000
 32 H      0.9814     1.0000     0.0186     0.9840     0.9840     0.0000
 33 H      0.9945     1.0000     0.0055     0.9817     0.9817    -0.0000
 34 H      0.9840     1.0000     0.0160     0.9745     0.9745    -0.0000
 35 H      0.9828     1.0000     0.0172     0.9739     0.9739     0.0000
 36 H      0.9881     1.0000     0.0119     0.9826     0.9826     0.0000
 37 H      0.9826     1.0000     0.0174     0.9747     0.9747     0.0000
 38 H      0.9927     1.0000     0.0073     0.9823     0.9823     0.0000
 39 H      0.9775     1.0000     0.0225     0.9998     0.9998    -0.0000
 40 H      0.9796     1.0000     0.0204     0.9842     0.9842    -0.0000
 41 H      0.9992     1.0000     0.0008     0.9949     0.9949    -0.0000
 42 H      0.9970     1.0000     0.0030     0.9788     0.9788    -0.0000
 43 H      0.9965     1.0000     0.0035     0.9787     0.9787    -0.0000
 44 H      1.0006     1.0000    -0.0006     0.9782     0.9782    -0.0000
 45 H      1.0048     1.0000    -0.0048     0.9902     0.9902    -0.0000

  Mayer bond orders larger than 0.100000
B(  0-C ,  1-C ) :   1.1001 B(  0-C ,  5-C ) :   1.0980 B(  0-C , 19-H ) :   0.9324 
B(  0-C , 20-H ) :   0.9280 B(  1-C ,  2-C ) :   1.1022 B(  1-C , 21-H ) :   0.9305 
B(  1-C , 22-H ) :   0.9249 B(  2-C ,  3-C ) :   1.0452 B(  2-C , 23-H ) :   0.9211 
B(  2-C , 24-H ) :   0.9217 B(  3-C ,  4-C ) :   1.0436 B(  3-C ,  6-P ) :   0.9536 
B(  3-C , 25-H ) :   0.8733 B(  4-C ,  5-C ) :   1.0998 B(  4-C , 26-H ) :   0.9234 
B(  4-C , 27-H ) :   0.9200 B(  5-C , 28-H ) :   0.9255 B(  5-C , 29-H ) :   0.9307 
B(  6-P ,  7-C ) :   0.9436 B(  6-P , 13-C ) :   0.9269 B(  7-C ,  8-C ) :   1.0300 
B(  7-C , 12-C ) :   1.0486 B(  7-C , 30-H ) :   0.8951 B(  8-C ,  9-C ) :   1.0953 
B(  8-C , 31-H ) :   0.9177 B(  8-C , 32-H ) :   0.9205 B(  9-C , 10-C ) :   1.1002 
B(  9-C , 33-H ) :   0.9262 B(  9-C , 34-H ) :   0.9294 B( 10-C , 11-C ) :   1.0982 
B( 10-C , 35-H ) :   0.9316 B( 10-C , 36-H ) :   0.9284 B( 11-C , 12-C ) :   1.1000 
B( 11-C , 37-H ) :   0.9305 B( 11-C , 38-H ) :   0.9275 B( 12-C , 39-H ) :   0.9194 
B( 12-C , 40-H ) :   0.9220 B( 13-C , 14-C ) :   1.3794 B( 13-C , 18-C ) :   1.3603 
B( 14-C , 15-C ) :   1.3892 B( 14-C , 41-H ) :   0.9674 B( 15-C , 16-C ) :   1.3803 
B( 15-C , 42-H ) :   0.9758 B( 16-C , 17-C ) :   1.3754 B( 16-C , 43-H ) :   0.9760 
B( 17-C , 18-C ) :   1.3991 B( 17-C , 44-H ) :   0.9733 B( 18-C , 45-H ) :   0.9640 


-------
TIMINGS
-------

Total SCF time: 0 days 0 hours 0 min 7 sec 

Total time                  ....       7.865 sec
Sum of individual times     ....       7.760 sec  ( 98.7%)

SCF preparation             ....       0.139 sec  (  1.8%)
Fock matrix formation       ....       6.992 sec  ( 88.9%)
  Startup                   ....       0.027 sec  (  0.4% of F)
  Split-RI-J                ....       2.518 sec  ( 36.0% of F)
  XC integration            ....       4.335 sec  ( 62.0% of F)
    Basis function eval.    ....       1.259 sec  ( 29.0% of XC)
    Density eval.           ....       1.401 sec  ( 32.3% of XC)
    XC-Functional eval.     ....       0.108 sec  (  2.5% of XC)
    XC-Potential eval.      ....       0.890 sec  ( 20.5% of XC)
Diagonalization             ....       0.000 sec  (  0.0%)
Density matrix formation    ....       0.068 sec  (  0.9%)
Total Energy calculation    ....       0.027 sec  (  0.3%)
Population analysis         ....       0.106 sec  (  1.3%)
Orbital Transformation      ....       0.053 sec  (  0.7%)
Orbital Orthonormalization  ....       0.000 sec  (  0.0%)
DIIS solution               ....       0.067 sec  (  0.9%)
SOSCF solution              ....       0.308 sec  (  3.9%)
Finished LeanSCF after   7.9 sec

Maximum memory used throughout the entire LEANSCF-calculation: 46.8 MB


-------------------------------------------------------------------------------
                          DFT DISPERSION CORRECTION                            
                                                                               
                              DFTD3 V3.1  Rev 1                                
                          USING Becke-Johnson damping                          
-------------------------------------------------------------------------------
The BP86 functional is recognized
Active option DFTDOPT                   ...         4   

molecular C6(AA) [au] = 19822.027807 


            DFT-D V3
 parameters
 s6 scaling factor         :     1.0000 
 a1 scaling factor         :     0.3946 
 s8 scaling factor         :     3.2822 
 a2 scaling factor         :     4.8516 
 ad hoc parameters k1-k3   :    16.0000     1.3333    -4.0000 

 Edisp/kcal,au: -60.715873752514  -0.096756893378 
 E6   /kcal   : -23.154774002 
 E8   /kcal   : -37.561099751 
 % E8         :  61.863722663 

-------------------------   ----------------
Dispersion correction           -0.096756893
-------------------------   ----------------


-------------------------   --------------------
FINAL SINGLE POINT ENERGY     -1043.056599219383
-------------------------   --------------------

                                *** OPTIMIZATION RUN DONE ***



           ************************************************************
           *        Program running with 6 parallel MPI-processes     *
           *              working on a common directory               *
           ************************************************************

------------------------------------------------------------------------------
                              ORCA PROPERTY CALCULATIONS
------------------------------------------------------------------------------

GBWName                                 ... data/geom_opt_P_BP86/80970/80970.gbw
Number of atoms                         ...     46
Number of basis functions               ...    405
Max core memory                         ...   1024 MB

Electric properties:
Dipole moment                           ... YES
Quadrupole moment                       ...  NO
Static polarizability (Dipole/Dipole)   ...  NO
Static polarizability (Dipole/Quad.)    ...  NO
Static polarizability (Quad./Quad.)     ...  NO
Static polarizability (Velocity)        ...  NO

Atomic electric properties:
Dipole moment                           ...  NO
Quadrupole moment                       ...  NO
Static polarizability                   ...  NO

Choice of electric origin               ... Center of mass
Position of electric origin             ...    -0.016515     0.532482    -0.281768

General magnetic properties:
Magnetizability                         ...  NO

EPR properties:
g-Tensor (aka g-matrix)                 ...  NO
Zero-Field splitting spin-orbit         ...  NO
Zero-field splitting spin-spin          ...  NO
Hyperfine couplings                     ...  NO (   0 nuclei)
Quadrupole couplings                    ...  NO (   0 nuclei)
Contact density                         ...  NO (   0 nuclei)

NMR properties:
Chemical shifts                         ...  NO (   0 nuclei)
Spin-rotation constants                 ...  NO (   0 nuclei)
Spin-spin couplings                     ...  NO (   0 nuclei,    0 pairs)

Choice of magnetic origin               ... GIAO
Position of magnetic origin             ...     0.000000     0.000000     0.000000

Properties with geometric perturbations:
SCF Hessian                             ...  NO
IR spectrum                             ...  NO
VCD spectrum                            ...  NO
X-ray spectroscopy properties:
SCF XES/XAS/RIXS spectra                ...  NO


-------------
DIPOLE MOMENT
-------------

Method             : SCF
Type of density    : Electron Density
Multiplicity       :   1
Irrep              :   0
Energy             : -1042.9598423260042637 Eh
Relativity type    : 
Basis              : AO
                                X                 Y                 Z
Electronic contribution:     -0.763421767      13.234636389      -5.785151687
Nuclear contribution   :      0.645761303     -13.310930393       6.240598164
                        -----------------------------------------
Total Dipole Moment    :     -0.117660464      -0.076294004       0.455446477
                        -----------------------------------------
Magnitude (a.u.)       :      0.476546171
Magnitude (Debye)      :      1.211284105



--------------------
Rotational spectrum 
--------------------
 
Rotational constants in cm-1:             0.012849             0.009080             0.006254 
Rotational constants in MHz :           385.209633           272.198575           187.485717 

Dipole components along the rotational axes: 
x,y,z [a.u.] :    -0.041992     0.082875     0.467402 
x,y,z [Debye]:    -0.106736     0.210650     1.188042 

 

Dipole moment calculation done in   0.0 sec 

Maximum memory used throughout the entire PROP-calculation: 24.0 MB

--------------------------------
SUGGESTED CITATIONS FOR THIS RUN
--------------------------------

Below you find a list of papers that are relevant to this ORCA run
We neither can nor want to force you to cite these papers, but we appreciate if you do
You receive ORCA, which is the product of decades of hard work by many enthusiastic individuals, for free
The only thing we kindly ask in return is that you cite our papers,
We deeply appreciate it, if you show your appreciation for ORCA by not just citing the generic ORCA reference.

Please note that relegating all ORCA citations to the supporting information does *not* help us.
SI sections are not indexed - citations you put there will not count into any citation statistics
But we need these citations in order to attract the funding resources that allow us to do what we are doing

Therefore, if you are a happy ORCA user, please consider citing a few of the papers listed below in the main body of your paper

In addition to the list printed below, the program has created the file data/geom_opt_P_BP86/80970/80970.bibtex that contains the list in bibtex format
You can import this file easily into all common literature databanks and citation aid programs


List of essential papers. We consider these as the minimum necessary citations

  1. Neese,F.
     Software update: the ORCA program system, version 5.0
     WIRES Comput. Molec. Sci., 2022 12(1)e1606
     doi.org/10.1002/wcms.1606

List of papers to cite with high priority. The work reported in these papers was absolutely
necessary for this run to complete.
Our perspective: the developers of density functionals and basis sets usually get cited in chemistry papers
Good! But without the algorithms to do something with them, the functionals or basis sets would not do anything.
Hence, in our opinion, the algorithm design and method developments papers are equally worthy of getting cited

  1. Neese,F.
     An improvement of the resolution of the identity approximation for the formation of the Coulomb matrix
     J. Comp. Chem., 2003 24(14)1740-1747
     doi.org/10.1002/jcc.10318
  2. Neese,F.
     The SHARK Integral Generation and Digestion System
     J. Comp. Chem., 2022  1-16
     doi.org/10.1002/jcc.26942
  3. Grimme,S.; Antony,J.; Ehrlich,S.; Krieg,H.
     A consistent and accurate ab initio parametrization of density functional dispersion correction (DFT-D) for the 94 elements H-Pu
     J. Chem. Phys., 2010 132 154104-XXXX
     doi.org/10.1063/1.3382344
  4. Grimme,S.; Ehrlich,S.; Goerigk,L.
     Effect of the damping function in dispersion corrected density functional theory
     J. Comput. Chem., 2011 32(7)1456-1465
     doi.org/10.1002/jcc.21759

List of suggested additional citations. These are papers that are important in the 'surrounding' of 
of this run, or papers that preceded the highly important papers. If you like your results we are grateful for a citation.

  1. Neese,F.
     The ORCA program system
     WIRES Comput. Molec. Sci., 2012 2(1)73-78
     doi.org/10.1002/wcms.81
  2. Neese,F.
     Software update: the ORCA program system, version 4.0
     WIRES Comput. Molec. Sci., 2018 8(1)1-6
     doi.org/10.1002/wcms.1327
  3. Neese,F.; Wennmohs,F.; Becker,U.; Riplinger,C.
     The ORCA quantum chemistry program package
     J. Chem. Phys., 2020 152 Art. No. L224108
     doi.org/10.1063/5.0004608

List of optional additional citations

  1. Neese,F.
     Approximate second-order SCF convergence for spin unrestricted wavefunctions
     Chem. Phys. Lett., 2000 325(1-3)93-98
     doi.org/10.1016/s0009-2614(00)00662-x

Timings for individual modules:

Sum of individual times          ...      162.945 sec (=   2.716 min)
Startup calculation              ...       12.241 sec (=   0.204 min)   7.5 %
SCF iterations                   ...       98.482 sec (=   1.641 min)  60.4 %
Property calculations            ...        0.191 sec (=   0.003 min)   0.1 %
SCF Gradient evaluation          ...       51.833 sec (=   0.864 min)  31.8 %
Geometry relaxation              ...        0.198 sec (=   0.003 min)   0.1 %
                             ****ORCA TERMINATED NORMALLY****
TOTAL RUN TIME: 0 days 0 hours 2 minutes 44 seconds 491 msec
