
                                 *****************
                                 * O   R   C   A *
                                 *****************

                                            #,                                       
                                            ###                                      
                                            ####                                     
                                            #####                                    
                                            ######                                   
                                           ########,                                 
                                     ,,################,,,,,                         
                               ,,#################################,,                 
                          ,,##########################################,,             
                       ,#########################################, ''#####,          
                    ,#############################################,,   '####,        
                  ,##################################################,,,,####,       
                ,###########''''           ''''###############################       
              ,#####''   ,,,,##########,,,,          '''####'''          '####       
            ,##' ,,,,###########################,,,                        '##       
           ' ,,###''''                  '''############,,,                           
         ,,##''                                '''############,,,,        ,,,,,,###''
      ,#''                                            '''#######################'''  
     '                                                          ''''####''''         
             ,#######,   #######,   ,#######,      ##                                
            ,#'     '#,  ##    ##  ,#'     '#,    #''#        ,####,   ,####,        
            ##       ##  ##   ,#'  ##            #'  '#       #'       #'  '#        
            ##       ##  #######   ##           ,######,      #####,   #    #        
            '#,     ,#'  ##    ##  '#,     ,#' ,#      #,     #,   #   #,  ,#        
             '#######'   ##     ##  '#######'  #'      '#     '####' # '####'        



                #########################################################
                #                        -***-                          #
                #          Department of theory and spectroscopy        #
                #                                                       #
                #                      Frank Neese                      #
                #                                                       #
                #     Directorship, Architecture, Infrastructure        #
                #                    SHARK, DRIVERS                     #
                #        Core code/Algorithms in most modules           #
                #                                                       #
                #        Max Planck Institute fuer Kohlenforschung      #
                #                Kaiser Wilhelm Platz 1                 #
                #                 D-45470 Muelheim/Ruhr                 #
                #                      Germany                          #
                #                                                       #
                #                  All rights reserved                  #
                #                        -***-                          #
                #########################################################


                         Program Version 6.0.0  -   RELEASE   -


 With contributions from (in alphabetic order):
   Daniel Aravena         : Magnetic Suceptibility
   Michael Atanasov       : Ab Initio Ligand Field Theory (pilot matlab implementation)
   Alexander A. Auer      : GIAO ZORA, VPT2 properties, NMR spectrum
   Ute Becker             : All parallelization in ORCA, NUMFREQ, NUMCALC
   Giovanni Bistoni       : ED, misc. LED, open-shell LED, HFLD
   Martin Brehm           : Molecular dynamics
   Dmytro Bykov           : pre 5.0 version of the SCF Hessian
   Marcos Casanova-Páez   : Triplet and SCS-CIS(D). UHF-(DLPNO)-IP/EA/STEOM-CCSD. UHF-CVS-IP/STEOM-CCSD
   Vijay G. Chilkuri      : MRCI spin determinant printing, contributions to CSF-ICE
   Pauline Colinet        : FMM embedding
   Dipayan Datta          : RHF DLPNO-CCSD density
   Achintya Kumar Dutta   : EOM-CC, STEOM-CC
   Nicolas Foglia         : Exact transition moments, OPA infrastructure, MCD improvements
   Dmitry Ganyushin       : Spin-Orbit,Spin-Spin,Magnetic field MRCI
   Miquel Garcia          : C-PCM and meta-GGA Hessian, CCSD/C-PCM, Gaussian charge scheme
   Tiago L. C. Gouveia    : GS-ROHF, GS-ROCIS
   Yang Guo               : DLPNO-NEVPT2, F12-NEVPT2, CIM, IAO-localization
   Andreas Hansen         : Spin unrestricted coupled pair/coupled cluster methods
   Ingolf Harden          : AUTO-CI MPn and infrastructure 
   Benjamin Helmich-Paris : MC-RPA, TRAH-(SCF,CASSCF), AVAS, COSX integrals, SCF dyn. polar.
   Lee Huntington         : MR-EOM, pCC
   Robert Izsak           : Overlap fitted RIJCOSX, COSX-SCS-MP3, EOM
   Riya Kayal             : Wick's Theorem for AUTO-CI, AUTO-CI UHF-CCSDT
   Emily Kempfer          : AUTO-CI, RHF CISDT and CCSDT
   Christian Kollmar      : KDIIS, OOCD, Brueckner-CCSD(T), CCSD density, CASPT2, CASPT2-K, improved NEVPT2
   Axel Koslowski         : Symmetry handling
   Simone Kossmann        : Meta GGA functionals, TD-DFT gradient, OOMP2, (MP2 Hessian; deprecated post 5.0)
   Lucas Lang             : DCDCAS
   Marvin Lechner         : AUTO-CI (C++ implementation), FIC-MRCC
   Spencer Leger          : CASSCF response
   Dagmar Lenk            : GEPOL surface, SMD, ORCA-2-JSON
   Dimitrios Liakos       : Extrapolation schemes; Compound Job, initial MDCI parallelization
   Dimitrios Manganas     : Further ROCIS development; embedding schemes. LFT, Crystal Embedding
   Dimitrios Pantazis     : SARC Basis sets
   Anastasios Papadopoulos: AUTO-CI, single reference methods and gradients
   Taras Petrenko         : pre 6.0 DFT Hessian and TD-DFT gradient, (ASA, deprecated), ECA, 1-Electron XAS/XES, NRVS
   Peter Pinski           : DLPNO-MP2, DLPNO-MP2 Gradient
   Christoph Reimann      : Effective Core Potentials
   Marius Retegan         : Local ZFS, SOC
   Christoph Riplinger    : Optimizer, TS searches, QM/MM, DLPNO-CCSD(T), (RO)-DLPNO pert. Triples
   Michael Roemelt        : Original ROCIS implementation
   Masaaki Saitow         : Open-shell DLPNO-CCSD energy and density
   Barbara Sandhoefer     : DKH picture change effects
   Kantharuban Sivalingam : CASSCF convergence/infrastructure, NEVPT2 and variants, FIC-MRCI
   Bernardo de Souza      : ESD, SOC TD-DFT
   Georgi Stoychev        : AutoAux, RI-MP2 NMR, DLPNO-MP2 response, X2C
   Van Anh Tran           : RI-MP2 g-tensors
   Willem Van den Heuvel  : Paramagnetic NMR
   Zikuan Wang            : NOTCH, Electric field optimization 
   Frank Wennmohs         : Technical directorship and infrastructure
   Hang Xu                : AUTO-CI-Response properties 


 We gratefully acknowledge several colleagues who have allowed us to
 interface, adapt or use parts of their codes:
   Stefan Grimme, W. Hujo, H. Kruse, P. Pracht,  : VdW corrections, initial TS optimization,
                  C. Bannwarth, S. Ehlert,         DFT functionals, gCP, sTDA/sTD-DF
                  L. Wittmann, M. Mueller
   Ed Valeev, F. Pavosevic, A. Kumar             : LibInt (2-el integral package), F12 methods
   Garnet Chan, S. Sharma, J. Yang, R. Olivares  : DMRG
   Ulf Ekstrom                                   : XCFun DFT Library
   Mihaly Kallay                                 : mrcc  (arbitrary order and MRCC methods)
   Frank Weinhold                                : gennbo (NPA and NBO analysis)
   Simon Mueller                                 : openCOSMO-RS
   Christopher J. Cramer and Donald G. Truhlar   : smd solvation model
   Lars Goerigk                                  : TD-DFT with DH, B97 family of functionals
   V. Asgeirsson, H. Jonsson                     : NEB implementation
   FAccTs GmbH                                   : IRC, NEB, NEB-TS, DLPNO-Multilevel, CI-OPT
                                                   MM, QMMM, 2- and 3-layer-ONIOM, Crystal-QMMM,
                                                   LR-CPCM, SF, NACMEs, symmetry and pop. for TD-DFT,
                                                   nearIR, NL-DFT gradient (VV10), updates on ESD,
                                                   ML-optimized integration grids, MBIS, APM,
                                                   GOAT, DOCKER, SOLVATOR, interface openCOSMO-RS
   S Lehtola, MJT Oliveira, MAL Marques          : LibXC Library
   Liviu Ungur et al                             : ANISO software


 Your calculation uses the libint2 library for the computation of 2-el integrals
 For citations please refer to: http://libint.valeyev.net

 Your ORCA version has been built with support for libXC version: 6.2.2
 For citations please refer to: https://libxc.gitlab.io

 This ORCA versions uses:
   CBLAS   interface :  Fast vector & matrix operations
   LAPACKE interface :  Fast linear algebra routines
   Shared memory     :  Shared parallel matrices


Your calculation utilizes the atom-pairwise dispersion correction
with the zero-damping scheme (D30)


XCFun DFT library Copyright 2009-2010 Ulf Ekstrom and contributors.
See http://admol.org/xcfun for more information.
This is free software; see the source code for copying conditions.
There is ABSOLUTELY NO WARRANTY; not even for MERCHANTABILITY or FITNESS FOR A PARTICULAR PURPOSE.
For details see the documentation.
Scientific users of this library should cite U. Ekstrom, L. Visscher, R. Bast, A. J. Thorvaldsen and K. Ruud;
J.Chem.Theor.Comp. 2010, DOI: 10.1021/ct100117s
XCFun Version 0.99 

Warning: RI is on but no J-basis has been assigned. Assigning Def2/J (nothing to worry about!)
================================================================================

----- Orbital basis set information -----
Your calculation utilizes the basis: def2-TZVP
   F. Weigend and R. Ahlrichs, Phys. Chem. Chem. Phys. 7, 3297 (2005).

----- AuxJ basis set information -----
Your calculation utilizes the auxiliary basis: def2/J
   F. Weigend, Phys. Chem. Chem. Phys. 8, 1057 (2006).

================================================================================
                                        WARNINGS
                       Please study these warnings very carefully!
================================================================================

WARNING: Functional chosen is sensitive to the integration grid.
         DEFGRID3 seems to be a minimum grid for robust results!

================================================================================
                                       INPUT FILE
================================================================================
NAME = data/single_point_P_M06-2x/13831/13831.inp
|  1> ! RIJCOSX M062X def2-TZVP D3ZERO NormalSCF
|  2> %pal
|  3> nprocs 6
|  4> end
|  5> 
|  6> * xyz 0 1
|  7>   C          -0.82745963216870      4.88810106767774      2.09658185592847
|  8>   C          -0.06539783582728      3.55969451620665      2.08916384645776
|  9>   C          -0.36102353866464      2.69602869596900      0.85476934386293
| 10>   C           0.39391902571641      1.36105575626991      0.84983905631804
| 11>   P           0.11107584641465      0.34520194469817     -0.70337528927779
| 12>   C           1.13887335146212     -1.16175754715122     -0.25582845955100
| 13>   C           2.64773330183256     -0.94652247665589     -0.42675336685878
| 14>   C           3.48053284179419     -2.19991285847935     -0.12180889491081
| 15>   C           4.98734275669512     -1.98269488762861     -0.28909639190597
| 16>   C          -1.59305055892562     -0.33558557216510     -0.30587775662043
| 17>   C          -2.13331748887524     -1.29000663559338     -1.37805761716375
| 18>   C          -3.55888701096651     -1.78397516344667     -1.09388017351872
| 19>   C          -4.09227936354258     -2.74345197207748     -2.16182643168720
| 20>   H          -0.57466335744416      5.50259904921574      1.20688411035023
| 21>   H          -0.59409873962901      5.49181474866648      2.99722855977457
| 22>   H          -1.92559681062897      4.72312756643650      2.08027686282649
| 23>   H          -0.31081227501473      2.97917859542950      3.00681008127719
| 24>   H           1.02965786071494      3.75306341274921      2.14207014910947
| 25>   H          -0.10740771137713      3.26587020876422     -0.06727742548835
| 26>   H          -1.45763063280927      2.51105990458591      0.79862862128874
| 27>   H           0.13259466634281      0.75642807516712      1.74858363611510
| 28>   H           1.48801153177853      1.55297231649255      0.90658826583670
| 29>   H           0.80330733246461     -1.98475931609734     -0.92428258757760
| 30>   H           0.90218046177270     -1.48331074023806      0.78451074319548
| 31>   H           2.85527783419618     -0.60471296225833     -1.46553108985792
| 32>   H           2.98932348806532     -0.11775357802894      0.23381040366384
| 33>   H           3.26139995679120     -2.53848776690949      0.91578695733782
| 34>   H           3.14315103433976     -3.02884224584012     -0.78388880535548
| 35>   H           5.23682484219563     -1.67463924934858     -1.32630899368422
| 36>   H           5.56346442016516     -2.90361287670628     -0.06545688752717
| 37>   H           5.35693788412329     -1.18422962919316      0.38854573230920
| 38>   H          -1.57805999510066     -0.83128857019010      0.69203820986721
| 39>   H          -2.27158312217984      0.54068356391900     -0.21284136378824
| 40>   H          -1.45898331752679     -2.17079182437747     -1.47436237685207
| 41>   H          -2.10564815134721     -0.78358281148069     -2.36899800547273
| 42>   H          -4.23593461202701     -0.90480556172482     -1.00443880413197
| 43>   H          -3.58065038581866     -2.27985793841228     -0.09742663465595
| 44>   H          -3.45249394708578     -3.64720382448946     -2.24681357622996
| 45>   H          -4.11413658178384     -2.26127018971369     -3.16186281931217
| 46>   H          -5.12249736812156     -3.08382522404119     -1.93197868409096
| 47> **                         ****END OF INPUT****
================================================================================

                       ****************************
                       * Single Point Calculation *
                       ****************************

---------------------------------
CARTESIAN COORDINATES (ANGSTROEM)
---------------------------------
  C     -0.827460    4.888101    2.096582
  C     -0.065398    3.559695    2.089164
  C     -0.361024    2.696029    0.854769
  C      0.393919    1.361056    0.849839
  P      0.111076    0.345202   -0.703375
  C      1.138873   -1.161758   -0.255828
  C      2.647733   -0.946522   -0.426753
  C      3.480533   -2.199913   -0.121809
  C      4.987343   -1.982695   -0.289096
  C     -1.593051   -0.335586   -0.305878
  C     -2.133317   -1.290007   -1.378058
  C     -3.558887   -1.783975   -1.093880
  C     -4.092279   -2.743452   -2.161826
  H     -0.574663    5.502599    1.206884
  H     -0.594099    5.491815    2.997229
  H     -1.925597    4.723128    2.080277
  H     -0.310812    2.979179    3.006810
  H      1.029658    3.753063    2.142070
  H     -0.107408    3.265870   -0.067277
  H     -1.457631    2.511060    0.798629
  H      0.132595    0.756428    1.748584
  H      1.488012    1.552972    0.906588
  H      0.803307   -1.984759   -0.924283
  H      0.902180   -1.483311    0.784511
  H      2.855278   -0.604713   -1.465531
  H      2.989323   -0.117754    0.233810
  H      3.261400   -2.538488    0.915787
  H      3.143151   -3.028842   -0.783889
  H      5.236825   -1.674639   -1.326309
  H      5.563464   -2.903613   -0.065457
  H      5.356938   -1.184230    0.388546
  H     -1.578060   -0.831289    0.692038
  H     -2.271583    0.540684   -0.212841
  H     -1.458983   -2.170792   -1.474362
  H     -2.105648   -0.783583   -2.368998
  H     -4.235935   -0.904806   -1.004439
  H     -3.580650   -2.279858   -0.097427
  H     -3.452494   -3.647204   -2.246814
  H     -4.114137   -2.261270   -3.161863
  H     -5.122497   -3.083825   -1.931979

----------------------------
CARTESIAN COORDINATES (A.U.)
----------------------------
  NO LB      ZA    FRAG     MASS         X           Y           Z
   0 C     6.0000    0    12.011   -1.563672    9.237172    3.961966
   1 C     6.0000    0    12.011   -0.123584    6.726848    3.947948
   2 C     6.0000    0    12.011   -0.682236    5.094756    1.615280
   3 C     6.0000    0    12.011    0.744399    2.572023    1.605963
   4 P    15.0000    0    30.974    0.209903    0.652337   -1.329187
   5 C     6.0000    0    12.011    2.152159   -2.195404   -0.483446
   6 C     6.0000    0    12.011    5.003491   -1.788668   -0.806447
   7 C     6.0000    0    12.011    6.577254   -4.157233   -0.230185
   8 C     6.0000    0    12.011    9.424712   -3.746750   -0.546313
   9 C     6.0000    0    12.011   -3.010429   -0.634165   -0.578025
  10 C     6.0000    0    12.011   -4.031386   -2.437759   -2.604151
  11 C     6.0000    0    12.011   -6.725322   -3.371224   -2.067134
  12 C     6.0000    0    12.011   -7.733287   -5.184373   -4.085260
  13 H     1.0000    0     1.008   -1.085956   10.398405    2.280680
  14 H     1.0000    0     1.008   -1.122684   10.378026    5.663941
  15 H     1.0000    0     1.008   -3.638851    8.925418    3.931154
  16 H     1.0000    0     1.008   -0.587350    5.629832    5.682048
  17 H     1.0000    0     1.008    1.945771    7.092262    4.047926
  18 H     1.0000    0     1.008   -0.202971    6.171600   -0.127136
  19 H     1.0000    0     1.008   -2.754523    4.745216    1.509189
  20 H     1.0000    0     1.008    0.250568    1.429442    3.304344
  21 H     1.0000    0     1.008    2.811934    2.934692    1.713204
  22 H     1.0000    0     1.008    1.518031   -3.750652   -1.746641
  23 H     1.0000    0     1.008    1.704874   -2.803051    1.482510
  24 H     1.0000    0     1.008    5.395693   -1.142742   -2.769452
  25 H     1.0000    0     1.008    5.649003   -0.222522    0.441838
  26 H     1.0000    0     1.008    6.163153   -4.797047    1.730587
  27 H     1.0000    0     1.008    5.939695   -5.723682   -1.481335
  28 H     1.0000    0     1.008    9.896165   -3.164610   -2.506361
  29 H     1.0000    0     1.008   10.513424   -5.487033   -0.123696
  30 H     1.0000    0     1.008   10.123146   -2.237870    0.734245
  31 H     1.0000    0     1.008   -2.982101   -1.570908    1.307763
  32 H     1.0000    0     1.008   -4.292670    1.021744   -0.402212
  33 H     1.0000    0     1.008   -2.757079   -4.102202   -2.786141
  34 H     1.0000    0     1.008   -3.979098   -1.480757   -4.476757
  35 H     1.0000    0     1.008   -8.004756   -1.709835   -1.898114
  36 H     1.0000    0     1.008   -6.766449   -4.308307   -0.184110
  37 H     1.0000    0     1.008   -6.524268   -6.892216   -4.245862
  38 H     1.0000    0     1.008   -7.774591   -4.273181   -5.975055
  39 H     1.0000    0     1.008   -9.680117   -5.827585   -3.650911

--------------------------------
INTERNAL COORDINATES (ANGSTROEM)
--------------------------------
 C      0   0   0     0.000000000000     0.00000000     0.00000000
 C      1   0   0     1.531488548537     0.00000000     0.00000000
 C      2   1   0     1.535266424195   113.33044789     0.00000000
 C      3   2   1     1.533660762026   113.42016199   180.38533324
 P      4   3   2     1.877347606046   113.54732964   183.27863524
 C      5   4   3     1.878188698256    98.89174397   181.81786419
 C      6   5   4     1.533688302538   113.52898077   282.34465468
 C      7   6   5     1.535426212483   113.38547116   182.64032254
 C      8   7   6     1.531549827187   113.33822491   180.15874050
 C      5   4   3     1.877637541424    99.07824678   282.43133054
 C     10   5   4     1.533746255176   113.41166314   182.27470845
 C     11  10   5     1.535255740358   113.44750554   183.31265025
 C     12  11  10     1.531539212173   113.32136274   180.35151624
 H      1   2   3     1.110439464499   111.27478822   300.38122930
 H      1   2   3     1.109095126636   111.80108389   180.10111267
 H      1   2   3     1.110579745731   111.29071812    59.86182472
 H      2   1   3     1.113239234628   109.79336891   237.74737649
 H      2   1   3     1.113255399960   109.78957178   122.12223673
 H      3   2   1     1.113198357179   109.51944913    57.97355962
 H      3   2   1     1.113513517406   108.88181044   303.05337072
 H      4   3   2     1.114274146372   110.74968161    59.23634449
 H      4   3   2     1.112245858922   109.50297331   302.14385687
 H      6   5   4     1.112100438841   106.58410706   161.71703080
 H      6   5   4     1.114327436970   109.74022927    46.80875492
 H      7   6   5     1.113089230406   109.30164790   305.19072394
 H      7   6   5     1.113501790564   109.88561818    60.56303037
 H      8   7   6     1.113219359566   109.06379956   302.79357951
 H      8   7   6     1.113238618197   108.98620404    57.56477608
 H      9   8   7     1.110382622590   111.24947889   300.45149520
 H      9   8   7     1.109063001657   111.79469154   180.15439116
 H      9   8   7     1.110561198520   111.26901299    59.91487423
 H     10   5   4     1.114352931268   109.79514378   306.72967693
 H     10   5   4     1.112164470140   106.60422379    61.69379722
 H     11  10   5     1.113455760310   109.83897619    61.18876252
 H     11  10   5     1.113190700217   109.29543115   305.84944573
 H     12  11  10     1.113253071521   108.99559751    57.75050016
 H     12  11  10     1.113235386657   109.09634107   302.97312989
 H     13  12  11     1.110547434640   111.25659169    59.77681246
 H     13  12  11     1.110427749026   111.27227466   300.30183245
 H     13  12  11     1.109068561761   111.79371101   180.01957674

---------------------------
INTERNAL COORDINATES (A.U.)
---------------------------
 C      0   0   0     0.000000000000     0.00000000     0.00000000
 C      1   0   0     2.894093933971     0.00000000     0.00000000
 C      2   1   0     2.901233084334   113.33044789     0.00000000
 C      3   2   1     2.898198822570   113.42016199   180.38533324
 P      4   3   2     3.547672833600   113.54732964   183.27863524
 C      5   4   3     3.549262267529    98.89174397   181.81786419
 C      6   5   4     2.898250866595   113.52898077   282.34465468
 C      7   6   5     2.901535040437   113.38547116   182.64032254
 C      8   7   6     2.894209733837   113.33822491   180.15874050
 C      5   4   3     3.548220732060    99.07824678   282.43133054
 C     10   5   4     2.898360381211   113.41166314   182.27470845
 C     11  10   5     2.901212894807   113.44750554   183.31265025
 C     12  11  10     2.894189674368   113.32136274   180.35151624
 H      1   2   3     2.098426476200   111.27478822   300.38122930
 H      1   2   3     2.095886045810   111.80108389   180.10111267
 H      1   2   3     2.098691569312   111.29071812    59.86182472
 H      2   1   3     2.103717274984   109.79336891   237.74737649
 H      2   1   3     2.103747823033   109.78957178   122.12223673
 H      3   2   1     2.103640027800   109.51944913    57.97355962
 H      3   2   1     2.104235594316   108.88181044   303.05337072
 H      4   3   2     2.105672974751   110.74968161    59.23634449
 H      4   3   2     2.101840066951   109.50297331   302.14385687
 H      6   5   4     2.101565262823   106.58410706   161.71703080
 H      6   5   4     2.105773679388   109.74022927    46.80875492
 H      7   6   5     2.103433808085   109.30164790   305.19072394
 H      7   6   5     2.104213433797   109.88561818    60.56303037
 H      8   7   6     2.103679716558   109.06379956   302.79357951
 H      8   7   6     2.103716110098   108.98620404    57.56477608
 H      9   8   7     2.098319060560   111.24947889   300.45149520
 H      9   8   7     2.095825338397   111.79469154   180.15439116
 H      9   8   7     2.098656520162   111.26901299    59.91487423
 H     10   5   4     2.105821856629   109.79514378   306.72967693
 H     10   5   4     2.101686264442   106.60422379    61.69379722
 H     11  10   5     2.104126449224   109.83897619    61.18876252
 H     11  10   5     2.103625558239   109.29543115   305.84944573
 H     12  11  10     2.103743422922   108.99559751    57.75050016
 H     12  11  10     2.103710003371   109.09634107   302.97312989
 H     13  12  11     2.098630510199   111.25659169    59.77681246
 H     13  12  11     2.098404337166   111.27227466   300.30183245
 H     13  12  11     2.095835845470   111.79371101   180.01957674

---------------------
BASIS SET INFORMATION
---------------------
There are 3 groups of distinct atoms

 Group   1 Type C   : 11s6p2d1f contracted to 5s3p2d1f pattern {62111/411/11/1}
 Group   2 Type P   : 14s9p3d1f contracted to 5s5p2d1f pattern {73211/51111/21/1}
 Group   3 Type H   : 5s1p contracted to 3s1p pattern {311/1}

Atom   0C    basis set group =>   1
Atom   1C    basis set group =>   1
Atom   2C    basis set group =>   1
Atom   3C    basis set group =>   1
Atom   4P    basis set group =>   2
Atom   5C    basis set group =>   1
Atom   6C    basis set group =>   1
Atom   7C    basis set group =>   1
Atom   8C    basis set group =>   1
Atom   9C    basis set group =>   1
Atom  10C    basis set group =>   1
Atom  11C    basis set group =>   1
Atom  12C    basis set group =>   1
Atom  13H    basis set group =>   3
Atom  14H    basis set group =>   3
Atom  15H    basis set group =>   3
Atom  16H    basis set group =>   3
Atom  17H    basis set group =>   3
Atom  18H    basis set group =>   3
Atom  19H    basis set group =>   3
Atom  20H    basis set group =>   3
Atom  21H    basis set group =>   3
Atom  22H    basis set group =>   3
Atom  23H    basis set group =>   3
Atom  24H    basis set group =>   3
Atom  25H    basis set group =>   3
Atom  26H    basis set group =>   3
Atom  27H    basis set group =>   3
Atom  28H    basis set group =>   3
Atom  29H    basis set group =>   3
Atom  30H    basis set group =>   3
Atom  31H    basis set group =>   3
Atom  32H    basis set group =>   3
Atom  33H    basis set group =>   3
Atom  34H    basis set group =>   3
Atom  35H    basis set group =>   3
Atom  36H    basis set group =>   3
Atom  37H    basis set group =>   3
Atom  38H    basis set group =>   3
Atom  39H    basis set group =>   3
---------------------------------
AUXILIARY/J BASIS SET INFORMATION
---------------------------------
There are 3 groups of distinct atoms

 Group   1 Type C   : 12s5p4d2f1g contracted to 6s4p3d1f1g pattern {711111/2111/211/2/1}
 Group   2 Type P   : 14s5p5d2f1g contracted to 8s4p3d1f1g pattern {71111111/2111/311/2/1}
 Group   3 Type H   : 5s2p1d contracted to 3s1p1d pattern {311/2/1}

Atom   0C    basis set group =>   1
Atom   1C    basis set group =>   1
Atom   2C    basis set group =>   1
Atom   3C    basis set group =>   1
Atom   4P    basis set group =>   2
Atom   5C    basis set group =>   1
Atom   6C    basis set group =>   1
Atom   7C    basis set group =>   1
Atom   8C    basis set group =>   1
Atom   9C    basis set group =>   1
Atom  10C    basis set group =>   1
Atom  11C    basis set group =>   1
Atom  12C    basis set group =>   1
Atom  13H    basis set group =>   3
Atom  14H    basis set group =>   3
Atom  15H    basis set group =>   3
Atom  16H    basis set group =>   3
Atom  17H    basis set group =>   3
Atom  18H    basis set group =>   3
Atom  19H    basis set group =>   3
Atom  20H    basis set group =>   3
Atom  21H    basis set group =>   3
Atom  22H    basis set group =>   3
Atom  23H    basis set group =>   3
Atom  24H    basis set group =>   3
Atom  25H    basis set group =>   3
Atom  26H    basis set group =>   3
Atom  27H    basis set group =>   3
Atom  28H    basis set group =>   3
Atom  29H    basis set group =>   3
Atom  30H    basis set group =>   3
Atom  31H    basis set group =>   3
Atom  32H    basis set group =>   3
Atom  33H    basis set group =>   3
Atom  34H    basis set group =>   3
Atom  35H    basis set group =>   3
Atom  36H    basis set group =>   3
Atom  37H    basis set group =>   3
Atom  38H    basis set group =>   3
Atom  39H    basis set group =>   3


           ************************************************************
           *        Program running with 6 parallel MPI-processes     *
           *              working on a common directory               *
           ************************************************************
------------------------------------------------------------------------------
                             ORCA STARTUP CALCULATIONS
                           -- RI-GTO INTEGRALS CHOSEN --
------------------------------------------------------------------------------
------------------------------------------------------------------------------
                   ___                                                        
                  /   \      - P O W E R E D   B Y -                         
                 /     \                                                     
                 |  |  |   _    _      __       _____    __    __             
                 |  |  |  | |  | |    /  \     |  _  \  |  |  /  |          
                  \  \/   | |  | |   /    \    | | | |  |  | /  /          
                 / \  \   | |__| |  /  /\  \   | |_| |  |  |/  /          
                |  |  |   |  __  | /  /__\  \  |    /   |      \           
                |  |  |   | |  | | |   __   |  |    \   |  |\   \          
                \     /   | |  | | |  |  |  |  | |\  \  |  | \   \       
                 \___/    |_|  |_| |__|  |__|  |_| \__\ |__|  \__/        
                                                                              
                      - O R C A' S   B I G   F R I E N D -                    
                                      &                                       
                       - I N T E G R A L  F E E D E R -                       
                                                                              
 v1 FN, 2020, v2 2021, v3 2022-2024                                           
------------------------------------------------------------------------------


----------------------
SHARK INTEGRAL PACKAGE
----------------------

Number of atoms                             ...     40
Number of basis functions                   ...    571
Number of shells                            ...    253
Maximum angular momentum                    ...      3
Integral batch strategy                     ... SHARK/LIBINT Hybrid
RI-J (if used) integral strategy            ... SPLIT-RIJ (Revised 2003 algorithm where possible)
Printlevel                                  ...      1
Contraction scheme used                     ... SEGMENTED contraction
Prescreening option                         ... SCHWARTZ
   Thresh                                   ... 1.000e-10
   Tcut                                     ... 1.000e-11
   Tpresel                                  ... 1.000e-11 
Coulomb Range Separation                    ... NOT USED
Exchange Range Separation                   ... NOT USED
Multipole approximations                    ... NOT USED
Finite Nucleus Model                        ... NOT USED
CABS basis                                  ... NOT available
Auxiliary Coulomb fitting basis             ... AVAILABLE
   # of basis functions in Aux-J            ...    936
   # of shells in Aux-J                     ...    332
   Maximum angular momentum in Aux-J        ...      4
Auxiliary J/K fitting basis                 ... NOT available
Auxiliary Correlation fitting basis         ... NOT available
Auxiliary 'external' fitting basis          ... NOT available

Checking pre-screening integrals            ... done (  0.0 sec) Dimension = 253
Check shell pair data                       ... done (  0.0 sec)
Shell pair information
Shell pair cut-off parameter TPreSel        ...   1.0e-11
Total number of shell pairs                 ...     32131
Shell pairs after pre-screening             ...     21965
Total number of primitive shell pairs       ...     92616
Primitive shell pairs kept                  ...     43960
          la=0 lb=0:   7385 shell pairs
          la=1 lb=0:   6854 shell pairs
          la=1 lb=1:   1630 shell pairs
          la=2 lb=0:   2590 shell pairs
          la=2 lb=1:   1210 shell pairs
          la=2 lb=2:    249 shell pairs
          la=3 lb=0:   1213 shell pairs
          la=3 lb=1:    564 shell pairs
          la=3 lb=2:    212 shell pairs
          la=3 lb=3:     58 shell pairs

Calculating one electron integrals          ... done (  0.0 sec)
Calculating RI/J V-Matrix + Cholesky decomp.... done (  0.0 sec)
Calculating Nuclear repulsion               ... done (  0.0 sec) ENN=    912.102469106862 Eh

Diagonalization of the overlap matrix:
Smallest eigenvalue                        ... 1.205e-04
Time for diagonalization                   ...    0.051 sec
Threshold for overlap eigenvalues          ... 1.000e-07
Number of eigenvalues below threshold      ... 0
Time for construction of square roots      ...    0.027 sec
Total time needed                          ...    0.082 sec

-------------------
DFT GRID GENERATION
-------------------

General Integration Accuracy     IntAcc      ... 4.388
Radial Grid Type                 RadialGrid  ... OptM3 with GC (2021)
Angular Grid (max. ang.)         AngularGrid ... 4 (Lebedev-302)
Angular grid pruning method      GridPruning ... 4 (adaptive)
Weight generation scheme         WeightScheme... mBecke (2022)
Basis function cutoff            BFCut       ... 1.0000e-10
Integration weight cutoff        WCut        ... 1.0000e-14
Partially contracted basis set               ... off
Rotationally invariant grid construction     ... off
Angular grids for H and He will be reduced by one unit

Total number of grid points                  ...   165175
Total number of batches                      ...     2601
Average number of points per batch           ...       63
Average number of grid points per atom       ...     4129

--------------------
COSX GRID GENERATION
--------------------

GRIDX 1
-------
General Integration Accuracy     IntAcc      ... 3.816
Radial Grid Type                 RadialGrid  ... OptM3 with GC (2021)
Angular Grid (max. ang.)         AngularGrid ... 1 (Lebedev-50)
Angular grid pruning method      GridPruning ... 4 (adaptive)
Weight generation scheme         WeightScheme... mBecke (2022)
Basis function cutoff            BFCut       ... 1.0000e-10
Integration weight cutoff        WCut        ... 1.0000e-14
Partially contracted basis set               ... on
Rotationally invariant grid construction     ... off
Angular grids for H and He will be reduced by one unit

Total number of grid points                  ...    22165
Total number of batches                      ...      203
Average number of points per batch           ...      109
Average number of grid points per atom       ...      554
UseSFitting                                  ... on

GRIDX 2
-------
General Integration Accuracy     IntAcc      ... 4.020
Radial Grid Type                 RadialGrid  ... OptM3 with GC (2021)
Angular Grid (max. ang.)         AngularGrid ... 2 (Lebedev-110)
Angular grid pruning method      GridPruning ... 4 (adaptive)
Weight generation scheme         WeightScheme... mBecke (2022)
Basis function cutoff            BFCut       ... 1.0000e-10
Integration weight cutoff        WCut        ... 1.0000e-14
Partially contracted basis set               ... on
Rotationally invariant grid construction     ... off
Angular grids for H and He will be reduced by one unit

Total number of grid points                  ...    43257
Total number of batches                      ...      364
Average number of points per batch           ...      118
Average number of grid points per atom       ...     1081
UseSFitting                                  ... on

GRIDX 3
-------
General Integration Accuracy     IntAcc      ... 4.338
Radial Grid Type                 RadialGrid  ... OptM3 with GC (2021)
Angular Grid (max. ang.)         AngularGrid ... 3 (Lebedev-194)
Angular grid pruning method      GridPruning ... 4 (adaptive)
Weight generation scheme         WeightScheme... mBecke (2022)
Basis function cutoff            BFCut       ... 1.0000e-10
Integration weight cutoff        WCut        ... 1.0000e-14
Partially contracted basis set               ... on
Rotationally invariant grid construction     ... off
Angular grids for H and He will be reduced by one unit

Total number of grid points                  ...    94233
Total number of batches                      ...      755
Average number of points per batch           ...      124
Average number of grid points per atom       ...     2356
UseSFitting                                  ... on
Initializing property integral containers    ... done (  0.0 sec)

SHARK setup successfully completed in   2.7 seconds

Maximum memory used throughout the entire STARTUP-calculation: 58.8 MB


           ************************************************************
           *        Program running with 6 parallel MPI-processes     *
           *              working on a common directory               *
           ************************************************************
-------------------------------------------------------------------------------
                                 ORCA GUESS
                   Start orbitals & Density for SCF / CASSCF
-------------------------------------------------------------------------------

------------
SCF SETTINGS
------------
Hamiltonian:
 Density Functional     Method          .... DFT(GTOs)
 Exchange Functional    Exchange        .... M062X
 Correlation Functional Correlation     .... M062X
 Gradients option       PostSCFGGA      .... off
 Hybrid DFT is turned on
   Fraction HF Exchange ScalHFX         ....  0.540000
   Scaling of DF-GGA-X  ScalDFX         ....  0.460000
   Scaling of DF-GGA-C  ScalDFC         ....  1.000000
   Scaling of DF-LDA-C  ScalLDAC        ....  1.000000
   Perturbative correction              ....  0.000000
 RI-approximation to the Coulomb term is turned on
   Number of AuxJ basis functions       .... 936
   RIJ-COSX (HFX calculated with COS-X)).... on


General Settings:
 Integral files         IntName         .... data/single_point_P_M06-2x/13831/13831
 Hartree-Fock type      HFTyp           .... RHF
 Total Charge           Charge          ....    0
 Multiplicity           Mult            ....    1
 Number of Electrons    NEL             ....  114
 Basis Dimension        Dim             ....  571
 Nuclear Repulsion      ENuc            ....    912.1024691069 Eh

Convergence Acceleration:
 AO-DIIS                CNVDIIS         .... on
   Start iteration      DIISMaxIt       ....    12
   Startup error        DIISStart       ....  0.200000
   # of expansion vecs  DIISMaxEq       ....     5
   Bias factor          DIISBfac        ....   1.050
   Max. coefficient     DIISMaxC        ....  10.000
 MO-DIIS                CNVKDIIS        .... off
 Trust-Rad. Augm. Hess. CNVTRAH         .... auto
   Auto Start mean grad. ratio tolernc. ....  1.125000
   Auto Start start iteration           ....    50
   Auto Start num. interpolation iter.  ....    10
   Max. Number of Micro iterations      ....    24
   Max. Number of Macro iterations      .... Maxiter - #DIIS iter
   Number of Davidson start vectors     ....     2
   Converg. threshold    (grad. norm)   ....   5.000e-05
   Grad. Scal. Fac. for Micro threshold ....   0.100
   Minimum threshold for Micro iter.    ....   1.000e-02
   NR start threshold (gradient norm)   ....   1.000e-04
   Initial trust radius                 ....   0.400
   Minimum AH scaling param. (alpha)    ....   1.000
   Maximum AH scaling param. (alpha)    .... 1000.000
   Quad. conv. algorithm                .... NR
   White noise on init. David. guess    .... on
   Maximum white noise                  ....   0.010
   Pseudo random numbers                .... off
   Inactive MOs                         .... canonical
   Orbital update algorithm             .... Taylor
   Preconditioner                       .... Diag
   Full preconditioner red. dimension   ....   250
 SOSCF                  CNVSOSCF        .... on
   Start iteration      SOSCFMaxIt      ....   150
   Startup grad/error   SOSCFStart      ....  0.003300
   Hessian update       SOSCFHessUp     .... L-BFGS
 Level Shifting         CNVShift        .... on
   Level shift para.    LevelShift      ....    0.2500
   Turn off err/grad.   ShiftErr        ....    0.0010
 Zerner damping         CNVZerner       .... off
 Static damping         CNVDamp         .... on
   Fraction old density DampFac         ....    0.7000
   Max. Damping (<1)    DampMax         ....    0.9800
   Min. Damping (>=0)   DampMin         ....    0.0000
   Turn off err/grad.   DampErr         ....    0.1000

SCF Procedure:
 Maximum # iterations   MaxIter         ....   125
 SCF integral mode      SCFMode         .... Direct
   Integral package                     .... SHARK and LIBINT hybrid scheme
 Reset frequency        DirectResetFreq ....    20
 Integral Threshold     Thresh          ....  1.000e-10 Eh
 Primitive CutOff       TCut            ....  1.000e-11 Eh

Convergence Tolerance:
 Convergence Check Mode ConvCheckMode   .... Total+1el-Energy
 Convergence forced     ConvForced      .... 0
 Energy Change          TolE            ....  1.000e-06 Eh
 1-El. energy change                    ....  1.000e-03 Eh
 Orbital Gradient       TolG            ....  5.000e-05
 Orbital Rotation angle TolX            ....  5.000e-05
 DIIS Error             TolErr          ....  1.000e-05

------------------------------
INITIAL GUESS: MODEL POTENTIAL
------------------------------
Loading Hartree-Fock densities                     ... done
Calculating cut-offs                               ... done
Initializing the effective Hamiltonian             ... done
Setting up the integral package (SHARK)            ... done
Starting the Coulomb interaction                   ... done (   0.3 sec)
Making the grid                                    ... done (   0.2 sec)
Mapping shells                                     ... done
Starting the XC term evaluation                    ... done (   0.2 sec)
  promolecular density results
     # of electrons  =    113.987408894
     EX              =    -91.782416671
     EC              =     -3.777970171
     EX+EC           =    -95.560386841
Transforming the Hamiltonian                       ... done (   0.0 sec)
Diagonalizing the Hamiltonian                      ... done (   0.1 sec)
Back transforming the eigenvectors                 ... done (   0.0 sec)
Now organizing SCF variables                       ... done
                      ------------------
                      INITIAL GUESS DONE (   0.9 sec)
                      ------------------
             **** ENERGY FILE WAS UPDATED (data/single_point_P_M06-2x/13831/13831.en.tmp) ****
Finished Guess after   1.1 sec
Maximum memory used throughout the entire GUESS-calculation: 37.8 MB


           ************************************************************
           *        Program running with 6 parallel MPI-processes     *
           *              working on a common directory               *
           ************************************************************

-------------------------------------------------------------------------------------------
                                      ORCA LEAN-SCF
                              memory conserving SCF solver
-------------------------------------------------------------------------------------------

----------------------------------------D-I-I-S--------------------------------------------
Iteration    Energy (Eh)           Delta-E    RMSDP     MaxDP     DIISErr   Damp  Time(sec)
-------------------------------------------------------------------------------------------
               ***  Starting incremental Fock matrix formation  ***
    1    -814.3086396976043488     0.00e+00  9.78e-04  3.51e-02  1.87e-01  0.700   7.8
    2    -814.5280791234383742    -2.19e-01  7.63e-04  2.79e-02  1.07e-01  0.700   4.7
                               ***Turning on AO-DIIS***
    3    -814.6311757146827404    -1.03e-01  4.18e-04  2.08e-02  4.88e-02  0.700   4.5
    4    -814.6903882265180528    -5.92e-02  9.06e-04  4.48e-02  2.83e-02  0.000   4.4
    5    -814.8157004271818096    -1.25e-01  1.03e-04  1.50e-02  3.66e-03  0.000   4.5
                              *** Initializing SOSCF ***
---------------------------------------S-O-S-C-F--------------------------------------
Iteration    Energy (Eh)           Delta-E    RMSDP     MaxDP     MaxGrad    Time(sec)
--------------------------------------------------------------------------------------
    6    -814.8159563405843073    -2.56e-04  4.18e-05  4.68e-03  7.57e-04     4.0
               *** Restarting incremental Fock matrix formation ***
    7    -814.8159234849501900     3.29e-05  3.32e-05  4.11e-03  1.92e-04     7.8
    8    -814.8159268589017756    -3.37e-06  1.38e-05  1.83e-03  7.87e-05     5.5
    9    -814.8159274436200121    -5.85e-07  5.94e-06  4.55e-04  2.27e-05     5.0
                 **** Energy Check signals convergence ****

               *****************************************************
               *                     SUCCESS                       *
               *           SCF CONVERGED AFTER   9 CYCLES          *
               *****************************************************

Recomputing exchange energy using gridx3       ... done (   11.163 sec)
Old exchange energy                            :    -50.945874821 Eh
New exchange energy                            :    -50.945863997 Eh
Exchange energy change after final integration :      0.000010824 Eh
Total energy after final integration           :   -814.815916620 Eh
             **** ENERGY FILE WAS UPDATED (data/single_point_P_M06-2x/13831/13831.en.tmp) ****

----------------
TOTAL SCF ENERGY
----------------

Total Energy       :       -814.81591661963853 Eh          -22172.26831 eV

Components:
Nuclear Repulsion  :        912.10246910686215 Eh           24819.56999 eV
Electronic Energy  :      -1726.91839655048216 Eh          -46991.83859 eV
One Electron Energy:      -2920.00934298065022 Eh          -79457.49376 eV
Two Electron Energy:       1193.09094643016806 Eh           32465.65517 eV

Virial components:
Potential Energy   :      -1625.59970338912512 Eh          -44234.81678 eV
Kinetic Energy     :        810.78378676948660 Eh           22062.54848 eV
Virial Ratio       :          2.00497312590107

DFT components:
N(Alpha)           :       57.000107870701 electrons
N(Beta)            :       57.000107870701 electrons
N(Total)           :      114.000215741402 electrons
E(XC)              :      -47.224318775383 Eh       

---------------
SCF CONVERGENCE
---------------

  Last Energy change         ...    5.8472e-07  Tolerance :   1.0000e-06
  Last MAX-Density change    ...    4.5521e-04  Tolerance :   1.0000e-05
  Last RMS-Density change    ...    5.9398e-06  Tolerance :   1.0000e-06
  Last DIIS Error            ...    7.5676e-04  Tolerance :   1.0000e-05
  Last Orbital Gradient      ...    2.2724e-05  Tolerance :   5.0000e-05
  Last Orbital Rotation      ...    5.0960e-05  Tolerance :   5.0000e-05


----------------
ORBITAL ENERGIES
----------------

  NO   OCC          E(Eh)            E(eV) 
   0   2.0000     -78.011296     -2122.7953 
   1   2.0000     -10.535809      -286.6939 
   2   2.0000     -10.535785      -286.6933 
   3   2.0000     -10.535769      -286.6929 
   4   2.0000     -10.535317      -286.6805 
   5   2.0000     -10.535307      -286.6803 
   6   2.0000     -10.535290      -286.6798 
   7   2.0000     -10.534116      -286.6479 
   8   2.0000     -10.534106      -286.6476 
   9   2.0000     -10.534068      -286.6466 
  10   2.0000     -10.527412      -286.4654 
  11   2.0000     -10.527406      -286.4653 
  12   2.0000     -10.527383      -286.4647 
  13   2.0000      -6.827338      -185.7813 
  14   2.0000      -4.941775      -134.4725 
  15   2.0000      -4.941482      -134.4646 
  16   2.0000      -4.941478      -134.4645 
  17   2.0000      -0.901350       -24.5270 
  18   2.0000      -0.890139       -24.2219 
  19   2.0000      -0.890095       -24.2207 
  20   2.0000      -0.840401       -22.8685 
  21   2.0000      -0.810393       -22.0519 
  22   2.0000      -0.810307       -22.0496 
  23   2.0000      -0.742082       -20.1931 
  24   2.0000      -0.705675       -19.2024 
  25   2.0000      -0.705601       -19.2004 
  26   2.0000      -0.658257       -17.9121 
  27   2.0000      -0.655816       -17.8457 
  28   2.0000      -0.655743       -17.8437 
  29   2.0000      -0.593194       -16.1416 
  30   2.0000      -0.539780       -14.6882 
  31   2.0000      -0.539685       -14.6856 
  32   2.0000      -0.539211       -14.6727 
  33   2.0000      -0.497346       -13.5335 
  34   2.0000      -0.497254       -13.5310 
  35   2.0000      -0.496382       -13.5072 
  36   2.0000      -0.480290       -13.0694 
  37   2.0000      -0.480190       -13.0666 
  38   2.0000      -0.477379       -12.9901 
  39   2.0000      -0.458930       -12.4881 
  40   2.0000      -0.458875       -12.4866 
  41   2.0000      -0.446086       -12.1386 
  42   2.0000      -0.425142       -11.5687 
  43   2.0000      -0.425079       -11.5670 
  44   2.0000      -0.422621       -11.5001 
  45   2.0000      -0.408552       -11.1173 
  46   2.0000      -0.408523       -11.1165 
  47   2.0000      -0.398592       -10.8462 
  48   2.0000      -0.394083       -10.7236 
  49   2.0000      -0.391232       -10.6460 
  50   2.0000      -0.391208       -10.6453 
  51   2.0000      -0.383567       -10.4374 
  52   2.0000      -0.378025       -10.2866 
  53   2.0000      -0.377964       -10.2849 
  54   2.0000      -0.340810        -9.2739 
  55   2.0000      -0.340692        -9.2707 
  56   2.0000      -0.272430        -7.4132 
  57   0.0000       0.061257         1.6669 
  58   0.0000       0.061304         1.6682 
  59   0.0000       0.064622         1.7585 
  60   0.0000       0.076786         2.0895 
  61   0.0000       0.076890         2.0923 
  62   0.0000       0.081140         2.2079 
  63   0.0000       0.097291         2.6474 
  64   0.0000       0.097454         2.6519 
  65   0.0000       0.101215         2.7542 
  66   0.0000       0.112436         3.0595 
  67   0.0000       0.112534         3.0622 
*Only the first 10 virtual orbitals were printed.

                    ********************************
                    * MULLIKEN POPULATION ANALYSIS *
                    ********************************

-----------------------
MULLIKEN ATOMIC CHARGES
-----------------------
   0 C :   -0.429740
   1 C :   -0.232543
   2 C :   -0.290355
   3 C :   -0.413858
   4 P :    0.250555
   5 C :   -0.413444
   6 C :   -0.289726
   7 C :   -0.232977
   8 C :   -0.428614
   9 C :   -0.412539
  10 C :   -0.292286
  11 C :   -0.232979
  12 C :   -0.428708
  13 H :    0.138010
  14 H :    0.142171
  15 H :    0.136144
  16 H :    0.129656
  17 H :    0.130540
  18 H :    0.148822
  19 H :    0.138741
  20 H :    0.160118
  21 H :    0.158386
  22 H :    0.158504
  23 H :    0.160660
  24 H :    0.148877
  25 H :    0.138163
  26 H :    0.129580
  27 H :    0.130481
  28 H :    0.137743
  29 H :    0.141761
  30 H :    0.135940
  31 H :    0.160376
  32 H :    0.158395
  33 H :    0.138546
  34 H :    0.149250
  35 H :    0.130575
  36 H :    0.129771
  37 H :    0.136026
  38 H :    0.138027
  39 H :    0.141952
Sum of atomic charges:   -0.0000000

--------------------------------
MULLIKEN REDUCED ORBITAL CHARGES
--------------------------------
  0 C s       :     3.316158  s :     3.316158
      pz      :     1.073580  p :     3.054730
      px      :     1.025264
      py      :     0.955886
      dz2     :     0.007102  d :     0.055544
      dxz     :     0.001692
      dyz     :     0.021939
      dx2y2   :     0.019337
      dxy     :     0.005475
      f0      :     0.000288  f :     0.003307
      f+1     :     0.000318
      f-1     :     0.000692
      f+2     :     0.000239
      f-2     :     0.000416
      f+3     :     0.000613
      f-3     :     0.000742

  1 C s       :     3.249243  s :     3.249243
      pz      :     0.950480  p :     2.888900
      px      :     1.007957
      py      :     0.930462
      dz2     :     0.019466  d :     0.089407
      dxz     :     0.006898
      dyz     :     0.026939
      dx2y2   :     0.024790
      dxy     :     0.011314
      f0      :     0.000847  f :     0.004994
      f+1     :     0.000483
      f-1     :     0.000840
      f+2     :     0.000540
      f-2     :     0.000739
      f+3     :     0.000655
      f-3     :     0.000889

  2 C s       :     3.272731  s :     3.272731
      pz      :     0.983840  p :     2.922193
      px      :     1.004775
      py      :     0.933579
      dz2     :     0.021321  d :     0.090309
      dxz     :     0.007534
      dyz     :     0.026951
      dx2y2   :     0.023981
      dxy     :     0.010521
      f0      :     0.000878  f :     0.005121
      f+1     :     0.000480
      f-1     :     0.000829
      f+2     :     0.000568
      f-2     :     0.000772
      f+3     :     0.000660
      f-3     :     0.000935

  3 C s       :     3.275126  s :     3.275126
      pz      :     1.028740  p :     3.061433
      px      :     1.052739
      py      :     0.979954
      dz2     :     0.015859  d :     0.073560
      dxz     :     0.004232
      dyz     :     0.023220
      dx2y2   :     0.022361
      dxy     :     0.007887
      f0      :     0.000546  f :     0.003739
      f+1     :     0.000206
      f-1     :     0.000663
      f+2     :     0.000333
      f-2     :     0.000517
      f+3     :     0.000646
      f-3     :     0.000828

  4 P s       :     5.688309  s :     5.688309
      pz      :     3.220746  p :     8.803033
      px      :     2.738828
      py      :     2.843460
      dz2     :     0.044088  d :     0.231987
      dxz     :     0.030151
      dyz     :     0.049195
      dx2y2   :     0.046416
      dxy     :     0.062137
      f0      :     0.003825  f :     0.026116
      f+1     :     0.003001
      f-1     :     0.004251
      f+2     :     0.002877
      f-2     :     0.004106
      f+3     :     0.003689
      f-3     :     0.004367

  5 C s       :     3.273968  s :     3.273968
      pz      :     1.080675  p :     3.062147
      px      :     0.954955
      py      :     1.026518
      dz2     :     0.010653  d :     0.073591
      dxz     :     0.017348
      dyz     :     0.015120
      dx2y2   :     0.011899
      dxy     :     0.018571
      f0      :     0.000602  f :     0.003738
      f+1     :     0.000435
      f-1     :     0.000374
      f+2     :     0.000553
      f-2     :     0.000297
      f+3     :     0.000661
      f-3     :     0.000817

  6 C s       :     3.272511  s :     3.272511
      pz      :     1.056315  p :     2.921876
      px      :     0.897190
      py      :     0.968372
      dz2     :     0.012584  d :     0.090229
      dxz     :     0.014843
      dyz     :     0.021064
      dx2y2   :     0.018980
      dxy     :     0.022757
      f0      :     0.000705  f :     0.005109
      f+1     :     0.000472
      f-1     :     0.000532
      f+2     :     0.000688
      f-2     :     0.000552
      f+3     :     0.000800
      f-3     :     0.001360

  7 C s       :     3.249422  s :     3.249422
      pz      :     1.039679  p :     2.889248
      px      :     0.911114
      py      :     0.938456
      dz2     :     0.012148  d :     0.089325
      dxz     :     0.015415
      dyz     :     0.019254
      dx2y2   :     0.019083
      dxy     :     0.023425
      f0      :     0.000688  f :     0.004982
      f+1     :     0.000478
      f-1     :     0.000511
      f+2     :     0.000683
      f-2     :     0.000541
      f+3     :     0.000803
      f-3     :     0.001277

  8 C s       :     3.315613  s :     3.315613
      pz      :     1.060696  p :     3.054248
      px      :     0.923382
      py      :     1.070169
      dz2     :     0.008571  d :     0.055461
      dxz     :     0.014290
      dyz     :     0.007762
      dx2y2   :     0.006275
      dxy     :     0.018563
      f0      :     0.000525  f :     0.003293
      f+1     :     0.000376
      f-1     :     0.000335
      f+2     :     0.000508
      f-2     :     0.000228
      f+3     :     0.000713
      f-3     :     0.000606

  9 C s       :     3.274342  s :     3.274342
      pz      :     0.990380  p :     3.061032
      px      :     1.028732
      py      :     1.041921
      dz2     :     0.023754  d :     0.073435
      dxz     :     0.010319
      dyz     :     0.012667
      dx2y2   :     0.010274
      dxy     :     0.016420
      f0      :     0.000540  f :     0.003730
      f+1     :     0.000347
      f-1     :     0.000874
      f+2     :     0.000515
      f-2     :     0.000504
      f+3     :     0.000493
      f-3     :     0.000457

 10 C s       :     3.273929  s :     3.273929
      pz      :     0.975449  p :     2.923077
      px      :     0.958141
      py      :     0.989487
      dz2     :     0.025378  d :     0.090170
      dxz     :     0.013243
      dyz     :     0.014376
      dx2y2   :     0.012196
      dxy     :     0.024976
      f0      :     0.000651  f :     0.005110
      f+1     :     0.000522
      f-1     :     0.000908
      f+2     :     0.000742
      f-2     :     0.000598
      f+3     :     0.000921
      f-3     :     0.000769

 11 C s       :     3.249777  s :     3.249777
      pz      :     0.977814  p :     2.888943
      px      :     0.916379
      py      :     0.994750
      dz2     :     0.025069  d :     0.089275
      dxz     :     0.012427
      dyz     :     0.013794
      dx2y2   :     0.012881
      dxy     :     0.025103
      f0      :     0.000648  f :     0.004983
      f+1     :     0.000524
      f-1     :     0.000886
      f+2     :     0.000717
      f-2     :     0.000583
      f+3     :     0.000900
      f-3     :     0.000725

 12 C s       :     3.316006  s :     3.316006
      pz      :     0.991992  p :     3.054012
      px      :     1.057570
      py      :     1.004451
      dz2     :     0.020723  d :     0.055399
      dxz     :     0.004587
      dyz     :     0.008145
      dx2y2   :     0.009208
      dxy     :     0.012736
      f0      :     0.000464  f :     0.003292
      f+1     :     0.000296
      f-1     :     0.000815
      f+2     :     0.000476
      f-2     :     0.000410
      f+3     :     0.000460
      f-3     :     0.000368

 13 H s       :     0.843730  s :     0.843730
      pz      :     0.008319  p :     0.018260
      px      :     0.003803
      py      :     0.006138

 14 H s       :     0.839342  s :     0.839342
      pz      :     0.008509  p :     0.018487
      px      :     0.003788
      py      :     0.006190

 15 H s       :     0.845622  s :     0.845622
      pz      :     0.003530  p :     0.018234
      px      :     0.011176
      py      :     0.003528

 16 H s       :     0.851908  s :     0.851908
      pz      :     0.009195  p :     0.018435
      px      :     0.003656
      py      :     0.005585

 17 H s       :     0.851070  s :     0.851070
      pz      :     0.003458  p :     0.018390
      px      :     0.011426
      py      :     0.003506

 18 H s       :     0.832560  s :     0.832560
      pz      :     0.009499  p :     0.018618
      px      :     0.003660
      py      :     0.005460

 19 H s       :     0.842706  s :     0.842706
      pz      :     0.003476  p :     0.018554
      px      :     0.011528
      py      :     0.003550

 20 H s       :     0.820802  s :     0.820802
      pz      :     0.009290  p :     0.019079
      px      :     0.003802
      py      :     0.005987

 21 H s       :     0.822137  s :     0.822137
      pz      :     0.004027  p :     0.019477
      px      :     0.011590
      py      :     0.003861

 22 H s       :     0.822006  s :     0.822006
      pz      :     0.006289  p :     0.019491
      px      :     0.004582
      py      :     0.008620

 23 H s       :     0.820301  s :     0.820301
      pz      :     0.010299  p :     0.019039
      px      :     0.003981
      py      :     0.004760

 24 H s       :     0.832525  s :     0.832525
      pz      :     0.010570  p :     0.018599
      px      :     0.003631
      py      :     0.004398

 25 H s       :     0.843244  s :     0.843244
      pz      :     0.006078  p :     0.018593
      px      :     0.004118
      py      :     0.008397

 26 H s       :     0.852008  s :     0.852008
      pz      :     0.010311  p :     0.018413
      px      :     0.003713
      py      :     0.004388

 27 H s       :     0.851109  s :     0.851109
      pz      :     0.005987  p :     0.018410
      px      :     0.004145
      py      :     0.008279

 28 H s       :     0.844002  s :     0.844002
      pz      :     0.010126  p :     0.018255
      px      :     0.004002
      py      :     0.004127

 29 H s       :     0.839746  s :     0.839746
      pz      :     0.003864  p :     0.018493
      px      :     0.006014
      py      :     0.008615

 30 H s       :     0.845808  s :     0.845808
      pz      :     0.006244  p :     0.018252
      px      :     0.004545
      py      :     0.007462

 31 H s       :     0.820577  s :     0.820577
      pz      :     0.010036  p :     0.019048
      px      :     0.004088
      py      :     0.004924

 32 H s       :     0.822163  s :     0.822163
      pz      :     0.003639  p :     0.019442
      px      :     0.007084
      py      :     0.008719

 33 H s       :     0.842869  s :     0.842869
      pz      :     0.003540  p :     0.018585
      px      :     0.006642
      py      :     0.008403

 34 H s       :     0.832139  s :     0.832139
      pz      :     0.010337  p :     0.018611
      px      :     0.003347
      py      :     0.004927

 35 H s       :     0.851031  s :     0.851031
      pz      :     0.003535  p :     0.018395
      px      :     0.006486
      py      :     0.008374

 36 H s       :     0.851807  s :     0.851807
      pz      :     0.010245  p :     0.018422
      px      :     0.003401
      py      :     0.004776

 37 H s       :     0.845745  s :     0.845745
      pz      :     0.003594  p :     0.018229
      px      :     0.005806
      py      :     0.008829

 38 H s       :     0.843721  s :     0.843721
      pz      :     0.010044  p :     0.018252
      px      :     0.003517
      py      :     0.004691

 39 H s       :     0.839571  s :     0.839571
      pz      :     0.003728  p :     0.018477
      px      :     0.010299
      py      :     0.004450



                     *******************************
                     * LOEWDIN POPULATION ANALYSIS *
                     *******************************

----------------------
LOEWDIN ATOMIC CHARGES
----------------------
   0 C :   -0.326145
   1 C :   -0.306356
   2 C :   -0.308687
   3 C :   -0.420607
   4 P :    0.551329
   5 C :   -0.420217
   6 C :   -0.308678
   7 C :   -0.306317
   8 C :   -0.326022
   9 C :   -0.420428
  10 C :   -0.308833
  11 C :   -0.306359
  12 C :   -0.326088
  13 H :    0.122304
  14 H :    0.121834
  15 H :    0.121609
  16 H :    0.136357
  17 H :    0.136641
  18 H :    0.140376
  19 H :    0.136166
  20 H :    0.128419
  21 H :    0.134235
  22 H :    0.134076
  23 H :    0.128515
  24 H :    0.140368
  25 H :    0.136024
  26 H :    0.136345
  27 H :    0.136614
  28 H :    0.122280
  29 H :    0.121787
  30 H :    0.121595
  31 H :    0.128431
  32 H :    0.134162
  33 H :    0.136102
  34 H :    0.140409
  35 H :    0.136651
  36 H :    0.136368
  37 H :    0.121633
  38 H :    0.122283
  39 H :    0.121824

-------------------------------
LOEWDIN REDUCED ORBITAL CHARGES
-------------------------------
  0 C s       :     2.844999  s :     2.844999
      pz      :     1.073124  p :     3.195563
      px      :     1.069681
      py      :     1.052758
      dz2     :     0.036005  d :     0.261444
      dxz     :     0.010153
      dyz     :     0.091826
      dx2y2   :     0.083067
      dxy     :     0.040392
      f0      :     0.002163  f :     0.024140
      f+1     :     0.002786
      f-1     :     0.003598
      f+2     :     0.001814
      f-2     :     0.004294
      f+3     :     0.003922
      f-3     :     0.005563

  1 C s       :     2.792307  s :     2.792307
      pz      :     1.022818  p :     3.076952
      px      :     1.030357
      py      :     1.023777
      dz2     :     0.087932  d :     0.399363
      dxz     :     0.036257
      dyz     :     0.111498
      dx2y2   :     0.101136
      dxy     :     0.062540
      f0      :     0.005725  f :     0.037735
      f+1     :     0.004889
      f-1     :     0.005390
      f+2     :     0.004067
      f-2     :     0.006774
      f+3     :     0.004542
      f-3     :     0.006347

  2 C s       :     2.791207  s :     2.791207
      pz      :     1.031799  p :     3.076504
      px      :     1.026931
      py      :     1.017775
      dz2     :     0.089326  d :     0.403003
      dxz     :     0.036747
      dyz     :     0.112091
      dx2y2   :     0.103085
      dxy     :     0.061755
      f0      :     0.005804  f :     0.037973
      f+1     :     0.004935
      f-1     :     0.005400
      f+2     :     0.004008
      f-2     :     0.006822
      f+3     :     0.004624
      f-3     :     0.006380

  3 C s       :     2.851137  s :     2.851137
      pz      :     1.094002  p :     3.198827
      px      :     1.050795
      py      :     1.054030
      dz2     :     0.081006  d :     0.342845
      dxz     :     0.020874
      dyz     :     0.101646
      dx2y2   :     0.090151
      dxy     :     0.049168
      f0      :     0.003980  f :     0.027798
      f+1     :     0.002933
      f-1     :     0.004117
      f+2     :     0.002262
      f-2     :     0.004345
      f+3     :     0.004181
      f-3     :     0.005980

  4 P s       :     4.980913  s :     4.980913
      pz      :     3.233412  p :     8.882602
      px      :     2.775099
      py      :     2.874091
      dz2     :     0.094636  d :     0.486686
      dxz     :     0.065775
      dyz     :     0.103187
      dx2y2   :     0.101007
      dxy     :     0.122080
      f0      :     0.014249  f :     0.098471
      f+1     :     0.010195
      f-1     :     0.015082
      f+2     :     0.010994
      f-2     :     0.015486
      f+3     :     0.015881
      f-3     :     0.016585

  5 C s       :     2.851182  s :     2.851182
      pz      :     1.059513  p :     3.198600
      px      :     1.050687
      py      :     1.088400
      dz2     :     0.052725  d :     0.342645
      dxz     :     0.065866
      dyz     :     0.066367
      dx2y2   :     0.068833
      dxy     :     0.088854
      f0      :     0.003886  f :     0.027790
      f+1     :     0.002925
      f-1     :     0.001912
      f+2     :     0.005157
      f-2     :     0.003601
      f+3     :     0.004489
      f-3     :     0.005820

  6 C s       :     2.791238  s :     2.791238
      pz      :     1.033099  p :     3.076573
      px      :     1.015317
      py      :     1.028157
      dz2     :     0.061929  d :     0.402906
      dxz     :     0.061769
      dyz     :     0.078024
      dx2y2   :     0.099903
      dxy     :     0.101281
      f0      :     0.004567  f :     0.037961
      f+1     :     0.003624
      f-1     :     0.002894
      f+2     :     0.005836
      f-2     :     0.005351
      f+3     :     0.006145
      f-3     :     0.009544

  7 C s       :     2.792353  s :     2.792353
      pz      :     1.030355  p :     3.076994
      px      :     1.024259
      py      :     1.022380
      dz2     :     0.061761  d :     0.399256
      dxz     :     0.063726
      dyz     :     0.077141
      dx2y2   :     0.098413
      dxy     :     0.098216
      f0      :     0.004604  f :     0.037714
      f+1     :     0.003664
      f-1     :     0.002873
      f+2     :     0.005849
      f-2     :     0.005333
      f+3     :     0.006010
      f-3     :     0.009382

  8 C s       :     2.844996  s :     2.844996
      pz      :     1.074738  p :     3.195529
      px      :     1.047434
      py      :     1.073357
      dz2     :     0.044358  d :     0.261368
      dxz     :     0.059436
      dyz     :     0.032084
      dx2y2   :     0.043199
      dxy     :     0.082291
      f0      :     0.003201  f :     0.024129
      f+1     :     0.002975
      f-1     :     0.001585
      f+2     :     0.004593
      f-2     :     0.002663
      f+3     :     0.004739
      f-3     :     0.004372

  9 C s       :     2.851248  s :     2.851248
      pz      :     1.057185  p :     3.198776
      px      :     1.089086
      py      :     1.052505
      dz2     :     0.089144  d :     0.342614
      dxz     :     0.053141
      dyz     :     0.065163
      dx2y2   :     0.049027
      dxy     :     0.086139
      f0      :     0.003770  f :     0.027789
      f+1     :     0.003306
      f-1     :     0.005404
      f+2     :     0.005057
      f-2     :     0.003579
      f+3     :     0.003666
      f-3     :     0.003008

 10 C s       :     2.791203  s :     2.791203
      pz      :     1.028380  p :     3.076663
      px      :     1.023136
      py      :     1.025147
      dz2     :     0.094820  d :     0.402999
      dxz     :     0.063395
      dyz     :     0.070496
      dx2y2   :     0.064303
      dxy     :     0.109985
      f0      :     0.004523  f :     0.037968
      f+1     :     0.005019
      f-1     :     0.005770
      f+2     :     0.006892
      f-2     :     0.004219
      f+3     :     0.006955
      f-3     :     0.004590

 11 C s       :     2.792329  s :     2.792329
      pz      :     1.030866  p :     3.077001
      px      :     1.017527
      py      :     1.028609
      dz2     :     0.096102  d :     0.399305
      dxz     :     0.061480
      dyz     :     0.069750
      dx2y2   :     0.064517
      dxy     :     0.107456
      f0      :     0.004540  f :     0.037724
      f+1     :     0.004929
      f-1     :     0.005745
      f+2     :     0.006849
      f-2     :     0.004101
      f+3     :     0.006970
      f-3     :     0.004590

 12 C s       :     2.845032  s :     2.845032
      pz      :     1.065355  p :     3.195579
      px      :     1.066565
      py      :     1.063659
      dz2     :     0.084081  d :     0.261353
      dxz     :     0.024567
      dyz     :     0.050343
      dx2y2   :     0.042916
      dxy     :     0.059445
      f0      :     0.002884  f :     0.024125
      f+1     :     0.003206
      f-1     :     0.005154
      f+2     :     0.004480
      f-2     :     0.002966
      f+3     :     0.003093
      f-3     :     0.002342

 13 H s       :     0.820205  s :     0.820205
      pz      :     0.026312  p :     0.057491
      px      :     0.013192
      py      :     0.017987

 14 H s       :     0.820475  s :     0.820475
      pz      :     0.026647  p :     0.057691
      px      :     0.013078
      py      :     0.017966

 15 H s       :     0.820954  s :     0.820954
      pz      :     0.012176  p :     0.057437
      px      :     0.033049
      py      :     0.012212

 16 H s       :     0.808579  s :     0.808579
      pz      :     0.025227  p :     0.055064
      px      :     0.012928
      py      :     0.016909

 17 H s       :     0.808358  s :     0.808358
      pz      :     0.011707  p :     0.055001
      px      :     0.031223
      py      :     0.012071

 18 H s       :     0.804067  s :     0.804067
      pz      :     0.026063  p :     0.055557
      px      :     0.012977
      py      :     0.016517

 19 H s       :     0.808376  s :     0.808376
      pz      :     0.011987  p :     0.055458
      px      :     0.031389
      py      :     0.012082

 20 H s       :     0.812673  s :     0.812673
      pz      :     0.027968  p :     0.058907
      px      :     0.013106
      py      :     0.017833

 21 H s       :     0.806590  s :     0.806590
      pz      :     0.013172  p :     0.059174
      px      :     0.032705
      py      :     0.013297

 22 H s       :     0.806702  s :     0.806702
      pz      :     0.019907  p :     0.059222
      px      :     0.014247
      py      :     0.025069

 23 H s       :     0.812571  s :     0.812571
      pz      :     0.031178  p :     0.058914
      px      :     0.012591
      py      :     0.015146

 24 H s       :     0.804050  s :     0.804050
      pz      :     0.030164  p :     0.055582
      px      :     0.011729
      py      :     0.013689

 25 H s       :     0.808499  s :     0.808499
      pz      :     0.019400  p :     0.055477
      px      :     0.013118
      py      :     0.022959

 26 H s       :     0.808575  s :     0.808575
      pz      :     0.029553  p :     0.055080
      px      :     0.012104
      py      :     0.013424

 27 H s       :     0.808372  s :     0.808372
      pz      :     0.019302  p :     0.055014
      px      :     0.013098
      py      :     0.022614

 28 H s       :     0.820215  s :     0.820215
      pz      :     0.031192  p :     0.057505
      px      :     0.012452
      py      :     0.013861

 29 H s       :     0.820511  s :     0.820511
      pz      :     0.013130  p :     0.057702
      px      :     0.017218
      py      :     0.027354

 30 H s       :     0.820962  s :     0.820962
      pz      :     0.020267  p :     0.057443
      px      :     0.013703
      py      :     0.023472

 31 H s       :     0.812663  s :     0.812663
      pz      :     0.029148  p :     0.058907
      px      :     0.013252
      py      :     0.016506

 32 H s       :     0.806667  s :     0.806667
      pz      :     0.012116  p :     0.059171
      px      :     0.021831
      py      :     0.025224

 33 H s       :     0.808401  s :     0.808401
      pz      :     0.011909  p :     0.055497
      px      :     0.019208
      py      :     0.024381

 34 H s       :     0.804013  s :     0.804013
      pz      :     0.027912  p :     0.055579
      px      :     0.011551
      py      :     0.016116

 35 H s       :     0.808341  s :     0.808341
      pz      :     0.011814  p :     0.055008
      px      :     0.018889
      py      :     0.024305

 36 H s       :     0.808551  s :     0.808551
      pz      :     0.027640  p :     0.055081
      px      :     0.011552
      py      :     0.015889

 37 H s       :     0.820924  s :     0.820924
      pz      :     0.011995  p :     0.057443
      px      :     0.019484
      py      :     0.025964

 38 H s       :     0.820207  s :     0.820207
      pz      :     0.029266  p :     0.057510
      px      :     0.012048
      py      :     0.016196

 39 H s       :     0.820467  s :     0.820467
      pz      :     0.012918  p :     0.057709
      px      :     0.030854
      py      :     0.013937



                      *****************************
                      * MAYER POPULATION ANALYSIS *
                      *****************************

  NA   - Mulliken gross atomic population
  ZA   - Total nuclear charge
  QA   - Mulliken gross atomic charge
  VA   - Mayer's total valence
  BVA  - Mayer's bonded valence
  FA   - Mayer's free valence

  ATOM       NA         ZA         QA         VA         BVA        FA
  0 C      6.4297     6.0000    -0.4297     3.8553     3.8553     0.0000
  1 C      6.2325     6.0000    -0.2325     3.7788     3.7788     0.0000
  2 C      6.2904     6.0000    -0.2904     3.7467     3.7467    -0.0000
  3 C      6.4139     6.0000    -0.4139     3.7646     3.7646    -0.0000
  4 P     14.7494    15.0000     0.2506     2.9857     2.9857    -0.0000
  5 C      6.4134     6.0000    -0.4134     3.7643     3.7643     0.0000
  6 C      6.2897     6.0000    -0.2897     3.7470     3.7470    -0.0000
  7 C      6.2330     6.0000    -0.2330     3.7784     3.7784    -0.0000
  8 C      6.4286     6.0000    -0.4286     3.8561     3.8561    -0.0000
  9 C      6.4125     6.0000    -0.4125     3.7628     3.7628    -0.0000
 10 C      6.2923     6.0000    -0.2923     3.7460     3.7460    -0.0000
 11 C      6.2330     6.0000    -0.2330     3.7775     3.7775     0.0000
 12 C      6.4287     6.0000    -0.4287     3.8548     3.8548     0.0000
 13 H      0.8620     1.0000     0.1380     0.9557     0.9557     0.0000
 14 H      0.8578     1.0000     0.1422     0.9585     0.9585     0.0000
 15 H      0.8639     1.0000     0.1361     0.9561     0.9561     0.0000
 16 H      0.8703     1.0000     0.1297     0.9502     0.9502     0.0000
 17 H      0.8695     1.0000     0.1305     0.9517     0.9517     0.0000
 18 H      0.8512     1.0000     0.1488     0.9590     0.9590    -0.0000
 19 H      0.8613     1.0000     0.1387     0.9520     0.9520    -0.0000
 20 H      0.8399     1.0000     0.1601     0.9523     0.9523    -0.0000
 21 H      0.8416     1.0000     0.1584     0.9517     0.9517    -0.0000
 22 H      0.8415     1.0000     0.1585     0.9518     0.9518    -0.0000
 23 H      0.8393     1.0000     0.1607     0.9521     0.9521     0.0000
 24 H      0.8511     1.0000     0.1489     0.9591     0.9591    -0.0000
 25 H      0.8618     1.0000     0.1382     0.9523     0.9523    -0.0000
 26 H      0.8704     1.0000     0.1296     0.9506     0.9506    -0.0000
 27 H      0.8695     1.0000     0.1305     0.9518     0.9518    -0.0000
 28 H      0.8623     1.0000     0.1377     0.9559     0.9559    -0.0000
 29 H      0.8582     1.0000     0.1418     0.9588     0.9588     0.0000
 30 H      0.8641     1.0000     0.1359     0.9562     0.9562     0.0000
 31 H      0.8396     1.0000     0.1604     0.9523     0.9523    -0.0000
 32 H      0.8416     1.0000     0.1584     0.9520     0.9520    -0.0000
 33 H      0.8615     1.0000     0.1385     0.9520     0.9520    -0.0000
 34 H      0.8507     1.0000     0.1493     0.9589     0.9589     0.0000
 35 H      0.8694     1.0000     0.1306     0.9519     0.9519     0.0000
 36 H      0.8702     1.0000     0.1298     0.9504     0.9504    -0.0000
 37 H      0.8640     1.0000     0.1360     0.9562     0.9562    -0.0000
 38 H      0.8620     1.0000     0.1380     0.9559     0.9559     0.0000
 39 H      0.8580     1.0000     0.1420     0.9587     0.9587     0.0000

  Mayer bond orders larger than 0.100000
B(  0-C ,  1-C ) :   0.9510 B(  0-C , 13-H ) :   0.9732 B(  0-C , 14-H ) :   0.9806 
B(  0-C , 15-H ) :   0.9739 B(  1-C ,  2-C ) :   0.9323 B(  1-C , 16-H ) :   0.9733 
B(  1-C , 17-H ) :   0.9751 B(  2-C ,  3-C ) :   0.9172 B(  2-C , 18-H ) :   0.9681 
B(  2-C , 19-H ) :   0.9806 B(  3-C ,  4-P ) :   0.9667 B(  3-C , 20-H ) :   0.9643 
B(  3-C , 21-H ) :   0.9545 B(  4-P ,  5-C ) :   0.9654 B(  4-P ,  9-C ) :   0.9657 
B(  5-C ,  6-C ) :   0.9182 B(  5-C , 22-H ) :   0.9547 B(  5-C , 23-H ) :   0.9643 
B(  6-C ,  7-C ) :   0.9313 B(  6-C , 24-H ) :   0.9681 B(  6-C , 25-H ) :   0.9811 
B(  7-C ,  8-C ) :   0.9515 B(  7-C , 26-H ) :   0.9731 B(  7-C , 27-H ) :   0.9756 
B(  8-C , 28-H ) :   0.9732 B(  8-C , 29-H ) :   0.9807 B(  8-C , 30-H ) :   0.9740 
B(  9-C , 10-C ) :   0.9166 B(  9-C , 31-H ) :   0.9645 B(  9-C , 32-H ) :   0.9546 
B( 10-C , 11-C ) :   0.9313 B( 10-C , 33-H ) :   0.9808 B( 10-C , 34-H ) :   0.9683 
B( 11-C , 12-C ) :   0.9504 B( 11-C , 35-H ) :   0.9754 B( 11-C , 36-H ) :   0.9734 
B( 12-C , 37-H ) :   0.9739 B( 12-C , 38-H ) :   0.9733 B( 12-C , 39-H ) :   0.9805 


-------
TIMINGS
-------

Total SCF time: 0 days 0 hours 0 min 59 sec 

Total time                  ....      59.822 sec
Sum of individual times     ....      59.838 sec  (100.0%)

SCF preparation             ....       0.210 sec  (  0.4%)
Fock matrix formation       ....      57.572 sec  ( 96.2%)
  Startup                   ....       0.069 sec  (  0.1% of F)
  Split-RI-J                ....       3.783 sec  (  6.6% of F)
  Chain of spheres X        ....      40.460 sec  ( 70.3% of F)
  XC integration            ....      13.062 sec  ( 22.7% of F)
    Basis function eval.    ....       1.953 sec  ( 15.0% of XC)
    Density eval.           ....       5.072 sec  ( 38.8% of XC)
    XC-Functional eval.     ....       0.350 sec  (  2.7% of XC)
    XC-Potential eval.      ....       4.875 sec  ( 37.3% of XC)
Diagonalization             ....       0.000 sec  (  0.0%)
Density matrix formation    ....       0.185 sec  (  0.3%)
Total Energy calculation    ....       0.067 sec  (  0.1%)
Population analysis         ....       0.139 sec  (  0.2%)
Orbital Transformation      ....       0.248 sec  (  0.4%)
Orbital Orthonormalization  ....       0.000 sec  (  0.0%)
DIIS solution               ....       1.026 sec  (  1.7%)
SOSCF solution              ....       0.391 sec  (  0.7%)
Finished LeanSCF after  59.9 sec

Maximum memory used throughout the entire LEANSCF-calculation: 72.9 MB


-------------------------------------------------------------------------------
                          DFT DISPERSION CORRECTION                            
                                                                               
                              DFTD3 V3.1  Rev 1                                
                              USING zero damping                               
-------------------------------------------------------------------------------
The M062X functional is recognized
Active option DFTDOPT                   ...         3   

molecular C6(AA) [au] = 12261.442011 


            DFT-D V3
 parameters
 s6 scaling factor         :     1.0000 
 rs6 scaling factor        :     1.6190 
 s8 scaling factor         :     0.0000 
 rs8 scaling factor        :     1.0000 
 Damping factor alpha6     :    14.0000 
 Damping factor alpha8     :    16.0000 
 ad hoc parameters k1-k3   :    16.0000     1.3333    -4.0000 

 Edisp/kcal,au: -1.116098784918  -0.001778616438 
 E6   /kcal   :  -1.116098785 
 E8   /kcal   :  -0.000000000 
 % E8         :   0.000000000 

-------------------------   ----------------
Dispersion correction           -0.001778616
-------------------------   ----------------


-------------------------   --------------------
FINAL SINGLE POINT ENERGY      -814.817695236077
-------------------------   --------------------



           ************************************************************
           *        Program running with 6 parallel MPI-processes     *
           *              working on a common directory               *
           ************************************************************

------------------------------------------------------------------------------
                              ORCA PROPERTY CALCULATIONS
------------------------------------------------------------------------------

GBWName                                 ... data/single_point_P_M06-2x/13831/13831.gbw
Number of atoms                         ...     40
Number of basis functions               ...    571
Max core memory                         ...   1024 MB

Electric properties:
Dipole moment                           ... YES
Quadrupole moment                       ...  NO
Static polarizability (Dipole/Dipole)   ...  NO
Static polarizability (Dipole/Quad.)    ...  NO
Static polarizability (Quad./Quad.)     ...  NO
Static polarizability (Velocity)        ...  NO

Atomic electric properties:
Dipole moment                           ...  NO
Quadrupole moment                       ...  NO
Static polarizability                   ...  NO

Choice of electric origin               ... Center of mass
Position of electric origin             ...     0.032834     0.102884    -0.212254

General magnetic properties:
Magnetizability                         ...  NO

EPR properties:
g-Tensor (aka g-matrix)                 ...  NO
Zero-Field splitting spin-orbit         ...  NO
Zero-field splitting spin-spin          ...  NO
Hyperfine couplings                     ...  NO (   0 nuclei)
Quadrupole couplings                    ...  NO (   0 nuclei)
Contact density                         ...  NO (   0 nuclei)

NMR properties:
Chemical shifts                         ...  NO (   0 nuclei)
Spin-rotation constants                 ...  NO (   0 nuclei)
Spin-spin couplings                     ...  NO (   0 nuclei,    0 pairs)

Choice of magnetic origin               ... GIAO
Position of magnetic origin             ...     0.000000     0.000000     0.000000

Properties with geometric perturbations:
SCF Hessian                             ...  NO
IR spectrum                             ...  NO
VCD spectrum                            ...  NO
X-ray spectroscopy properties:
SCF XES/XAS/RIXS spectra                ...  NO


-------------
DIPOLE MOMENT
-------------

Method             : SCF
Type of density    : Electron Density
Multiplicity       :   1
Irrep              :   0
Energy             :  -814.8159166196385286 Eh
Relativity type    : 
Basis              : AO
                                X                 Y                 Z
Electronic contribution:      0.574895777       1.817727167      -3.681135939
Nuclear contribution   :     -0.643996831      -2.019962325       4.095921839
                        -----------------------------------------
Total Dipole Moment    :     -0.069101054      -0.202235158       0.414785900
                        -----------------------------------------
Magnitude (a.u.)       :      0.466606213
Magnitude (Debye)      :      1.186018738



--------------------
Rotational spectrum 
--------------------
 
Rotational constants in cm-1:             0.012907             0.012836             0.006680 
Rotational constants in MHz :           386.952198           384.813090           200.252483 

Dipole components along the rotational axes: 
x,y,z [a.u.] :    -0.000290    -0.000273     0.466606 
x,y,z [Debye]:    -0.000738    -0.000694     1.186018 

 

Dipole moment calculation done in   0.0 sec 

Maximum memory used throughout the entire PROP-calculation: 37.0 MB

--------------------------------
SUGGESTED CITATIONS FOR THIS RUN
--------------------------------

Below you find a list of papers that are relevant to this ORCA run
We neither can nor want to force you to cite these papers, but we appreciate if you do
You receive ORCA, which is the product of decades of hard work by many enthusiastic individuals, for free
The only thing we kindly ask in return is that you cite our papers,
We deeply appreciate it, if you show your appreciation for ORCA by not just citing the generic ORCA reference.

Please note that relegating all ORCA citations to the supporting information does *not* help us.
SI sections are not indexed - citations you put there will not count into any citation statistics
But we need these citations in order to attract the funding resources that allow us to do what we are doing

Therefore, if you are a happy ORCA user, please consider citing a few of the papers listed below in the main body of your paper

In addition to the list printed below, the program has created the file data/single_point_P_M06-2x/13831/13831.bibtex that contains the list in bibtex format
You can import this file easily into all common literature databanks and citation aid programs


List of essential papers. We consider these as the minimum necessary citations

  1. Neese,F.
     Software update: the ORCA program system, version 5.0
     WIRES Comput. Molec. Sci., 2022 12(1)e1606
     doi.org/10.1002/wcms.1606

List of papers to cite with high priority. The work reported in these papers was absolutely
necessary for this run to complete.
Our perspective: the developers of density functionals and basis sets usually get cited in chemistry papers
Good! But without the algorithms to do something with them, the functionals or basis sets would not do anything.
Hence, in our opinion, the algorithm design and method developments papers are equally worthy of getting cited

  1. Neese,F.
     An improvement of the resolution of the identity approximation for the formation of the Coulomb matrix
     J. Comp. Chem., 2003 24(14)1740-1747
     doi.org/10.1002/jcc.10318
  2. Neese,F.; Wennmohs,F.; Hansen,A.; Becker,U.
     Efficient, approximate and parallel Hartree-Fock and hybrid DFT calculations. A 'chain-of-spheres' algorithm for the Hartree-Fock exchange
     Chem. Phys., 2009 356(1-3)98-109
     doi.org/10.1016/j.chemphys.2008.10.036
  3. Helmich-Paris,B.; de Souza,B.; Neese,F.; Izsák,R.
     An improved chain of spheres for exchange algorithm
     J. Chem. Phys., 2021 155 104109
     doi.org/doi: 10.1063/5.0058766.
  4. Neese,F.
     The SHARK Integral Generation and Digestion System
     J. Comp. Chem., 2022  1-16
     doi.org/10.1002/jcc.26942
  5. Grimme,S.; Antony,J.; Ehrlich,S.; Krieg,H.
     A consistent and accurate ab initio parametrization of density functional dispersion correction (DFT-D) for the 94 elements H-Pu
     J. Chem. Phys., 2010 132 154104-XXXX
     doi.org/10.1063/1.3382344

List of suggested additional citations. These are papers that are important in the 'surrounding' of 
of this run, or papers that preceded the highly important papers. If you like your results we are grateful for a citation.

  1. Izsak,R.; Neese,F.
     An overlap fitted chain of spheres exchange method
     J. Chem. Phys., 2011 135 144105
     doi.org/10.1063/1.3646921
  2. Izsak,R.; Hansen,A.; Neese,F.
     The resolution of identity and chain of spheres approximations for the LPNO-CCSD singles Fock term
     Molec. Phys., 2012 110 2413-2417
     doi.org/10.1080/00268976.2012.687466
  3. Neese,F.
     The ORCA program system
     WIRES Comput. Molec. Sci., 2012 2(1)73-78
     doi.org/10.1002/wcms.81
  4. Izsak,R.; Neese,F.; Klopper,W.
     Robust fitting techniques in the chain of spheres approximation to the Fock exchange: The role of the complementary space
     J. Chem. Phys., 2013 139 
     doi.org/10.1063/1.4819264
  5. Neese,F.
     Software update: the ORCA program system, version 4.0
     WIRES Comput. Molec. Sci., 2018 8(1)1-6
     doi.org/10.1002/wcms.1327
  6. Neese,F.; Wennmohs,F.; Becker,U.; Riplinger,C.
     The ORCA quantum chemistry program package
     J. Chem. Phys., 2020 152 Art. No. L224108
     doi.org/10.1063/5.0004608

List of optional additional citations

  1. Neese,F.
     Approximate second-order SCF convergence for spin unrestricted wavefunctions
     Chem. Phys. Lett., 2000 325(1-3)93-98
     doi.org/10.1016/s0009-2614(00)00662-x

Timings for individual modules:

Sum of individual times          ...       64.150 sec (=   1.069 min)
Startup calculation              ...        2.831 sec (=   0.047 min)   4.4 %
SCF iterations                   ...       61.101 sec (=   1.018 min)  95.2 %
Property calculations            ...        0.218 sec (=   0.004 min)   0.3 %
                             ****ORCA TERMINATED NORMALLY****
TOTAL RUN TIME: 0 days 0 hours 1 minutes 4 seconds 379 msec
