
                                 *****************
                                 * O   R   C   A *
                                 *****************

                                            #,                                       
                                            ###                                      
                                            ####                                     
                                            #####                                    
                                            ######                                   
                                           ########,                                 
                                     ,,################,,,,,                         
                               ,,#################################,,                 
                          ,,##########################################,,             
                       ,#########################################, ''#####,          
                    ,#############################################,,   '####,        
                  ,##################################################,,,,####,       
                ,###########''''           ''''###############################       
              ,#####''   ,,,,##########,,,,          '''####'''          '####       
            ,##' ,,,,###########################,,,                        '##       
           ' ,,###''''                  '''############,,,                           
         ,,##''                                '''############,,,,        ,,,,,,###''
      ,#''                                            '''#######################'''  
     '                                                          ''''####''''         
             ,#######,   #######,   ,#######,      ##                                
            ,#'     '#,  ##    ##  ,#'     '#,    #''#        ,####,   ,####,        
            ##       ##  ##   ,#'  ##            #'  '#       #'       #'  '#        
            ##       ##  #######   ##           ,######,      #####,   #    #        
            '#,     ,#'  ##    ##  '#,     ,#' ,#      #,     #,   #   #,  ,#        
             '#######'   ##     ##  '#######'  #'      '#     '####' # '####'        



                #########################################################
                #                        -***-                          #
                #          Department of theory and spectroscopy        #
                #                                                       #
                #                      Frank Neese                      #
                #                                                       #
                #     Directorship, Architecture, Infrastructure        #
                #                    SHARK, DRIVERS                     #
                #        Core code/Algorithms in most modules           #
                #                                                       #
                #        Max Planck Institute fuer Kohlenforschung      #
                #                Kaiser Wilhelm Platz 1                 #
                #                 D-45470 Muelheim/Ruhr                 #
                #                      Germany                          #
                #                                                       #
                #                  All rights reserved                  #
                #                        -***-                          #
                #########################################################


                         Program Version 6.0.0  -   RELEASE   -


 With contributions from (in alphabetic order):
   Daniel Aravena         : Magnetic Suceptibility
   Michael Atanasov       : Ab Initio Ligand Field Theory (pilot matlab implementation)
   Alexander A. Auer      : GIAO ZORA, VPT2 properties, NMR spectrum
   Ute Becker             : All parallelization in ORCA, NUMFREQ, NUMCALC
   Giovanni Bistoni       : ED, misc. LED, open-shell LED, HFLD
   Martin Brehm           : Molecular dynamics
   Dmytro Bykov           : pre 5.0 version of the SCF Hessian
   Marcos Casanova-Páez   : Triplet and SCS-CIS(D). UHF-(DLPNO)-IP/EA/STEOM-CCSD. UHF-CVS-IP/STEOM-CCSD
   Vijay G. Chilkuri      : MRCI spin determinant printing, contributions to CSF-ICE
   Pauline Colinet        : FMM embedding
   Dipayan Datta          : RHF DLPNO-CCSD density
   Achintya Kumar Dutta   : EOM-CC, STEOM-CC
   Nicolas Foglia         : Exact transition moments, OPA infrastructure, MCD improvements
   Dmitry Ganyushin       : Spin-Orbit,Spin-Spin,Magnetic field MRCI
   Miquel Garcia          : C-PCM and meta-GGA Hessian, CCSD/C-PCM, Gaussian charge scheme
   Tiago L. C. Gouveia    : GS-ROHF, GS-ROCIS
   Yang Guo               : DLPNO-NEVPT2, F12-NEVPT2, CIM, IAO-localization
   Andreas Hansen         : Spin unrestricted coupled pair/coupled cluster methods
   Ingolf Harden          : AUTO-CI MPn and infrastructure 
   Benjamin Helmich-Paris : MC-RPA, TRAH-(SCF,CASSCF), AVAS, COSX integrals, SCF dyn. polar.
   Lee Huntington         : MR-EOM, pCC
   Robert Izsak           : Overlap fitted RIJCOSX, COSX-SCS-MP3, EOM
   Riya Kayal             : Wick's Theorem for AUTO-CI, AUTO-CI UHF-CCSDT
   Emily Kempfer          : AUTO-CI, RHF CISDT and CCSDT
   Christian Kollmar      : KDIIS, OOCD, Brueckner-CCSD(T), CCSD density, CASPT2, CASPT2-K, improved NEVPT2
   Axel Koslowski         : Symmetry handling
   Simone Kossmann        : Meta GGA functionals, TD-DFT gradient, OOMP2, (MP2 Hessian; deprecated post 5.0)
   Lucas Lang             : DCDCAS
   Marvin Lechner         : AUTO-CI (C++ implementation), FIC-MRCC
   Spencer Leger          : CASSCF response
   Dagmar Lenk            : GEPOL surface, SMD, ORCA-2-JSON
   Dimitrios Liakos       : Extrapolation schemes; Compound Job, initial MDCI parallelization
   Dimitrios Manganas     : Further ROCIS development; embedding schemes. LFT, Crystal Embedding
   Dimitrios Pantazis     : SARC Basis sets
   Anastasios Papadopoulos: AUTO-CI, single reference methods and gradients
   Taras Petrenko         : pre 6.0 DFT Hessian and TD-DFT gradient, (ASA, deprecated), ECA, 1-Electron XAS/XES, NRVS
   Peter Pinski           : DLPNO-MP2, DLPNO-MP2 Gradient
   Christoph Reimann      : Effective Core Potentials
   Marius Retegan         : Local ZFS, SOC
   Christoph Riplinger    : Optimizer, TS searches, QM/MM, DLPNO-CCSD(T), (RO)-DLPNO pert. Triples
   Michael Roemelt        : Original ROCIS implementation
   Masaaki Saitow         : Open-shell DLPNO-CCSD energy and density
   Barbara Sandhoefer     : DKH picture change effects
   Kantharuban Sivalingam : CASSCF convergence/infrastructure, NEVPT2 and variants, FIC-MRCI
   Bernardo de Souza      : ESD, SOC TD-DFT
   Georgi Stoychev        : AutoAux, RI-MP2 NMR, DLPNO-MP2 response, X2C
   Van Anh Tran           : RI-MP2 g-tensors
   Willem Van den Heuvel  : Paramagnetic NMR
   Zikuan Wang            : NOTCH, Electric field optimization 
   Frank Wennmohs         : Technical directorship and infrastructure
   Hang Xu                : AUTO-CI-Response properties 


 We gratefully acknowledge several colleagues who have allowed us to
 interface, adapt or use parts of their codes:
   Stefan Grimme, W. Hujo, H. Kruse, P. Pracht,  : VdW corrections, initial TS optimization,
                  C. Bannwarth, S. Ehlert,         DFT functionals, gCP, sTDA/sTD-DF
                  L. Wittmann, M. Mueller
   Ed Valeev, F. Pavosevic, A. Kumar             : LibInt (2-el integral package), F12 methods
   Garnet Chan, S. Sharma, J. Yang, R. Olivares  : DMRG
   Ulf Ekstrom                                   : XCFun DFT Library
   Mihaly Kallay                                 : mrcc  (arbitrary order and MRCC methods)
   Frank Weinhold                                : gennbo (NPA and NBO analysis)
   Simon Mueller                                 : openCOSMO-RS
   Christopher J. Cramer and Donald G. Truhlar   : smd solvation model
   Lars Goerigk                                  : TD-DFT with DH, B97 family of functionals
   V. Asgeirsson, H. Jonsson                     : NEB implementation
   FAccTs GmbH                                   : IRC, NEB, NEB-TS, DLPNO-Multilevel, CI-OPT
                                                   MM, QMMM, 2- and 3-layer-ONIOM, Crystal-QMMM,
                                                   LR-CPCM, SF, NACMEs, symmetry and pop. for TD-DFT,
                                                   nearIR, NL-DFT gradient (VV10), updates on ESD,
                                                   ML-optimized integration grids, MBIS, APM,
                                                   GOAT, DOCKER, SOLVATOR, interface openCOSMO-RS
   S Lehtola, MJT Oliveira, MAL Marques          : LibXC Library
   Liviu Ungur et al                             : ANISO software


 Your calculation uses the libint2 library for the computation of 2-el integrals
 For citations please refer to: http://libint.valeyev.net

 Your ORCA version has been built with support for libXC version: 6.2.2
 For citations please refer to: https://libxc.gitlab.io

 This ORCA versions uses:
   CBLAS   interface :  Fast vector & matrix operations
   LAPACKE interface :  Fast linear algebra routines
   Shared memory     :  Shared parallel matrices


Your calculation utilizes the atom-pairwise dispersion correction
with the Becke-Johnson damping scheme (D3BJ)


Warning: RI is on but no J-basis has been assigned. Assigning Def2/J (nothing to worry about!)
================================================================================

----- Orbital basis set information -----
Your calculation utilizes the basis: def2-SVP
   F. Weigend and R. Ahlrichs, Phys. Chem. Chem. Phys. 7, 3297 (2005).

----- AuxJ basis set information -----
Your calculation utilizes the auxiliary basis: def2/J
   F. Weigend, Phys. Chem. Chem. Phys. 8, 1057 (2006).

================================================================================
                                        WARNINGS
                       Please study these warnings very carefully!
================================================================================


WARNING: Geometry Optimization
  ===> : Switching off AutoStart
         For restart on a previous wavefunction, please use MOREAD

================================================================================
                                       INPUT FILE
================================================================================
NAME = data/geom_opt_PO_BP86/80102/80102.inp
|  1> ! RI BP86 def2-SVP D3BJ TIGHTSCF Opt
|  2> %pal
|  3> nprocs 6
|  4> end
|  5> 
|  6> * xyz 0 1
|  7> C     -0.994920   -2.858200    0.137727
|  8> C      0.166571   -1.897042   -0.194472
|  9> C      0.183145   -1.687688   -1.713031
| 10> C      1.484225   -2.570094    0.232790
| 11> P     -0.061281   -0.310316    0.796439
| 12> O     -0.221903   -0.755843    2.242321
| 13> C      1.377823    0.752785    0.614723
| 14> C      1.904270    1.166676   -0.614848
| 15> C      3.032396    1.990904   -0.674710
| 16> C      3.652961    2.416020    0.496381
| 17> C      3.145551    2.019062    1.728739
| 18> C      2.019203    1.196402    1.785010
| 19> C     -1.548822    0.511806    0.211047
| 20> C     -1.579478    1.371369   -0.893817
| 21> C     -2.773646    1.974817   -1.299203
| 22> C     -3.954542    1.730779   -0.603014
| 23> C     -3.943133    0.886020    0.502132
| 24> C     -2.750054    0.284750    0.905259
| 25> H     -1.052352   -3.052959    1.213550
| 26> H     -1.955603   -2.434252   -0.170927
| 27> H     -0.875516   -3.821702   -0.370165
| 28> H      0.182203   -2.647669   -2.242732
| 29> H      1.077217   -1.154210   -2.039845
| 30> H     -0.691343   -1.125569   -2.050683
| 31> H      2.344881   -1.935975   -0.002276
| 32> H      1.498924   -2.751648    1.312636
| 33> H      1.626438   -3.530448   -0.274741
| 34> H      1.447861    0.866524   -1.550581
| 35> H      3.426791    2.303076   -1.638735
| 36> H      4.529474    3.056735    0.449113
| 37> H      3.623198    2.347162    2.648400
| 38> H      1.634369    0.893136    2.758616
| 39> H     -0.681368    1.591385   -1.458639
| 40> H     -2.780605    2.641226   -2.158348
| 41> H     -4.881220    2.203516   -0.917482
| 42> H     -4.859547    0.697366    1.055378
| 43> H     -2.752170   -0.367900    1.777986
| 44> **                         ****END OF INPUT****
================================================================================

                       *****************************
                       * Geometry Optimization Run *
                       *****************************

Geometry optimization settings:
Update method            Update   .... BFGS
Choice of coordinates    CoordSys .... (2022) Redundant Internals
Initial Hessian          InHess   .... Almloef's Model
Max. no of cycles        MaxIter  .... 111

Convergence Tolerances:
Energy Change            TolE     ....  5.0000e-06 Eh
Max. Gradient            TolMAXG  ....  3.0000e-04 Eh/bohr
RMS Gradient             TolRMSG  ....  1.0000e-04 Eh/bohr
Max. Displacement        TolMAXD  ....  4.0000e-03 bohr
RMS Displacement         TolRMSD  ....  2.0000e-03 bohr
Strict Convergence                .... False

------------------------------------------------------------------------------
                        ORCA OPTIMIZATION COORDINATE SETUP
------------------------------------------------------------------------------

The optimization will be done in redundant internal coordinates (2022)
Making redundant internal coordinates   ...  (2022 redundants) done
Evaluating the initial hessian          ...  (Almloef) done
Evaluating the coordinates              ...  done
Calculating the B-matrix                .... done
Calculating the G-matrix                .... done
Diagonalizing the G-matrix              .... done
Small eigenvalue found = 5.615e-03
Small eigenvalue found = 8.617e-03
Small eigenvalue found = 1.038e-02
Small eigenvalue found = 1.903e-02
The first mode is                       ....   81
The number of degrees of freedom        ....  105

    -----------------------------------------------------------------
                    Redundant Internal Coordinates


    -----------------------------------------------------------------
         Definition                    Initial Value    Approx d2E/dq
    -----------------------------------------------------------------
      1. B(C   1,C   0)                  1.5438         0.355140   
      2. B(C   2,C   1)                  1.5330         0.369464   
      3. B(C   3,C   1)                  1.5401         0.360030   
      4. B(P   4,C   1)                  1.8845         0.341360   
      5. B(O   5,P   4)                  1.5215         1.160429   
      6. B(C   6,P   4)                  1.7984         0.468451   
      7. B(C   7,C   6)                  1.4001         0.602026   
      8. B(C   8,C   7)                  1.3984         0.605746   
      9. B(C   9,C   8)                  1.3919         0.620538   
     10. B(C  10,C   9)                  1.3906         0.623439   
     11. B(C  11,C  10)                  1.3959         0.611353   
     12. B(C  11,C   6)                  1.4063         0.588438   
     13. B(C  12,P   4)                  1.7976         0.469830   
     14. B(C  13,C  12)                  1.4002         0.601855   
     15. B(C  14,C  13)                  1.3980         0.606605   
     16. B(C  15,C  14)                  1.3924         0.619335   
     17. B(C  16,C  15)                  1.3911         0.622329   
     18. B(C  17,C  16)                  1.3955         0.612255   
     19. B(C  17,C  12)                  1.4059         0.589433   
     20. B(H  18,C   0)                  1.0948         0.353784   
     21. B(H  19,C   0)                  1.0945         0.354207   
     22. B(H  20,C   0)                  1.0957         0.352644   
     23. B(H  21,C   2)                  1.0964         0.351700   
     24. B(H  22,C   2)                  1.0912         0.358484   
     25. B(H  23,C   2)                  1.0930         0.356113   
     26. B(H  24,C   3)                  1.0946         0.354100   
     27. B(H  25,C   3)                  1.0951         0.353415   
     28. B(H  26,C   3)                  1.0955         0.352914   
     29. B(H  27,C   7)                  1.0835         0.368787   
     30. B(H  28,C   8)                  1.0874         0.363615   
     31. B(H  29,C   9)                  1.0867         0.364425   
     32. B(H  30,C  10)                  1.0870         0.364088   
     33. B(H  31,C  11)                  1.0899         0.360175   
     34. B(H  32,C  13)                  1.0835         0.368764   
     35. B(H  33,C  14)                  1.0873         0.363654   
     36. B(H  34,C  15)                  1.0868         0.364378   
     37. B(H  35,C  16)                  1.0870         0.364142   
     38. B(H  36,C  17)                  1.0898         0.360398   
     39. A(H  19,C   0,H  20)          107.7911         0.289137   
     40. A(H  18,C   0,H  20)          107.7449         0.289083   
     41. A(C   1,C   0,H  19)          111.0107         0.320772   
     42. A(C   1,C   0,H  20)          111.4538         0.320540   
     43. A(C   1,C   0,H  18)          111.2032         0.320709   
     44. A(H  18,C   0,H  19)          107.4561         0.289283   
     45. A(C   0,C   1,C   2)          107.8374         0.359549   
     46. A(C   3,C   1,P   4)          108.9980         0.378219   
     47. A(C   0,C   1,C   3)          108.1752         0.357969   
     48. A(C   2,C   1,C   3)          108.9807         0.360387   
     49. A(C   2,C   1,P   4)          114.0276         0.379918   
     50. A(C   0,C   1,P   4)          108.6688         0.377326   
     51. A(C   1,C   2,H  23)          111.5666         0.323139   
     52. A(H  21,C   2,H  23)          107.4785         0.289259   
     53. A(H  22,C   2,H  23)          108.1541         0.290127   
     54. A(C   1,C   2,H  22)          111.8570         0.323491   
     55. A(H  21,C   2,H  22)          106.5024         0.289560   
     56. A(C   1,C   2,H  21)          111.0378         0.322480   
     57. A(H  24,C   3,H  26)          107.8363         0.289158   
     58. A(C   1,C   3,H  24)          111.0989         0.321474   
     59. A(H  24,C   3,H  25)          107.2929         0.289222   
     60. A(C   1,C   3,H  26)          111.4482         0.321298   
     61. A(H  25,C   3,H  26)          108.0447         0.289070   
     62. A(C   1,C   3,H  25)          110.9472         0.321372   
     63. A(C   1,P   4,O   5)          105.4204         0.495195   
     64. A(C   6,P   4,C  12)          111.0347         0.447029   
     65. A(O   5,P   4,C  12)          110.8570         0.525651   
     66. A(C   1,P   4,C  12)          108.2938         0.422279   
     67. A(O   5,P   4,C   6)          110.7079         0.525361   
     68. A(C   1,P   4,C   6)          110.3552         0.422057   
     69. A(C   7,C   6,C  11)          117.7795         0.427746   
     70. A(P   4,C   6,C  11)          117.8619         0.436240   
     71. A(P   4,C   6,C   7)          124.3586         0.438039   
     72. A(C   8,C   7,H  27)          117.7825         0.352944   
     73. A(C   6,C   7,H  27)          121.2080         0.352576   
     74. A(C   6,C   7,C   8)          121.0077         0.429976   
     75. A(C   9,C   8,H  28)          119.7720         0.353542   
     76. A(C   7,C   8,C   9)          120.2435         0.432322   
     77. A(C   7,C   8,H  28)          119.9844         0.352101   
     78. A(C   8,C   9,H  29)          120.2038         0.353675   
     79. A(C   8,C   9,C  10)          119.7206         0.434566   
     80. A(C  10,C   9,H  29)          120.0756         0.353955   
     81. A(C  11,C  10,H  30)          119.8901         0.352728   
     82. A(C   9,C  10,H  30)          120.2173         0.353899   
     83. A(C   9,C  10,C  11)          119.8927         0.433402   
     84. A(C  10,C  11,H  31)          119.0044         0.352084   
     85. A(C   6,C  11,H  31)          119.6396         0.349819   
     86. A(C   6,C  11,C  10)          121.3559         0.428927   
     87. A(C  13,C  12,C  17)          118.0401         0.427854   
     88. A(P   4,C  12,C  17)          118.1901         0.436604   
     89. A(P   4,C  12,C  13)          123.7691         0.438249   
     90. A(C  14,C  13,H  32)          117.9825         0.353025   
     91. A(C  12,C  13,H  32)          121.1876         0.352555   
     92. A(C  12,C  13,C  14)          120.8298         0.430064   
     93. A(C  15,C  14,H  33)          119.8056         0.353432   
     94. A(C  13,C  14,H  33)          119.9423         0.352192   
     95. A(C  13,C  14,C  15)          120.2514         0.432281   
     96. A(C  16,C  15,H  34)          120.0680         0.353840   
     97. A(C  14,C  15,H  34)          120.1488         0.353551   
     98. A(C  14,C  15,C  16)          119.7820         0.434275   
     99. A(C  15,C  16,H  35)          120.1886         0.353801   
    100. A(C  15,C  16,C  17)          119.8780         0.433378   
    101. A(C  17,C  16,H  35)          119.9327         0.352825   
    102. A(C  12,C  17,C  16)          121.2160         0.429171   
    103. A(C  16,C  17,H  36)          119.1903         0.352208   
    104. A(C  12,C  17,H  36)          119.5928         0.349955   
    105. D(C   2,C   1,C   0,H  20)     59.3028         0.010139   
    106. D(C   3,C   1,C   0,H  20)    -58.4243         0.010139   
    107. D(C   2,C   1,C   0,H  18)    179.5478         0.010139   
    108. D(C   3,C   1,C   0,H  19)   -178.5971         0.010139   
    109. D(C   2,C   1,C   0,H  19)    -60.8700         0.010139   
    110. D(C   3,C   1,C   0,H  18)     61.8207         0.010139   
    111. D(H  22,C   2,C   1,C   3)    -53.2312         0.010914   
    112. D(H  22,C   2,C   1,P   4)     68.7910         0.010914   
    113. D(H  21,C   2,C   1,C   0)    -51.6086         0.010914   
    114. D(H  22,C   2,C   1,C   0)   -170.4374         0.010914   
    115. D(H  21,C   2,C   1,C   3)     65.5977         0.010914   
    116. D(H  21,C   2,C   1,P   4)   -172.3802         0.010914   
    117. D(H  24,C   3,C   1,P   4)    -63.2556         0.010399   
    118. D(H  24,C   3,C   1,C   2)     61.7609         0.010399   
    119. D(H  24,C   3,C   1,C   0)    178.7525         0.010399   
    120. D(H  25,C   3,C   1,C   0)    -61.9813         0.010399   
    121. D(H  25,C   3,C   1,P   4)     56.0106         0.010399   
    122. D(H  25,C   3,C   1,C   2)   -178.9729         0.010399   
    123. D(C   6,P   4,C   1,C   3)     54.7595         0.003188   
    124. D(C   6,P   4,C   1,C   2)    -67.2532         0.003188   
    125. D(C   6,P   4,C   1,C   0)    172.4400         0.003188   
    126. D(O   5,P   4,C   1,C   3)    -64.8163         0.003188   
    127. D(O   5,P   4,C   1,C   0)     52.8642         0.003188   
    128. D(O   5,P   4,C   1,C   2)    173.1710         0.003188   
    129. D(C  11,C   6,P   4,C   1)   -125.8509         0.004501   
    130. D(C   7,C   6,P   4,C  12)    -66.0643         0.004501   
    131. D(C   7,C   6,P   4,C   1)     54.0266         0.004501   
    132. D(C   7,C   6,P   4,O   5)    170.3507         0.004501   
    133. D(C  11,C   6,P   4,O   5)     -9.5268         0.004501   
    134. D(C   8,C   7,C   6,C  11)      0.1614         0.024995   
    135. D(C   8,C   7,C   6,P   4)   -179.7162         0.024995   
    136. D(H  27,C   7,C   6,C  11)   -179.3425         0.024995   
    137. D(H  27,C   7,C   6,P   4)      0.7799         0.024995   
    138. D(H  28,C   8,C   7,H  27)     -0.4277         0.025322   
    139. D(H  28,C   8,C   7,C   6)   -179.9481         0.025322   
    140. D(C   9,C   8,C   7,H  27)    179.4804         0.025322   
    141. D(C   9,C   8,C   7,C   6)     -0.0400         0.025322   
    142. D(H  29,C   9,C   8,H  28)     -0.0768         0.026648   
    143. D(H  29,C   9,C   8,C   7)   -179.9851         0.026648   
    144. D(C  10,C   9,C   8,H  28)    179.8287         0.026648   
    145. D(C  10,C   9,C   8,C   7)     -0.0796         0.026648   
    146. D(H  30,C  10,C   9,H  29)     -0.0302         0.026913   
    147. D(H  30,C  10,C   9,C   8)   -179.9358         0.026913   
    148. D(C  11,C  10,C   9,H  29)    179.9777         0.026913   
    149. D(C  11,C  10,C   9,C   8)      0.0721         0.026913   
    150. D(H  31,C  11,C  10,H  30)     -0.0578         0.025820   
    151. D(H  31,C  11,C  10,C   9)    179.9344         0.025820   
    152. D(C   6,C  11,C  10,H  30)   -179.9374         0.025820   
    153. D(C   6,C  11,C  10,C   9)      0.0548         0.025820   
    154. D(H  31,C  11,C   6,C   7)    179.9518         0.023822   
    155. D(H  31,C  11,C   6,P   4)     -0.1625         0.023822   
    156. D(C  10,C  11,C   6,C   7)     -0.1694         0.023822   
    157. D(C  10,C  11,C   6,P   4)    179.7164         0.023822   
    158. D(C  17,C  12,P   4,O   5)    -19.7965         0.004519   
    159. D(C  17,C  12,P   4,C   1)     95.3954         0.004519   
    160. D(C  13,C  12,P   4,C   6)     36.3863         0.004519   
    161. D(C  13,C  12,P   4,O   5)    159.8860         0.004519   
    162. D(C  13,C  12,P   4,C   1)    -84.9221         0.004519   
    163. D(H  32,C  13,C  12,C  17)    179.2823         0.024980   
    164. D(H  32,C  13,C  12,P   4)     -0.4006         0.024980   
    165. D(C  14,C  13,C  12,C  17)     -0.5677         0.024980   
    166. D(C  14,C  13,C  12,P   4)    179.7494         0.024980   
    167. D(C  15,C  14,C  13,C  12)      0.1966         0.025398   
    168. D(H  33,C  14,C  13,H  32)      0.0450         0.025398   
    169. D(H  33,C  14,C  13,C  12)    179.8997         0.025398   
    170. D(C  15,C  14,C  13,H  32)   -179.6582         0.025398   
    171. D(H  34,C  15,C  14,H  33)      0.0805         0.026539   
    172. D(H  34,C  15,C  14,C  13)    179.7841         0.026539   
    173. D(C  16,C  15,C  14,H  33)   -179.5184         0.026539   
    174. D(C  16,C  15,C  14,C  13)      0.1851         0.026539   
    175. D(H  35,C  16,C  15,H  34)     -0.1050         0.026812   
    176. D(H  35,C  16,C  15,C  14)    179.4943         0.026812   
    177. D(C  17,C  16,C  15,H  34)   -179.7769         0.026812   
    178. D(C  17,C  16,C  15,C  14)     -0.1776         0.026812   
    179. D(H  36,C  17,C  16,H  35)     -0.2232         0.025900   
    180. D(H  36,C  17,C  16,C  15)    179.4496         0.025900   
    181. D(C  12,C  17,C  16,H  35)   -179.8834         0.025900   
    182. D(C  12,C  17,C  16,C  15)     -0.2106         0.025900   
    183. D(H  36,C  17,C  12,C  13)   -179.0820         0.023907   
    184. D(H  36,C  17,C  12,P   4)      0.6190         0.023907   
    185. D(C  16,C  17,C  12,C  13)      0.5769         0.023907   
    186. D(C  16,C  17,C  12,P   4)   -179.7222         0.023907   
    -----------------------------------------------------------------

Number of atoms                         .... 37
Number of degrees of freedom            .... 186


         *************************************************************
         *                GEOMETRY OPTIMIZATION CYCLE   1            *
         *************************************************************
---------------------------------
CARTESIAN COORDINATES (ANGSTROEM)
---------------------------------
  C     -0.994920   -2.858200    0.137727
  C      0.166571   -1.897042   -0.194472
  C      0.183145   -1.687688   -1.713031
  C      1.484225   -2.570094    0.232790
  P     -0.061281   -0.310316    0.796439
  O     -0.221903   -0.755843    2.242321
  C      1.377823    0.752785    0.614723
  C      1.904270    1.166676   -0.614848
  C      3.032396    1.990904   -0.674710
  C      3.652961    2.416020    0.496381
  C      3.145551    2.019062    1.728739
  C      2.019203    1.196402    1.785010
  C     -1.548822    0.511806    0.211047
  C     -1.579478    1.371369   -0.893817
  C     -2.773646    1.974817   -1.299203
  C     -3.954542    1.730779   -0.603014
  C     -3.943133    0.886020    0.502132
  C     -2.750054    0.284750    0.905259
  H     -1.052352   -3.052959    1.213550
  H     -1.955603   -2.434252   -0.170927
  H     -0.875516   -3.821702   -0.370165
  H      0.182203   -2.647669   -2.242732
  H      1.077217   -1.154210   -2.039845
  H     -0.691343   -1.125569   -2.050683
  H      2.344881   -1.935975   -0.002276
  H      1.498924   -2.751648    1.312636
  H      1.626438   -3.530448   -0.274741
  H      1.447861    0.866524   -1.550581
  H      3.426791    2.303076   -1.638735
  H      4.529474    3.056735    0.449113
  H      3.623198    2.347162    2.648400
  H      1.634369    0.893136    2.758616
  H     -0.681368    1.591385   -1.458639
  H     -2.780605    2.641226   -2.158348
  H     -4.881220    2.203516   -0.917482
  H     -4.859547    0.697366    1.055378
  H     -2.752170   -0.367900    1.777986

----------------------------
CARTESIAN COORDINATES (A.U.)
----------------------------
  NO LB      ZA    FRAG     MASS         X           Y           Z
   0 C     6.0000    0    12.011   -1.880126   -5.401215    0.260266
   1 C     6.0000    0    12.011    0.314774   -3.584890   -0.367499
   2 C     6.0000    0    12.011    0.346094   -3.189268   -3.237159
   3 C     6.0000    0    12.011    2.804779   -4.856774    0.439909
   4 P    15.0000    0    30.974   -0.115804   -0.586412    1.505052
   5 O     8.0000    0    15.999   -0.419336   -1.428336    4.237373
   6 C     6.0000    0    12.011    2.603708    1.422557    1.161658
   7 C     6.0000    0    12.011    3.598549    2.204698   -1.161894
   8 C     6.0000    0    12.011    5.730398    3.762263   -1.275017
   9 C     6.0000    0    12.011    6.903096    4.565616    0.938024
  10 C     6.0000    0    12.011    5.944230    3.815474    3.266843
  11 C     6.0000    0    12.011    3.815741    2.260872    3.373180
  12 C     6.0000    0    12.011   -2.926849    0.967173    0.398821
  13 C     6.0000    0    12.011   -2.984781    2.591512   -1.689069
  14 C     6.0000    0    12.011   -5.241431    3.731863   -2.455138
  15 C     6.0000    0    12.011   -7.473001    3.270698   -1.139531
  16 C     6.0000    0    12.011   -7.451441    1.674335    0.948892
  17 C     6.0000    0    12.011   -5.196849    0.538100    1.710692
  18 H     1.0000    0     1.008   -1.988657   -5.769256    2.293277
  19 H     1.0000    0     1.008   -3.695554   -4.600070   -0.323005
  20 H     1.0000    0     1.008   -1.654485   -7.221970   -0.699510
  21 H     1.0000    0     1.008    0.344314   -5.003369   -4.238149
  22 H     1.0000    0     1.008    2.035645   -2.181141   -3.854748
  23 H     1.0000    0     1.008   -1.306449   -2.127017   -3.875229
  24 H     1.0000    0     1.008    4.431183   -3.658463   -0.004301
  25 H     1.0000    0     1.008    2.832556   -5.199861    2.480523
  26 H     1.0000    0     1.008    3.073522   -6.671580   -0.519185
  27 H     1.0000    0     1.008    2.736061    1.637493   -2.930173
  28 H     1.0000    0     1.008    6.475697    4.352183   -3.096760
  29 H     1.0000    0     1.008    8.559465    5.776392    0.848701
  30 H     1.0000    0     1.008    6.846852    4.435493    5.004751
  31 H     1.0000    0     1.008    3.088510    1.687782    5.213029
  32 H     1.0000    0     1.008   -1.287599    3.007282   -2.756428
  33 H     1.0000    0     1.008   -5.254582    4.991194   -4.078687
  34 H     1.0000    0     1.008   -9.224169    4.164042   -1.733790
  35 H     1.0000    0     1.008   -9.183213    1.317831    1.994375
  36 H     1.0000    0     1.008   -5.200848   -0.695230    3.359907

--------------------------------
INTERNAL COORDINATES (ANGSTROEM)
--------------------------------
 C      0   0   0     0.000000000000     0.00000000     0.00000000
 C      1   0   0     1.543775313848     0.00000000     0.00000000
 C      2   1   0     1.533011817069   107.83738711     0.00000000
 C      2   1   3     1.540053205271   108.17521390   242.27293095
 P      2   1   3     1.884547835132   108.66884514   124.07076090
 O      5   2   1     1.521469188823   105.42041719    52.86422041
 C      5   2   1     1.798395052171   110.35520170   172.44002095
 C      7   5   2     1.400106084456   124.35857288    54.02661514
 C      8   7   5     1.398428949537   121.00769725   180.28375237
 C      9   8   7     1.391861581826   120.24348018   359.96002182
 C     10   9   8     1.390592248658   119.72055593   359.92040614
 C     11  10   9     1.395921100258   119.89267063     0.07205111
 C      5   2   1     1.797594671562   108.29381224   294.16702961
 C     13   5   2     1.400183130809   123.76909103   275.07785810
 C     14  13   5     1.398043100167   120.82979007   179.74937356
 C     15  14  13     1.392389683954   120.25142427     0.19656864
 C     16  15  14     1.391077141886   119.78198283     0.18512501
 C     17  16  15     1.395519434214   119.87795394   359.82236947
 H      1   2   3     1.094817167400   111.20319464   179.54780656
 H      1   2   3     1.094491217374   111.01065083   299.12999777
 H      1   2   3     1.095695077512   111.45378557    59.30281767
 H      3   2   1     1.096424898078   111.03777053   308.39142789
 H      3   2   1     1.091224499479   111.85696774   189.56258911
 H      3   2   1     1.093030605889   111.56662821    68.26222669
 H      4   2   1     1.094573743908   111.09889692   178.75252552
 H      4   2   1     1.095100588637   110.94718475   298.01868989
 H      4   2   1     1.095487133035   111.44816629    58.46628975
 H      8   7   5     1.083511257751   121.20803302     0.77985628
 H      9   8   7     1.087355955625   119.98440749   180.05188708
 H     10   9   8     1.086749747742   120.20375870   180.01487891
 H     11  10   9     1.087001665836   120.21727607   180.06418094
 H     12  11  10     1.089943171706   119.00439355   179.93438434
 H     14  13   5     1.083527804922   121.18757305   359.59941911
 H     15  14  13     1.087326774244   119.94230195   179.89970913
 H     16  15  14     1.086785401943   120.14880584   179.78406667
 H     17  16  15     1.086961861165   120.18856618   179.49430043
 H     18  17  16     1.089774709050   119.19034516   179.44959884

---------------------------
INTERNAL COORDINATES (A.U.)
---------------------------
 C      0   0   0     0.000000000000     0.00000000     0.00000000
 C      1   0   0     2.917312555481     0.00000000     0.00000000
 C      2   1   0     2.896972494325   107.83738711     0.00000000
 C      2   1   3     2.910278789629   108.17521390   242.27293095
 P      2   1   3     3.561279294674   108.66884514   124.07076090
 O      5   2   1     2.875160088074   105.42041719    52.86422041
 C      5   2   1     3.398474129202   110.35520170   172.44002095
 C      7   5   2     2.645817058059   124.35857288    54.02661514
 C      8   7   5     2.642647732373   121.00769725   180.28375237
 C      9   8   7     2.630237205977   120.24348018   359.96002182
 C     10   9   8     2.627838513918   119.72055593   359.92040614
 C     11  10   9     2.637908584049   119.89267063     0.07205111
 C      5   2   1     3.396961629049   108.29381224   294.16702961
 C     13   5   2     2.645962654565   123.76909103   275.07785810
 C     14  13   5     2.641918582733   120.82979007   179.74937356
 C     15  14  13     2.631235174370   120.25142427     0.19656864
 C     16  15  14     2.628754829323   119.78198283     0.18512501
 C     17  16  15     2.637149545230   119.87795394   359.82236947
 H      1   2   3     2.068904613102   111.20319464   179.54780656
 H      1   2   3     2.068288656819   111.01065083   299.12999777
 H      1   2   3     2.070563622783   111.45378557    59.30281767
 H      3   2   1     2.071942783780   111.03777053   308.39142789
 H      3   2   1     2.062115454641   111.85696774   189.56258911
 H      3   2   1     2.065528501123   111.56662821    68.26222669
 H      4   2   1     2.068444609367   111.09889692   178.75252552
 H      4   2   1     2.069440201620   110.94718475   298.01868989
 H      4   2   1     2.070170664671   111.44816629    58.46628975
 H      8   7   5     2.047539540171   121.20803302     0.77985628
 H      9   8   7     2.054804966220   119.98440749   180.05188708
 H     10   9   8     2.053659399341   120.20375870   180.01487891
 H     11  10   9     2.054135455546   120.21727607   180.06418094
 H     12  11  10     2.059694096061   119.00439355   179.93438434
 H     14  13   5     2.047570809792   121.18757305   359.59941911
 H     15  14  13     2.054749821400   119.94230195   179.89970913
 H     16  15  14     2.053726776016   120.14880584   179.78406667
 H     17  16  15     2.054060235620   120.18856618   179.49430043
 H     18  17  16     2.059375747778   119.19034516   179.44959884

---------------------
BASIS SET INFORMATION
---------------------
There are 4 groups of distinct atoms

 Group   1 Type C   : 7s4p1d contracted to 3s2p1d pattern {511/31/1}
 Group   2 Type P   : 10s7p1d contracted to 4s3p1d pattern {5311/511/1}
 Group   3 Type O   : 7s4p1d contracted to 3s2p1d pattern {511/31/1}
 Group   4 Type H   : 4s1p contracted to 2s1p pattern {31/1}

Atom   0C    basis set group =>   1
Atom   1C    basis set group =>   1
Atom   2C    basis set group =>   1
Atom   3C    basis set group =>   1
Atom   4P    basis set group =>   2
Atom   5O    basis set group =>   3
Atom   6C    basis set group =>   1
Atom   7C    basis set group =>   1
Atom   8C    basis set group =>   1
Atom   9C    basis set group =>   1
Atom  10C    basis set group =>   1
Atom  11C    basis set group =>   1
Atom  12C    basis set group =>   1
Atom  13C    basis set group =>   1
Atom  14C    basis set group =>   1
Atom  15C    basis set group =>   1
Atom  16C    basis set group =>   1
Atom  17C    basis set group =>   1
Atom  18H    basis set group =>   4
Atom  19H    basis set group =>   4
Atom  20H    basis set group =>   4
Atom  21H    basis set group =>   4
Atom  22H    basis set group =>   4
Atom  23H    basis set group =>   4
Atom  24H    basis set group =>   4
Atom  25H    basis set group =>   4
Atom  26H    basis set group =>   4
Atom  27H    basis set group =>   4
Atom  28H    basis set group =>   4
Atom  29H    basis set group =>   4
Atom  30H    basis set group =>   4
Atom  31H    basis set group =>   4
Atom  32H    basis set group =>   4
Atom  33H    basis set group =>   4
Atom  34H    basis set group =>   4
Atom  35H    basis set group =>   4
Atom  36H    basis set group =>   4
---------------------------------
AUXILIARY/J BASIS SET INFORMATION
---------------------------------
There are 4 groups of distinct atoms

 Group   1 Type C   : 12s5p4d2f1g contracted to 6s4p3d1f1g pattern {711111/2111/211/2/1}
 Group   2 Type P   : 14s5p5d2f1g contracted to 8s4p3d1f1g pattern {71111111/2111/311/2/1}
 Group   3 Type O   : 12s5p4d2f1g contracted to 6s4p3d1f1g pattern {711111/2111/211/2/1}
 Group   4 Type H   : 5s2p1d contracted to 3s1p1d pattern {311/2/1}

Atom   0C    basis set group =>   1
Atom   1C    basis set group =>   1
Atom   2C    basis set group =>   1
Atom   3C    basis set group =>   1
Atom   4P    basis set group =>   2
Atom   5O    basis set group =>   3
Atom   6C    basis set group =>   1
Atom   7C    basis set group =>   1
Atom   8C    basis set group =>   1
Atom   9C    basis set group =>   1
Atom  10C    basis set group =>   1
Atom  11C    basis set group =>   1
Atom  12C    basis set group =>   1
Atom  13C    basis set group =>   1
Atom  14C    basis set group =>   1
Atom  15C    basis set group =>   1
Atom  16C    basis set group =>   1
Atom  17C    basis set group =>   1
Atom  18H    basis set group =>   4
Atom  19H    basis set group =>   4
Atom  20H    basis set group =>   4
Atom  21H    basis set group =>   4
Atom  22H    basis set group =>   4
Atom  23H    basis set group =>   4
Atom  24H    basis set group =>   4
Atom  25H    basis set group =>   4
Atom  26H    basis set group =>   4
Atom  27H    basis set group =>   4
Atom  28H    basis set group =>   4
Atom  29H    basis set group =>   4
Atom  30H    basis set group =>   4
Atom  31H    basis set group =>   4
Atom  32H    basis set group =>   4
Atom  33H    basis set group =>   4
Atom  34H    basis set group =>   4
Atom  35H    basis set group =>   4
Atom  36H    basis set group =>   4


           ************************************************************
           *        Program running with 6 parallel MPI-processes     *
           *              working on a common directory               *
           ************************************************************
------------------------------------------------------------------------------
                             ORCA STARTUP CALCULATIONS
                           -- RI-GTO INTEGRALS CHOSEN --
------------------------------------------------------------------------------
------------------------------------------------------------------------------
                   ___                                                        
                  /   \      - P O W E R E D   B Y -                         
                 /     \                                                     
                 |  |  |   _    _      __       _____    __    __             
                 |  |  |  | |  | |    /  \     |  _  \  |  |  /  |          
                  \  \/   | |  | |   /    \    | | | |  |  | /  /          
                 / \  \   | |__| |  /  /\  \   | |_| |  |  |/  /          
                |  |  |   |  __  | /  /__\  \  |    /   |      \           
                |  |  |   | |  | | |   __   |  |    \   |  |\   \          
                \     /   | |  | | |  |  |  |  | |\  \  |  | \   \       
                 \___/    |_|  |_| |__|  |__|  |_| \__\ |__|  \__/        
                                                                              
                      - O R C A' S   B I G   F R I E N D -                    
                                      &                                       
                       - I N T E G R A L  F E E D E R -                       
                                                                              
 v1 FN, 2020, v2 2021, v3 2022-2024                                           
------------------------------------------------------------------------------


----------------------
SHARK INTEGRAL PACKAGE
----------------------

Number of atoms                             ...     37
Number of basis functions                   ...    351
Number of shells                            ...    167
Maximum angular momentum                    ...      2
Integral batch strategy                     ... SHARK/LIBINT Hybrid
RI-J (if used) integral strategy            ... SPLIT-RIJ (Revised 2003 algorithm where possible)
Printlevel                                  ...      1
Contraction scheme used                     ... SEGMENTED contraction
Prescreening option                         ... SCHWARTZ
   Thresh                                   ... 2.500e-11
   Tcut                                     ... 2.500e-12
   Tpresel                                  ... 2.500e-12 
Coulomb Range Separation                    ... NOT USED
Exchange Range Separation                   ... NOT USED
Multipole approximations                    ... NOT USED
Finite Nucleus Model                        ... NOT USED
CABS basis                                  ... NOT available
Auxiliary Coulomb fitting basis             ... AVAILABLE
   # of basis functions in Aux-J            ...   1093
   # of shells in Aux-J                     ...    367
   Maximum angular momentum in Aux-J        ...      4
Auxiliary J/K fitting basis                 ... NOT available
Auxiliary Correlation fitting basis         ... NOT available
Auxiliary 'external' fitting basis          ... NOT available

Checking pre-screening integrals            ... done (  0.0 sec) Dimension = 167
Check shell pair data                       ... done (  0.0 sec)
Shell pair information
Shell pair cut-off parameter TPreSel        ...   2.5e-12
Total number of shell pairs                 ...     14028
Shell pairs after pre-screening             ...     11466
Total number of primitive shell pairs       ...     50704
Primitive shell pairs kept                  ...     27050
          la=0 lb=0:   3679 shell pairs
          la=1 lb=0:   4304 shell pairs
          la=1 lb=1:   1304 shell pairs
          la=2 lb=0:   1309 shell pairs
          la=2 lb=1:    756 shell pairs
          la=2 lb=2:    114 shell pairs

Calculating one electron integrals          ... done (  0.0 sec)
Calculating RI/J V-Matrix + Cholesky decomp.... done (  0.1 sec)
Calculating Nuclear repulsion               ... done (  0.0 sec) ENN=   1459.626542773544 Eh

Diagonalization of the overlap matrix:
Smallest eigenvalue                        ... 2.755e-04
Time for diagonalization                   ...    0.019 sec
Threshold for overlap eigenvalues          ... 1.000e-07
Number of eigenvalues below threshold      ... 0
Time for construction of square roots      ...    0.010 sec
Total time needed                          ...    0.032 sec

-------------------
DFT GRID GENERATION
-------------------

General Integration Accuracy     IntAcc      ... 4.388
Radial Grid Type                 RadialGrid  ... OptM3 with GC (2021)
Angular Grid (max. ang.)         AngularGrid ... 4 (Lebedev-302)
Angular grid pruning method      GridPruning ... 4 (adaptive)
Weight generation scheme         WeightScheme... mBecke (2022)
Basis function cutoff            BFCut       ... 1.0000e-11
Integration weight cutoff        WCut        ... 1.0000e-14
Partially contracted basis set               ... off
Rotationally invariant grid construction     ... off
Angular grids for H and He will be reduced by one unit

Total number of grid points                  ...   168891
Total number of batches                      ...     2659
Average number of points per batch           ...       63
Average number of grid points per atom       ...     4565
Initializing property integral containers    ... done (  0.0 sec)

SHARK setup successfully completed in   1.2 seconds

Maximum memory used throughout the entire STARTUP-calculation: 47.0 MB


           ************************************************************
           *        Program running with 6 parallel MPI-processes     *
           *              working on a common directory               *
           ************************************************************
-------------------------------------------------------------------------------
                                 ORCA GUESS
                   Start orbitals & Density for SCF / CASSCF
-------------------------------------------------------------------------------

------------
SCF SETTINGS
------------
Hamiltonian:
 Density Functional     Method          .... DFT(GTOs)
 Exchange Functional    Exchange        .... B88
   X-Alpha parameter    XAlpha          ....  0.666667
   Becke's b parameter  XBeta           ....  0.004200
 Correlation Functional Correlation     .... P86
 LDA part of GGA corr.  LDAOpt          .... PW91-LDA
 Gradients option       PostSCFGGA      .... off
   NL short-range parameter             ....  4.400000
 RI-approximation to the Coulomb term is turned on
   Number of AuxJ basis functions       .... 1093


General Settings:
 Integral files         IntName         .... data/geom_opt_PO_BP86/80102/80102
 Hartree-Fock type      HFTyp           .... RHF
 Total Charge           Charge          ....    0
 Multiplicity           Mult            ....    1
 Number of Electrons    NEL             ....  138
 Basis Dimension        Dim             ....  351
 Nuclear Repulsion      ENuc            ....   1459.6265427735 Eh

Convergence Acceleration:
 AO-DIIS                CNVDIIS         .... on
   Start iteration      DIISMaxIt       ....    12
   Startup error        DIISStart       ....  0.200000
   # of expansion vecs  DIISMaxEq       ....     5
   Bias factor          DIISBfac        ....   1.050
   Max. coefficient     DIISMaxC        ....  10.000
 MO-DIIS                CNVKDIIS        .... off
 Trust-Rad. Augm. Hess. CNVTRAH         .... auto
   Auto Start mean grad. ratio tolernc. ....  1.125000
   Auto Start start iteration           ....    50
   Auto Start num. interpolation iter.  ....    10
   Max. Number of Micro iterations      ....    24
   Max. Number of Macro iterations      .... Maxiter - #DIIS iter
   Number of Davidson start vectors     ....     2
   Converg. threshold    (grad. norm)   ....   1.000e-05
   Grad. Scal. Fac. for Micro threshold ....   0.100
   Minimum threshold for Micro iter.    ....   1.000e-02
   NR start threshold (gradient norm)   ....   1.000e-04
   Initial trust radius                 ....   0.400
   Minimum AH scaling param. (alpha)    ....   1.000
   Maximum AH scaling param. (alpha)    .... 1000.000
   Quad. conv. algorithm                .... NR
   White noise on init. David. guess    .... on
   Maximum white noise                  ....   0.010
   Pseudo random numbers                .... off
   Inactive MOs                         .... canonical
   Orbital update algorithm             .... Taylor
   Preconditioner                       .... Diag
   Full preconditioner red. dimension   ....   250
 SOSCF                  CNVSOSCF        .... on
   Start iteration      SOSCFMaxIt      ....   150
   Startup grad/error   SOSCFStart      ....  0.003300
   Hessian update       SOSCFHessUp     .... L-BFGS
 Level Shifting         CNVShift        .... on
   Level shift para.    LevelShift      ....    0.2500
   Turn off err/grad.   ShiftErr        ....    0.0010
 Zerner damping         CNVZerner       .... off
 Static damping         CNVDamp         .... on
   Fraction old density DampFac         ....    0.7000
   Max. Damping (<1)    DampMax         ....    0.9800
   Min. Damping (>=0)   DampMin         ....    0.0000
   Turn off err/grad.   DampErr         ....    0.1000

SCF Procedure:
 Maximum # iterations   MaxIter         ....   125
 SCF integral mode      SCFMode         .... Direct
   Integral package                     .... SHARK and LIBINT hybrid scheme
 Reset frequency        DirectResetFreq ....    20
 Integral Threshold     Thresh          ....  2.500e-11 Eh
 Primitive CutOff       TCut            ....  2.500e-12 Eh

Convergence Tolerance:
 Convergence Check Mode ConvCheckMode   .... Total+1el-Energy
 Convergence forced     ConvForced      .... 0
 Energy Change          TolE            ....  1.000e-08 Eh
 1-El. energy change                    ....  1.000e-05 Eh
 Orbital Gradient       TolG            ....  1.000e-05
 Orbital Rotation angle TolX            ....  1.000e-05
 DIIS Error             TolErr          ....  5.000e-07

------------------------------
INITIAL GUESS: MODEL POTENTIAL
------------------------------
Loading Hartree-Fock densities                     ... done
Calculating cut-offs                               ... done
Initializing the effective Hamiltonian             ... done
Setting up the integral package (SHARK)            ... done
Starting the Coulomb interaction                   ... done (   0.1 sec)
Making the grid                                    ... done (   0.2 sec)
Mapping shells                                     ... done
Starting the XC term evaluation                    ... done (   0.1 sec)
  promolecular density results
     # of electrons  =    137.982721148
     EX              =   -118.770155454
     EC              =     -5.112229741
     EX+EC           =   -123.882385195
Transforming the Hamiltonian                       ... done (   0.0 sec)
Diagonalizing the Hamiltonian                      ... done (   0.0 sec)
Back transforming the eigenvectors                 ... done (   0.0 sec)
Now organizing SCF variables                       ... done
                      ------------------
                      INITIAL GUESS DONE (   0.5 sec)
                      ------------------
             **** ENERGY FILE WAS UPDATED (data/geom_opt_PO_BP86/80102/80102.en.tmp) ****
Finished Guess after   0.6 sec
Maximum memory used throughout the entire GUESS-calculation: 26.5 MB


           ************************************************************
           *        Program running with 6 parallel MPI-processes     *
           *              working on a common directory               *
           ************************************************************

-------------------------------------------------------------------------------------------
                                      ORCA LEAN-SCF
                              memory conserving SCF solver
-------------------------------------------------------------------------------------------

----------------------------------------D-I-I-S--------------------------------------------
Iteration    Energy (Eh)           Delta-E    RMSDP     MaxDP     DIISErr   Damp  Time(sec)
-------------------------------------------------------------------------------------------
               ***  Starting incremental Fock matrix formation  ***
    1    -1036.6889824812722054     0.00e+00  3.53e-03  1.56e-01  3.33e-01  0.700   1.0
    2    -1036.9246101960409305    -2.36e-01  2.03e-03  6.93e-02  7.85e-02  0.700   1.0
                               ***Turning on AO-DIIS***
    3    -1036.9974215295121667    -7.28e-02  6.88e-04  1.88e-02  2.65e-02  0.700   0.9
    4    -1037.0471924177679739    -4.98e-02  1.19e-03  4.75e-02  1.52e-02  0.000   0.9
    5    -1037.1589644402340582    -1.12e-01  2.93e-04  8.84e-03  7.17e-03  0.000   0.9
                              *** Initializing SOSCF ***
---------------------------------------S-O-S-C-F--------------------------------------
Iteration    Energy (Eh)           Delta-E    RMSDP     MaxDP     MaxGrad    Time(sec)
--------------------------------------------------------------------------------------
    6    -1037.1601610050918225    -1.20e-03  1.08e-04  2.64e-03  2.58e-03     0.9
               *** Restarting incremental Fock matrix formation ***
    7    -1037.1602355016045749    -7.45e-05  1.00e-04  2.84e-03  4.69e-04     0.9
    8    -1037.1601999412630448     3.56e-05  6.22e-05  1.77e-03  9.39e-04     0.7
    9    -1037.1602493113034598    -4.94e-05  2.36e-05  6.34e-04  1.43e-04     1.1
   10    -1037.1602469409097012     2.37e-06  1.53e-05  5.00e-04  2.53e-04     1.2
   11    -1037.1602503731621709    -3.43e-06  1.38e-05  6.67e-04  5.14e-05     0.7
   12    -1037.1602496367756885     7.36e-07  9.84e-06  4.31e-04  9.94e-05     0.8
   13    -1037.1602505780522279    -9.41e-07  3.77e-06  1.03e-04  1.58e-05     0.8
   14    -1037.1602505053040204     7.27e-08  2.33e-06  7.34e-05  2.61e-05     0.8
   15    -1037.1602505962844134    -9.10e-08  1.16e-06  3.26e-05  8.10e-06     0.7
   16    -1037.1602505933999510     2.88e-09  7.99e-07  2.20e-05  1.67e-05     0.7
                 **** Energy Check signals convergence ****

               *****************************************************
               *                     SUCCESS                       *
               *           SCF CONVERGED AFTER  16 CYCLES          *
               *****************************************************

             **** ENERGY FILE WAS UPDATED (data/geom_opt_PO_BP86/80102/80102.en.tmp) ****

----------------
TOTAL SCF ENERGY
----------------

Total Energy       :      -1037.16025059339995 Eh          -28222.56523 eV

Components:
Nuclear Repulsion  :       1459.62654277354409 Eh           39718.45748 eV
Electronic Energy  :      -2496.78679336694404 Eh          -67941.02270 eV
One Electron Energy:      -4313.87138048231736 Eh         -117386.40807 eV
Two Electron Energy:       1817.08458711537332 Eh           49445.38537 eV

Virial components:
Potential Energy   :      -2065.19703600168668 Eh          -56196.86834 eV
Kinetic Energy     :       1028.03678540828673 Eh           27974.30312 eV
Virial Ratio       :          2.00887464856765

DFT components:
N(Alpha)           :       69.000114877260 electrons
N(Beta)            :       69.000114877260 electrons
N(Total)           :      138.000229754519 electrons
E(X)               :     -120.642697333618 Eh       
E(C)               :       -5.110645699780 Eh       
E(XC)              :     -125.753343033397 Eh       

---------------
SCF CONVERGENCE
---------------

  Last Energy change         ...   -2.8845e-09  Tolerance :   1.0000e-08
  Last MAX-Density change    ...    2.2026e-05  Tolerance :   1.0000e-07
  Last RMS-Density change    ...    7.9883e-07  Tolerance :   5.0000e-09
  Last DIIS Error            ...    2.5775e-03  Tolerance :   5.0000e-07
  Last Orbital Gradient      ...    1.6728e-05  Tolerance :   1.0000e-05
  Last Orbital Rotation      ...    2.4358e-05  Tolerance :   1.0000e-05


----------------
ORBITAL ENERGIES
----------------

  NO   OCC          E(Eh)            E(eV) 
   0   2.0000     -76.406753     -2079.1335 
   1   2.0000     -18.701554      -508.8951 
   2   2.0000      -9.933524      -270.3049 
   3   2.0000      -9.931124      -270.2396 
   4   2.0000      -9.930389      -270.2196 
   5   2.0000      -9.929613      -270.1985 
   6   2.0000      -9.928384      -270.1651 
   7   2.0000      -9.928162      -270.1590 
   8   2.0000      -9.927199      -270.1328 
   9   2.0000      -9.926943      -270.1259 
  10   2.0000      -9.926668      -270.1184 
  11   2.0000      -9.926370      -270.1103 
  12   2.0000      -9.926201      -270.1057 
  13   2.0000      -9.925492      -270.0864 
  14   2.0000      -9.924575      -270.0614 
  15   2.0000      -9.908341      -269.6197 
  16   2.0000      -9.901531      -269.4344 
  17   2.0000      -9.900638      -269.4100 
  18   2.0000      -6.366060      -173.2293 
  19   2.0000      -4.587374      -124.8288 
  20   2.0000      -4.587213      -124.8244 
  21   2.0000      -4.586691      -124.8102 
  22   2.0000      -0.842302       -22.9202 
  23   2.0000      -0.785874       -21.3847 
  24   2.0000      -0.784142       -21.3376 
  25   2.0000      -0.733722       -19.9656 
  26   2.0000      -0.694536       -18.8993 
  27   2.0000      -0.682688       -18.5769 
  28   2.0000      -0.681184       -18.5360 
  29   2.0000      -0.679739       -18.4966 
  30   2.0000      -0.617170       -16.7940 
  31   2.0000      -0.611674       -16.6445 
  32   2.0000      -0.586895       -15.9702 
  33   2.0000      -0.555274       -15.1098 
  34   2.0000      -0.552817       -15.0429 
  35   2.0000      -0.546709       -14.8767 
  36   2.0000      -0.522018       -14.2048 
  37   2.0000      -0.490158       -13.3379 
  38   2.0000      -0.479725       -13.0540 
  39   2.0000      -0.448782       -12.2120 
  40   2.0000      -0.424453       -11.5500 
  41   2.0000      -0.419241       -11.4081 
  42   2.0000      -0.415742       -11.3129 
  43   2.0000      -0.411105       -11.1867 
  44   2.0000      -0.402991       -10.9659 
  45   2.0000      -0.398321       -10.8389 
  46   2.0000      -0.390038       -10.6135 
  47   2.0000      -0.384467       -10.4619 
  48   2.0000      -0.382589       -10.4108 
  49   2.0000      -0.375951       -10.2302 
  50   2.0000      -0.351686        -9.5699 
  51   2.0000      -0.347496        -9.4558 
  52   2.0000      -0.344745        -9.3810 
  53   2.0000      -0.340141        -9.2557 
  54   2.0000      -0.339186        -9.2297 
  55   2.0000      -0.321400        -8.7457 
  56   2.0000      -0.317693        -8.6449 
  57   2.0000      -0.311772        -8.4838 
  58   2.0000      -0.307406        -8.3649 
  59   2.0000      -0.301713        -8.2100 
  60   2.0000      -0.294145        -8.0041 
  61   2.0000      -0.287955        -7.8357 
  62   2.0000      -0.282322        -7.6824 
  63   2.0000      -0.248140        -6.7522 
  64   2.0000      -0.242739        -6.6053 
  65   2.0000      -0.241740        -6.5781 
  66   2.0000      -0.240677        -6.5492 
  67   2.0000      -0.209611        -5.7038 
  68   2.0000      -0.200667        -5.4604 
  69   0.0000      -0.072005        -1.9594 
  70   0.0000      -0.058515        -1.5923 
  71   0.0000      -0.053322        -1.4510 
  72   0.0000      -0.049902        -1.3579 
  73   0.0000       0.015160         0.4125 
  74   0.0000       0.033174         0.9027 
  75   0.0000       0.045687         1.2432 
  76   0.0000       0.048349         1.3156 
  77   0.0000       0.066162         1.8003 
  78   0.0000       0.069245         1.8842 
  79   0.0000       0.073898         2.0109 
*Only the first 10 virtual orbitals were printed.

                    ********************************
                    * MULLIKEN POPULATION ANALYSIS *
                    ********************************

-----------------------
MULLIKEN ATOMIC CHARGES
-----------------------
   0 C :    0.043977
   1 C :   -0.398163
   2 C :    0.039385
   3 C :    0.050163
   4 P :    0.565190
   5 O :   -0.471106
   6 C :   -0.080468
   7 C :   -0.019660
   8 C :    0.011314
   9 C :    0.015541
  10 C :    0.014607
  11 C :    0.003164
  12 C :   -0.065022
  13 C :   -0.002527
  14 C :    0.007698
  15 C :    0.015785
  16 C :    0.013854
  17 C :   -0.002793
  18 H :    0.043184
  19 H :    0.021377
  20 H :    0.020805
  21 H :    0.019966
  22 H :    0.019530
  23 H :    0.026161
  24 H :    0.023852
  25 H :    0.041030
  26 H :    0.021535
  27 H :    0.003962
  28 H :   -0.003609
  29 H :    0.001530
  30 H :    0.003874
  31 H :    0.018576
  32 H :   -0.019796
  33 H :   -0.003806
  34 H :    0.000794
  35 H :    0.002364
  36 H :    0.017733
Sum of atomic charges:   -0.0000000

--------------------------------
MULLIKEN REDUCED ORBITAL CHARGES
--------------------------------
  0 C s       :     2.992847  s :     2.992847
      pz      :     1.025596  p :     2.937631
      px      :     0.960125
      py      :     0.951910
      dz2     :     0.006832  d :     0.025545
      dxz     :     0.002627
      dyz     :     0.004540
      dx2y2   :     0.006441
      dxy     :     0.005105

  1 C s       :     3.272517  s :     3.272517
      pz      :     1.003934  p :     3.082079
      px      :     1.042303
      py      :     1.035843
      dz2     :     0.010002  d :     0.043566
      dxz     :     0.008086
      dyz     :     0.008692
      dx2y2   :     0.008611
      dxy     :     0.008176

  2 C s       :     2.981399  s :     2.981399
      pz      :     0.946537  p :     2.952914
      px      :     0.997883
      py      :     1.008494
      dz2     :     0.005883  d :     0.026302
      dxz     :     0.004829
      dyz     :     0.006728
      dx2y2   :     0.003373
      dxy     :     0.005489

  3 C s       :     2.987695  s :     2.987695
      pz      :     1.019960  p :     2.936505
      px      :     0.947286
      py      :     0.969259
      dz2     :     0.007287  d :     0.025637
      dxz     :     0.002658
      dyz     :     0.003947
      dx2y2   :     0.005119
      dxy     :     0.006625

  4 P s       :     5.258862  s :     5.258862
      pz      :     2.824787  p :     8.712650
      px      :     2.957538
      py      :     2.930325
      dz2     :     0.095890  d :     0.463298
      dxz     :     0.109118
      dyz     :     0.123575
      dx2y2   :     0.047897
      dxy     :     0.086819

  5 O s       :     3.821580  s :     3.821580
      pz      :     1.372079  p :     4.637934
      px      :     1.643978
      py      :     1.621877
      dz2     :     0.004504  d :     0.011593
      dxz     :     0.003000
      dyz     :     0.003371
      dx2y2   :     0.000382
      dxy     :     0.000337

  6 C s       :     3.056387  s :     3.056387
      pz      :     0.986758  p :     2.990799
      px      :     0.998827
      py      :     1.005214
      dz2     :     0.009977  d :     0.033282
      dxz     :     0.008380
      dyz     :     0.007576
      dx2y2   :     0.002766
      dxy     :     0.004583

  7 C s       :     3.212861  s :     3.212861
      pz      :     0.894473  p :     2.773653
      px      :     0.927621
      py      :     0.951559
      dz2     :     0.008183  d :     0.033146
      dxz     :     0.009104
      dyz     :     0.006218
      dx2y2   :     0.005161
      dxy     :     0.004480

  8 C s       :     3.170097  s :     3.170097
      pz      :     0.859181  p :     2.785905
      px      :     0.957061
      py      :     0.969663
      dz2     :     0.008287  d :     0.032684
      dxz     :     0.008597
      dyz     :     0.006048
      dx2y2   :     0.005079
      dxy     :     0.004673

  9 C s       :     3.171125  s :     3.171125
      pz      :     0.967338  p :     2.780051
      px      :     0.888682
      py      :     0.924030
      dz2     :     0.010610  d :     0.033283
      dxz     :     0.008577
      dyz     :     0.007463
      dx2y2   :     0.002431
      dxy     :     0.004202

 10 C s       :     3.172042  s :     3.172042
      pz      :     0.871139  p :     2.780524
      px      :     0.945508
      py      :     0.963877
      dz2     :     0.008086  d :     0.032827
      dxz     :     0.009221
      dyz     :     0.006433
      dx2y2   :     0.004656
      dxy     :     0.004432

 11 C s       :     3.247888  s :     3.247888
      pz      :     0.897729  p :     2.716433
      px      :     0.903017
      py      :     0.915687
      dz2     :     0.008061  d :     0.032515
      dxz     :     0.008451
      dyz     :     0.005955
      dx2y2   :     0.005335
      dxy     :     0.004713

 12 C s       :     3.050185  s :     3.050185
      pz      :     0.982571  p :     2.981500
      px      :     1.004023
      py      :     0.994906
      dz2     :     0.007524  d :     0.033337
      dxz     :     0.008063
      dyz     :     0.005193
      dx2y2   :     0.005644
      dxy     :     0.006913

 13 C s       :     3.216576  s :     3.216576
      pz      :     0.939122  p :     2.752857
      px      :     0.852542
      py      :     0.961193
      dz2     :     0.006158  d :     0.033093
      dxz     :     0.009228
      dyz     :     0.004668
      dx2y2   :     0.006909
      dxy     :     0.006130

 14 C s       :     3.169766  s :     3.169766
      pz      :     0.890889  p :     2.789830
      px      :     0.966946
      py      :     0.931995
      dz2     :     0.005403  d :     0.032705
      dxz     :     0.008065
      dyz     :     0.004517
      dx2y2   :     0.007538
      dxy     :     0.007183

 15 C s       :     3.170687  s :     3.170687
      pz      :     0.956543  p :     2.780294
      px      :     0.879242
      py      :     0.944509
      dz2     :     0.007465  d :     0.033234
      dxz     :     0.008269
      dyz     :     0.004841
      dx2y2   :     0.005820
      dxy     :     0.006838

 16 C s       :     3.171372  s :     3.171372
      pz      :     0.934884  p :     2.781932
      px      :     0.876184
      py      :     0.970864
      dz2     :     0.006227  d :     0.032842
      dxz     :     0.008970
      dyz     :     0.004751
      dx2y2   :     0.006919
      dxy     :     0.005976

 17 C s       :     3.246018  s :     3.246018
      pz      :     0.889904  p :     2.724158
      px      :     0.929847
      py      :     0.904408
      dz2     :     0.005384  d :     0.032616
      dxz     :     0.008304
      dyz     :     0.004342
      dx2y2   :     0.007367
      dxy     :     0.007219

 18 H s       :     0.933492  s :     0.933492
      pz      :     0.013602  p :     0.023324
      px      :     0.004646
      py      :     0.005076

 19 H s       :     0.955214  s :     0.955214
      pz      :     0.006291  p :     0.023410
      px      :     0.010905
      py      :     0.006214

 20 H s       :     0.956134  s :     0.956134
      pz      :     0.007186  p :     0.023061
      px      :     0.004857
      py      :     0.011018

 21 H s       :     0.957031  s :     0.957031
      pz      :     0.006062  p :     0.023003
      px      :     0.005700
      py      :     0.011240

 22 H s       :     0.956930  s :     0.956930
      pz      :     0.005120  p :     0.023540
      px      :     0.010641
      py      :     0.007779

 23 H s       :     0.950373  s :     0.950373
      pz      :     0.005130  p :     0.023465
      px      :     0.010576
      py      :     0.007760

 24 H s       :     0.952780  s :     0.952780
      pz      :     0.005958  p :     0.023367
      px      :     0.009511
      py      :     0.007898

 25 H s       :     0.935812  s :     0.935812
      pz      :     0.013331  p :     0.023158
      px      :     0.004440
      py      :     0.005386

 26 H s       :     0.955400  s :     0.955400
      pz      :     0.007060  p :     0.023065
      px      :     0.004769
      py      :     0.011237

 27 H s       :     0.972639  s :     0.972639
      pz      :     0.011151  p :     0.023400
      px      :     0.006246
      py      :     0.006003

 28 H s       :     0.981225  s :     0.981225
      pz      :     0.011509  p :     0.022384
      px      :     0.005485
      py      :     0.005391

 29 H s       :     0.976163  s :     0.976163
      pz      :     0.003738  p :     0.022308
      px      :     0.010624
      py      :     0.007946

 30 H s       :     0.973796  s :     0.973796
      pz      :     0.010922  p :     0.022331
      px      :     0.006017
      py      :     0.005392

 31 H s       :     0.958369  s :     0.958369
      pz      :     0.011863  p :     0.023055
      px      :     0.005779
      py      :     0.005412

 32 H s       :     0.996585  s :     0.996585
      pz      :     0.006902  p :     0.023211
      px      :     0.011172
      py      :     0.005137

 33 H s       :     0.981424  s :     0.981424
      pz      :     0.010374  p :     0.022382
      px      :     0.003737
      py      :     0.008271

 34 H s       :     0.976894  s :     0.976894
      pz      :     0.004969  p :     0.022313
      px      :     0.011020
      py      :     0.006324

 35 H s       :     0.975311  s :     0.975311
      pz      :     0.006757  p :     0.022325
      px      :     0.010821
      py      :     0.004748

 36 H s       :     0.959303  s :     0.959303
      pz      :     0.011131  p :     0.022964
      px      :     0.003796
      py      :     0.008037



                     *******************************
                     * LOEWDIN POPULATION ANALYSIS *
                     *******************************

----------------------
LOEWDIN ATOMIC CHARGES
----------------------
   0 C :   -0.059970
   1 C :   -0.176739
   2 C :   -0.068731
   3 C :   -0.060799
   4 P :    0.894999
   5 O :   -0.507647
   6 C :   -0.185776
   7 C :   -0.032343
   8 C :   -0.027984
   9 C :   -0.015739
  10 C :   -0.024216
  11 C :   -0.002819
  12 C :   -0.185509
  13 C :   -0.027702
  14 C :   -0.027921
  15 C :   -0.016601
  16 C :   -0.025724
  17 C :   -0.006825
  18 H :    0.031453
  19 H :    0.023965
  20 H :    0.027337
  21 H :    0.029247
  22 H :    0.019882
  23 H :    0.024093
  24 H :    0.023987
  25 H :    0.031823
  26 H :    0.027667
  27 H :    0.023220
  28 H :    0.031832
  29 H :    0.032367
  30 H :    0.034394
  31 H :    0.037608
  32 H :    0.025028
  33 H :    0.031604
  34 H :    0.032094
  35 H :    0.033874
  36 H :    0.036570

-------------------------------
LOEWDIN REDUCED ORBITAL CHARGES
-------------------------------
  0 C s       :     2.844929  s :     2.844929
      pz      :     1.078896  p :     3.145861
      px      :     1.028921
      py      :     1.038045
      dz2     :     0.018789  d :     0.069181
      dxz     :     0.006414
      dyz     :     0.011864
      dx2y2   :     0.016046
      dxy     :     0.016068

  1 C s       :     2.910490  s :     2.910490
      pz      :     1.048889  p :     3.166482
      px      :     1.053438
      py      :     1.064155
      dz2     :     0.026013  d :     0.099767
      dxz     :     0.015845
      dyz     :     0.018708
      dx2y2   :     0.018438
      dxy     :     0.020762

  2 C s       :     2.842471  s :     2.842471
      pz      :     1.017951  p :     3.154474
      px      :     1.064212
      py      :     1.072312
      dz2     :     0.019091  d :     0.071786
      dxz     :     0.011424
      dyz     :     0.017031
      dx2y2   :     0.009362
      dxy     :     0.014878

  3 C s       :     2.844046  s :     2.844046
      pz      :     1.074306  p :     3.147084
      px      :     1.017956
      py      :     1.054822
      dz2     :     0.019802  d :     0.069668
      dxz     :     0.006718
      dyz     :     0.010639
      dx2y2   :     0.013627
      dxy     :     0.018881

  4 P s       :     4.950796  s :     4.950796
      pz      :     2.788161  p :     8.508073
      px      :     2.856858
      py      :     2.863054
      dz2     :     0.138104  d :     0.646131
      dxz     :     0.142940
      dyz     :     0.175502
      dx2y2   :     0.063951
      dxy     :     0.125634

  5 O s       :     3.662654  s :     3.662654
      pz      :     1.495084  p :     4.826876
      px      :     1.674420
      py      :     1.657372
      dz2     :     0.008640  d :     0.018117
      dxz     :     0.003635
      dyz     :     0.004979
      dx2y2   :     0.000481
      dxy     :     0.000382

  6 C s       :     2.910796  s :     2.910796
      pz      :     1.089701  p :     3.185641
      px      :     1.059991
      py      :     1.035950
      dz2     :     0.029224  d :     0.089339
      dxz     :     0.024181
      dyz     :     0.019362
      dx2y2   :     0.005310
      dxy     :     0.011262

  7 C s       :     2.865001  s :     2.865001
      pz      :     1.047779  p :     3.076293
      px      :     1.030291
      py      :     0.998223
      dz2     :     0.024199  d :     0.091049
      dxz     :     0.025815
      dyz     :     0.016494
      dx2y2   :     0.011278
      dxy     :     0.013264

  8 C s       :     2.863746  s :     2.863746
      pz      :     1.047494  p :     3.075591
      px      :     1.028333
      py      :     0.999765
      dz2     :     0.024076  d :     0.088647
      dxz     :     0.024019
      dyz     :     0.015614
      dx2y2   :     0.011252
      dxy     :     0.013687

  9 C s       :     2.864096  s :     2.864096
      pz      :     1.072486  p :     3.061625
      px      :     1.009217
      py      :     0.979921
      dz2     :     0.031122  d :     0.090018
      dxz     :     0.024514
      dyz     :     0.019368
      dx2y2   :     0.004539
      dxy     :     0.010474

 10 C s       :     2.863384  s :     2.863384
      pz      :     1.049081  p :     3.071671
      px      :     1.026278
      py      :     0.996311
      dz2     :     0.023925  d :     0.089161
      dxz     :     0.025526
      dyz     :     0.016655
      dx2y2   :     0.010154
      dxy     :     0.012901

 11 C s       :     2.869495  s :     2.869495
      pz      :     1.055426  p :     3.045016
      px      :     1.015191
      py      :     0.974399
      dz2     :     0.023102  d :     0.088308
      dxz     :     0.024132
      dyz     :     0.015679
      dx2y2   :     0.011728
      dxy     :     0.013666

 12 C s       :     2.910951  s :     2.910951
      pz      :     1.060845  p :     3.185238
      px      :     1.085678
      py      :     1.038716
      dz2     :     0.018436  d :     0.089320
      dxz     :     0.022801
      dyz     :     0.015028
      dx2y2   :     0.015813
      dxy     :     0.017241

 13 C s       :     2.865048  s :     2.865048
      pz      :     1.020700  p :     3.071816
      px      :     1.049248
      py      :     1.001868
      dz2     :     0.015868  d :     0.090837
      dxz     :     0.025496
      dyz     :     0.013826
      dx2y2   :     0.018482
      dxy     :     0.017165

 14 C s       :     2.863809  s :     2.863809
      pz      :     1.015250  p :     3.075423
      px      :     1.062930
      py      :     0.997243
      dz2     :     0.013802  d :     0.088689
      dxz     :     0.023127
      dyz     :     0.011263
      dx2y2   :     0.021254
      dxy     :     0.019244

 15 C s       :     2.864214  s :     2.864214
      pz      :     1.026034  p :     3.062516
      px      :     1.044802
      py      :     0.991681
      dz2     :     0.018872  d :     0.089871
      dxz     :     0.023477
      dyz     :     0.014015
      dx2y2   :     0.016082
      dxy     :     0.017425

 16 C s       :     2.863317  s :     2.863317
      pz      :     1.024711  p :     3.073239
      px      :     1.044624
      py      :     1.003905
      dz2     :     0.016047  d :     0.089167
      dxz     :     0.024319
      dyz     :     0.014113
      dx2y2   :     0.018451
      dxy     :     0.016236

 17 C s       :     2.869073  s :     2.869073
      pz      :     1.012654  p :     3.049036
      px      :     1.052856
      py      :     0.983526
      dz2     :     0.014113  d :     0.088715
      dxz     :     0.023402
      dyz     :     0.010855
      dx2y2   :     0.021279
      dxy     :     0.019066

 18 H s       :     0.899974  s :     0.899974
      pz      :     0.042213  p :     0.068573
      px      :     0.012843
      py      :     0.013517

 19 H s       :     0.908781  s :     0.908781
      pz      :     0.015573  p :     0.067254
      px      :     0.034692
      py      :     0.016990

 20 H s       :     0.906292  s :     0.906292
      pz      :     0.019187  p :     0.066371
      px      :     0.013010
      py      :     0.034174

 21 H s       :     0.904112  s :     0.904112
      pz      :     0.019979  p :     0.066641
      px      :     0.013062
      py      :     0.033599

 22 H s       :     0.911735  s :     0.911735
      pz      :     0.016249  p :     0.068384
      px      :     0.031735
      py      :     0.020400

[...]
      dz2     :     0.021918  d :     0.086236
      dxz     :     0.025461
      dyz     :     0.014954
      dx2y2   :     0.011031
      dxy     :     0.012872

 13 C s       :     2.872979  s :     2.872979
      pz      :     1.036192  p :     3.073112
      px      :     1.043224
      py      :     0.993695
      dz2     :     0.018661  d :     0.088114
      dxz     :     0.028552
      dyz     :     0.013137
      dx2y2   :     0.014779
      dxy     :     0.012985

 14 C s       :     2.872474  s :     2.872474
      pz      :     1.026459  p :     3.072416
      px      :     1.056440
      py      :     0.989517
      dz2     :     0.017873  d :     0.085839
      dxz     :     0.024378
      dyz     :     0.010094
      dx2y2   :     0.017211
      dxy     :     0.016283

 15 C s       :     2.874438  s :     2.874438
      pz      :     1.044545  p :     3.061463
      px      :     1.036792
      py      :     0.980127
      dz2     :     0.022616  d :     0.085749
      dxz     :     0.025623
      dyz     :     0.013963
      dx2y2   :     0.011315
      dxy     :     0.012231

 16 C s       :     2.872818  s :     2.872818
      pz      :     1.036396  p :     3.068598
      px      :     1.041541
      py      :     0.990661
      dz2     :     0.018967  d :     0.086089
      dxz     :     0.027387
      dyz     :     0.013134
      dx2y2   :     0.014375
      dxy     :     0.012226

 17 C s       :     2.876963  s :     2.876963
      pz      :     1.035552  p :     3.052971
      px      :     1.048059
      py      :     0.969360
      dz2     :     0.017811  d :     0.086617
      dxz     :     0.025504
      dyz     :     0.009794
      dx2y2   :     0.017369
      dxy     :     0.016139

 18 H s       :     0.898736  s :     0.898736
      pz      :     0.041933  p :     0.067049
      px      :     0.012261
      py      :     0.012855

 19 H s       :     0.905685  s :     0.905685
      pz      :     0.015744  p :     0.064949
      px      :     0.032417
      py      :     0.016787

 20 H s       :     0.906734  s :     0.906734
      pz      :     0.017649  p :     0.064239
      px      :     0.012422
      py      :     0.034168

 21 H s       :     0.902312  s :     0.902312
      pz      :     0.019373  p :     0.064346
      px      :     0.012448
      py      :     0.032525

 22 H s       :     0.907961  s :     0.907961
      pz      :     0.013823  p :     0.065830
      px      :     0.030823
      py      :     0.021184

 23 H s       :     0.905970  s :     0.905970
      pz      :     0.016242  p :     0.065841
      px      :     0.031148
      py      :     0.018451

 24 H s       :     0.905697  s :     0.905697
      pz      :     0.013276  p :     0.064927
      px      :     0.030565
      py      :     0.021085

 25 H s       :     0.899066  s :     0.899066
      pz      :     0.041775  p :     0.066638
      px      :     0.012171
      py      :     0.012692

 26 H s       :     0.906396  s :     0.906396
      pz      :     0.017310  p :     0.064206
      px      :     0.012787
      py      :     0.034109

 27 H s       :     0.906151  s :     0.906151
      pz      :     0.033956  p :     0.068843
      px      :     0.020258
      py      :     0.014628

 28 H s       :     0.899897  s :     0.899897
      pz      :     0.033636  p :     0.066013
      px      :     0.014710
      py      :     0.017666

 29 H s       :     0.899367  s :     0.899367
      pz      :     0.010988  p :     0.065849
      px      :     0.031632
      py      :     0.023229

 30 H s       :     0.898124  s :     0.898124
      pz      :     0.032925  p :     0.065888
      px      :     0.019262
      py      :     0.013701

 31 H s       :     0.889136  s :     0.889136
      pz      :     0.035094  p :     0.072061
      px      :     0.017567
      py      :     0.019400

 32 H s       :     0.905633  s :     0.905633
      pz      :     0.023161  p :     0.068336
      px      :     0.031555
      py      :     0.013620

 33 H s       :     0.899929  s :     0.899929
      pz      :     0.034911  p :     0.066005
      px      :     0.011191
      py      :     0.019903

 34 H s       :     0.899429  s :     0.899429
      pz      :     0.013751  p :     0.065849
      px      :     0.033633
      py      :     0.018465

 35 H s       :     0.898294  s :     0.898294
      pz      :     0.022754  p :     0.065906
      px      :     0.030212
      py      :     0.012941

 36 H s       :     0.889977  s :     0.889977
      pz      :     0.038521  p :     0.071532
      px      :     0.012715
      py      :     0.020296



                      *****************************
                      * MAYER POPULATION ANALYSIS *
                      *****************************

  NA   - Mulliken gross atomic population
  ZA   - Total nuclear charge
  QA   - Mulliken gross atomic charge
  VA   - Mayer's total valence
  BVA  - Mayer's bonded valence
  FA   - Mayer's free valence

  ATOM       NA         ZA         QA         VA         BVA        FA
  0 C      5.9703     6.0000     0.0297     3.8914     3.8914    -0.0000
  1 C      6.4086     6.0000    -0.4086     4.1013     4.1013    -0.0000
  2 C      5.9807     6.0000     0.0193     3.8856     3.8856    -0.0000
  3 C      5.9693     6.0000     0.0307     3.8904     3.8904    -0.0000
  4 P     14.4230    15.0000     0.5770     4.6276     4.6276    -0.0000
  5 O      8.4629     8.0000    -0.4629     2.1454     2.1454    -0.0000
  6 C      6.1064     6.0000    -0.1064     3.7565     3.7565    -0.0000
  7 C      6.0205     6.0000    -0.0205     3.8839     3.8839    -0.0000
  8 C      5.9997     6.0000     0.0003     3.8679     3.8679    -0.0000
  9 C      5.9911     6.0000     0.0089     3.8278     3.8278    -0.0000
 10 C      5.9953     6.0000     0.0047     3.8199     3.8199    -0.0000
 11 C      5.9970     6.0000     0.0030     3.8942     3.8942     0.0000
 12 C      6.1020     6.0000    -0.1020     3.7489     3.7489    -0.0000
 13 C      6.0054     6.0000    -0.0054     3.8867     3.8867    -0.0000
 14 C      6.0023     6.0000    -0.0023     3.8697     3.8697    -0.0000
 15 C      5.9911     6.0000     0.0089     3.8275     3.8275    -0.0000
 16 C      5.9956     6.0000     0.0044     3.8213     3.8213    -0.0000
 17 C      5.9992     6.0000     0.0008     3.8956     3.8956    -0.0000
 18 H      0.9488     1.0000     0.0512     1.0198     1.0198     0.0000
 19 H      0.9642     1.0000     0.0358     0.9994     0.9994     0.0000
 20 H      0.9737     1.0000     0.0263     0.9933     0.9933    -0.0000
 21 H      0.9710     1.0000     0.0290     0.9956     0.9956    -0.0000
 22 H      0.9691     1.0000     0.0309     1.0072     1.0072     0.0000
 23 H      0.9663     1.0000     0.0337     1.0094     1.0094     0.0000
 24 H      0.9627     1.0000     0.0373     0.9978     0.9978     0.0000
 25 H      0.9497     1.0000     0.0503     1.0179     1.0179     0.0000
 26 H      0.9731     1.0000     0.0269     0.9934     0.9934    -0.0000
 27 H      0.9933     1.0000     0.0067     0.9905     0.9905    -0.0000
 28 H      0.9966     1.0000     0.0034     0.9790     0.9790    -0.0000
 29 H      0.9909     1.0000     0.0091     0.9789     0.9789     0.0000
 30 H      0.9892     1.0000     0.0108     0.9800     0.9800     0.0000
 31 H      0.9720     1.0000     0.0280     1.0244     1.0244     0.0000
 32 H      1.0083     1.0000    -0.0083     0.9940     0.9940    -0.0000
 33 H      0.9966     1.0000     0.0034     0.9787     0.9787    -0.0000
 34 H      0.9911     1.0000     0.0089     0.9789     0.9789     0.0000
 35 H      0.9896     1.0000     0.0104     0.9799     0.9799     0.0000
 36 H      0.9732     1.0000     0.0268     1.0221     1.0221    -0.0000

  Mayer bond orders larger than 0.100000
B(  0-C ,  1-C ) :   1.0185 B(  0-C , 18-H ) :   0.9495 B(  0-C , 19-H ) :   0.9585 
B(  0-C , 20-H ) :   0.9521 B(  1-C ,  2-C ) :   1.0138 B(  1-C ,  3-C ) :   1.0205 
B(  1-C ,  4-P ) :   0.8750 B(  2-C , 21-H ) :   0.9459 B(  2-C , 22-H ) :   0.9508 
B(  2-C , 23-H ) :   0.9522 B(  3-C , 24-H ) :   0.9570 B(  3-C , 25-H ) :   0.9502 
B(  3-C , 26-H ) :   0.9535 B(  4-P ,  5-O ) :   1.8270 B(  4-P ,  6-C ) :   0.8613 
B(  4-P , 12-C ) :   0.8606 B(  6-C ,  7-C ) :   1.3512 B(  6-C , 11-C ) :   1.3910 
B(  7-C ,  8-C ) :   1.4041 B(  7-C , 27-H ) :   0.9602 B(  8-C ,  9-C ) :   1.3780 
B(  8-C , 28-H ) :   0.9735 B(  9-C , 10-C ) :   1.3803 B(  9-C , 29-H ) :   0.9762 
B( 10-C , 11-C ) :   1.3647 B( 10-C , 30-H ) :   0.9790 B( 11-C , 31-H ) :   0.9658 
B( 12-C , 13-C ) :   1.3524 B( 12-C , 17-C ) :   1.3880 B( 13-C , 14-C ) :   1.4044 
B( 13-C , 32-H ) :   0.9657 B( 14-C , 15-C ) :   1.3778 B( 14-C , 33-H ) :   0.9736 
B( 15-C , 16-C ) :   1.3803 B( 15-C , 34-H ) :   0.9760 B( 16-C , 17-C ) :   1.3657 
B( 16-C , 35-H ) :   0.9786 B( 17-C , 36-H ) :   0.9667 

-------
TIMINGS
-------

Total SCF time: 0 days 0 hours 0 min 5 sec 

Total time                  ....       5.135 sec
Sum of individual times     ....       5.053 sec  ( 98.4%)

SCF preparation             ....       0.128 sec  (  2.5%)
Fock matrix formation       ....       4.515 sec  ( 87.9%)
  Startup                   ....       0.022 sec  (  0.5% of F)
  Split-RI-J                ....       1.580 sec  ( 35.0% of F)
  XC integration            ....       2.836 sec  ( 62.8% of F)
    Basis function eval.    ....       0.803 sec  ( 28.3% of XC)
    Density eval.           ....       0.862 sec  ( 30.4% of XC)
    XC-Functional eval.     ....       0.072 sec  (  2.5% of XC)
    XC-Potential eval.      ....       0.614 sec  ( 21.7% of XC)
Diagonalization             ....       0.000 sec  (  0.0%)
Density matrix formation    ....       0.047 sec  (  0.9%)
Total Energy calculation    ....       0.019 sec  (  0.4%)
Population analysis         ....       0.088 sec  (  1.7%)
Orbital Transformation      ....       0.035 sec  (  0.7%)
Orbital Orthonormalization  ....       0.000 sec  (  0.0%)
DIIS solution               ....       0.044 sec  (  0.9%)
SOSCF solution              ....       0.177 sec  (  3.4%)
Finished LeanSCF after   5.2 sec

Maximum memory used throughout the entire LEANSCF-calculation: 38.9 MB


-------------------------------------------------------------------------------
                          DFT DISPERSION CORRECTION                            
                                                                               
                              DFTD3 V3.1  Rev 1                                
                          USING Becke-Johnson damping                          
-------------------------------------------------------------------------------
The BP86 functional is recognized
Active option DFTDOPT                   ...         4   

molecular C6(AA) [au] = 15939.418316 


            DFT-D V3
 parameters
 s6 scaling factor         :     1.0000 
 a1 scaling factor         :     0.3946 
 s8 scaling factor         :     3.2822 
 a2 scaling factor         :     4.8516 
 ad hoc parameters k1-k3   :    16.0000     1.3333    -4.0000 

 Edisp/kcal,au: -53.455767277975  -0.085187178497 
 E6   /kcal   : -19.700612125 
 E8   /kcal   : -33.755155153 
 % E8         :  63.145955754 

-------------------------   ----------------
Dispersion correction           -0.085187178
-------------------------   ----------------


-------------------------   --------------------
FINAL SINGLE POINT ENERGY     -1037.255445326155
-------------------------   --------------------

                                *** OPTIMIZATION RUN DONE ***



           ************************************************************
           *        Program running with 6 parallel MPI-processes     *
           *              working on a common directory               *
           ************************************************************

------------------------------------------------------------------------------
                              ORCA PROPERTY CALCULATIONS
------------------------------------------------------------------------------

GBWName                                 ... data/geom_opt_PO_BP86/80102/80102.gbw
Number of atoms                         ...     37
Number of basis functions               ...    351
Max core memory                         ...   1024 MB

Electric properties:
Dipole moment                           ... YES
Quadrupole moment                       ...  NO
Static polarizability (Dipole/Dipole)   ...  NO
Static polarizability (Dipole/Quad.)    ...  NO
Static polarizability (Quad./Quad.)     ...  NO
Static polarizability (Velocity)        ...  NO

Atomic electric properties:
Dipole moment                           ...  NO
Quadrupole moment                       ...  NO
Static polarizability                   ...  NO

Choice of electric origin               ... Center of mass
Position of electric origin             ...    -0.097183     0.413398     0.473648

General magnetic properties:
Magnetizability                         ...  NO

EPR properties:
g-Tensor (aka g-matrix)                 ...  NO
Zero-Field splitting spin-orbit         ...  NO
Zero-field splitting spin-spin          ...  NO
Hyperfine couplings                     ...  NO (   0 nuclei)
Quadrupole couplings                    ...  NO (   0 nuclei)
Contact density                         ...  NO (   0 nuclei)

NMR properties:
Chemical shifts                         ...  NO (   0 nuclei)
Spin-rotation constants                 ...  NO (   0 nuclei)
Spin-spin couplings                     ...  NO (   0 nuclei,    0 pairs)

Choice of magnetic origin               ... GIAO
Position of magnetic origin             ...     0.000000     0.000000     0.000000

Properties with geometric perturbations:
SCF Hessian                             ...  NO
IR spectrum                             ...  NO
VCD spectrum                            ...  NO
X-ray spectroscopy properties:
SCF XES/XAS/RIXS spectra                ...  NO


-------------
DIPOLE MOMENT
-------------

Method             : SCF
Type of density    : Electron Density
Multiplicity       :   1
Irrep              :   0
Energy             : -1037.1702581476572504 Eh
Relativity type    : 
Basis              : AO
                                X                 Y                 Z
Electronic contribution:     -1.703951178       9.436874011       7.082680019
Nuclear contribution   :      1.859267243      -9.056466258      -8.364865828
                        -----------------------------------------
Total Dipole Moment    :      0.155316065       0.380407753      -1.282185809
                        -----------------------------------------
Magnitude (a.u.)       :      1.346415087
Magnitude (Debye)      :      3.422315175



--------------------
Rotational spectrum 
--------------------
 
Rotational constants in cm-1:             0.017526             0.010307             0.008531 
Rotational constants in MHz :           525.422868           309.009831           255.741402 

Dipole components along the rotational axes: 
x,y,z [a.u.] :     0.008560     0.458745     1.265825 
x,y,z [Debye]:     0.021757     1.166036     3.217472 

 

Dipole moment calculation done in   0.0 sec 

Maximum memory used throughout the entire PROP-calculation: 19.6 MB

--------------------------------
SUGGESTED CITATIONS FOR THIS RUN
--------------------------------

Below you find a list of papers that are relevant to this ORCA run
We neither can nor want to force you to cite these papers, but we appreciate if you do
You receive ORCA, which is the product of decades of hard work by many enthusiastic individuals, for free
The only thing we kindly ask in return is that you cite our papers,
We deeply appreciate it, if you show your appreciation for ORCA by not just citing the generic ORCA reference.

Please note that relegating all ORCA citations to the supporting information does *not* help us.
SI sections are not indexed - citations you put there will not count into any citation statistics
But we need these citations in order to attract the funding resources that allow us to do what we are doing

Therefore, if you are a happy ORCA user, please consider citing a few of the papers listed below in the main body of your paper

In addition to the list printed below, the program has created the file data/geom_opt_PO_BP86/80102/80102.bibtex that contains the list in bibtex format
You can import this file easily into all common literature databanks and citation aid programs


List of essential papers. We consider these as the minimum necessary citations

  1. Neese,F.
     Software update: the ORCA program system, version 5.0
     WIRES Comput. Molec. Sci., 2022 12(1)e1606
     doi.org/10.1002/wcms.1606

List of papers to cite with high priority. The work reported in these papers was absolutely
necessary for this run to complete.
Our perspective: the developers of density functionals and basis sets usually get cited in chemistry papers
Good! But without the algorithms to do something with them, the functionals or basis sets would not do anything.
Hence, in our opinion, the algorithm design and method developments papers are equally worthy of getting cited

  1. Neese,F.
     An improvement of the resolution of the identity approximation for the formation of the Coulomb matrix
     J. Comp. Chem., 2003 24(14)1740-1747
     doi.org/10.1002/jcc.10318
  2. Neese,F.
     The SHARK Integral Generation and Digestion System
     J. Comp. Chem., 2022  1-16
     doi.org/10.1002/jcc.26942
  3. Grimme,S.; Antony,J.; Ehrlich,S.; Krieg,H.
     A consistent and accurate ab initio parametrization of density functional dispersion correction (DFT-D) for the 94 elements H-Pu
     J. Chem. Phys., 2010 132 154104-XXXX
     doi.org/10.1063/1.3382344
  4. Grimme,S.; Ehrlich,S.; Goerigk,L.
     Effect of the damping function in dispersion corrected density functional theory
     J. Comput. Chem., 2011 32(7)1456-1465
     doi.org/10.1002/jcc.21759

List of suggested additional citations. These are papers that are important in the 'surrounding' of 
of this run, or papers that preceded the highly important papers. If you like your results we are grateful for a citation.

  1. Neese,F.
     The ORCA program system
     WIRES Comput. Molec. Sci., 2012 2(1)73-78
     doi.org/10.1002/wcms.81
  2. Neese,F.
     Software update: the ORCA program system, version 4.0
     WIRES Comput. Molec. Sci., 2018 8(1)1-6
     doi.org/10.1002/wcms.1327
  3. Neese,F.; Wennmohs,F.; Becker,U.; Riplinger,C.
     The ORCA quantum chemistry program package
     J. Chem. Phys., 2020 152 Art. No. L224108
     doi.org/10.1063/5.0004608

List of optional additional citations

  1. Neese,F.
     Approximate second-order SCF convergence for spin unrestricted wavefunctions
     Chem. Phys. Lett., 2000 325(1-3)93-98
     doi.org/10.1016/s0009-2614(00)00662-x

Timings for individual modules:

Sum of individual times          ...      215.096 sec (=   3.585 min)
Startup calculation              ...       16.670 sec (=   0.278 min)   7.8 %
SCF iterations                   ...      128.640 sec (=   2.144 min)  59.8 %
Property calculations            ...        0.186 sec (=   0.003 min)   0.1 %
SCF Gradient evaluation          ...       69.379 sec (=   1.156 min)  32.3 %
Geometry relaxation              ...        0.221 sec (=   0.004 min)   0.1 %
                             ****ORCA TERMINATED NORMALLY****
TOTAL RUN TIME: 0 days 0 hours 3 minutes 37 seconds 908 msec
