
                                 *****************
                                 * O   R   C   A *
                                 *****************

                                            #,                                       
                                            ###                                      
                                            ####                                     
                                            #####                                    
                                            ######                                   
                                           ########,                                 
                                     ,,################,,,,,                         
                               ,,#################################,,                 
                          ,,##########################################,,             
                       ,#########################################, ''#####,          
                    ,#############################################,,   '####,        
                  ,##################################################,,,,####,       
                ,###########''''           ''''###############################       
              ,#####''   ,,,,##########,,,,          '''####'''          '####       
            ,##' ,,,,###########################,,,                        '##       
           ' ,,###''''                  '''############,,,                           
         ,,##''                                '''############,,,,        ,,,,,,###''
      ,#''                                            '''#######################'''  
     '                                                          ''''####''''         
             ,#######,   #######,   ,#######,      ##                                
            ,#'     '#,  ##    ##  ,#'     '#,    #''#        ,####,   ,####,        
            ##       ##  ##   ,#'  ##            #'  '#       #'       #'  '#        
            ##       ##  #######   ##           ,######,      #####,   #    #        
            '#,     ,#'  ##    ##  '#,     ,#' ,#      #,     #,   #   #,  ,#        
             '#######'   ##     ##  '#######'  #'      '#     '####' # '####'        



                #########################################################
                #                        -***-                          #
                #          Department of theory and spectroscopy        #
                #                                                       #
                #                      Frank Neese                      #
                #                                                       #
                #     Directorship, Architecture, Infrastructure        #
                #                    SHARK, DRIVERS                     #
                #        Core code/Algorithms in most modules           #
                #                                                       #
                #        Max Planck Institute fuer Kohlenforschung      #
                #                Kaiser Wilhelm Platz 1                 #
                #                 D-45470 Muelheim/Ruhr                 #
                #                      Germany                          #
                #                                                       #
                #                  All rights reserved                  #
                #                        -***-                          #
                #########################################################


                         Program Version 6.0.0  -   RELEASE   -


 With contributions from (in alphabetic order):
   Daniel Aravena         : Magnetic Suceptibility
   Michael Atanasov       : Ab Initio Ligand Field Theory (pilot matlab implementation)
   Alexander A. Auer      : GIAO ZORA, VPT2 properties, NMR spectrum
   Ute Becker             : All parallelization in ORCA, NUMFREQ, NUMCALC
   Giovanni Bistoni       : ED, misc. LED, open-shell LED, HFLD
   Martin Brehm           : Molecular dynamics
   Dmytro Bykov           : pre 5.0 version of the SCF Hessian
   Marcos Casanova-Páez   : Triplet and SCS-CIS(D). UHF-(DLPNO)-IP/EA/STEOM-CCSD. UHF-CVS-IP/STEOM-CCSD
   Vijay G. Chilkuri      : MRCI spin determinant printing, contributions to CSF-ICE
   Pauline Colinet        : FMM embedding
   Dipayan Datta          : RHF DLPNO-CCSD density
   Achintya Kumar Dutta   : EOM-CC, STEOM-CC
   Nicolas Foglia         : Exact transition moments, OPA infrastructure, MCD improvements
   Dmitry Ganyushin       : Spin-Orbit,Spin-Spin,Magnetic field MRCI
   Miquel Garcia          : C-PCM and meta-GGA Hessian, CCSD/C-PCM, Gaussian charge scheme
   Tiago L. C. Gouveia    : GS-ROHF, GS-ROCIS
   Yang Guo               : DLPNO-NEVPT2, F12-NEVPT2, CIM, IAO-localization
   Andreas Hansen         : Spin unrestricted coupled pair/coupled cluster methods
   Ingolf Harden          : AUTO-CI MPn and infrastructure 
   Benjamin Helmich-Paris : MC-RPA, TRAH-(SCF,CASSCF), AVAS, COSX integrals, SCF dyn. polar.
   Lee Huntington         : MR-EOM, pCC
   Robert Izsak           : Overlap fitted RIJCOSX, COSX-SCS-MP3, EOM
   Riya Kayal             : Wick's Theorem for AUTO-CI, AUTO-CI UHF-CCSDT
   Emily Kempfer          : AUTO-CI, RHF CISDT and CCSDT
   Christian Kollmar      : KDIIS, OOCD, Brueckner-CCSD(T), CCSD density, CASPT2, CASPT2-K, improved NEVPT2
   Axel Koslowski         : Symmetry handling
   Simone Kossmann        : Meta GGA functionals, TD-DFT gradient, OOMP2, (MP2 Hessian; deprecated post 5.0)
   Lucas Lang             : DCDCAS
   Marvin Lechner         : AUTO-CI (C++ implementation), FIC-MRCC
   Spencer Leger          : CASSCF response
   Dagmar Lenk            : GEPOL surface, SMD, ORCA-2-JSON
   Dimitrios Liakos       : Extrapolation schemes; Compound Job, initial MDCI parallelization
   Dimitrios Manganas     : Further ROCIS development; embedding schemes. LFT, Crystal Embedding
   Dimitrios Pantazis     : SARC Basis sets
   Anastasios Papadopoulos: AUTO-CI, single reference methods and gradients
   Taras Petrenko         : pre 6.0 DFT Hessian and TD-DFT gradient, (ASA, deprecated), ECA, 1-Electron XAS/XES, NRVS
   Peter Pinski           : DLPNO-MP2, DLPNO-MP2 Gradient
   Christoph Reimann      : Effective Core Potentials
   Marius Retegan         : Local ZFS, SOC
   Christoph Riplinger    : Optimizer, TS searches, QM/MM, DLPNO-CCSD(T), (RO)-DLPNO pert. Triples
   Michael Roemelt        : Original ROCIS implementation
   Masaaki Saitow         : Open-shell DLPNO-CCSD energy and density
   Barbara Sandhoefer     : DKH picture change effects
   Kantharuban Sivalingam : CASSCF convergence/infrastructure, NEVPT2 and variants, FIC-MRCI
   Bernardo de Souza      : ESD, SOC TD-DFT
   Georgi Stoychev        : AutoAux, RI-MP2 NMR, DLPNO-MP2 response, X2C
   Van Anh Tran           : RI-MP2 g-tensors
   Willem Van den Heuvel  : Paramagnetic NMR
   Zikuan Wang            : NOTCH, Electric field optimization 
   Frank Wennmohs         : Technical directorship and infrastructure
   Hang Xu                : AUTO-CI-Response properties 


 We gratefully acknowledge several colleagues who have allowed us to
 interface, adapt or use parts of their codes:
   Stefan Grimme, W. Hujo, H. Kruse, P. Pracht,  : VdW corrections, initial TS optimization,
                  C. Bannwarth, S. Ehlert,         DFT functionals, gCP, sTDA/sTD-DF
                  L. Wittmann, M. Mueller
   Ed Valeev, F. Pavosevic, A. Kumar             : LibInt (2-el integral package), F12 methods
   Garnet Chan, S. Sharma, J. Yang, R. Olivares  : DMRG
   Ulf Ekstrom                                   : XCFun DFT Library
   Mihaly Kallay                                 : mrcc  (arbitrary order and MRCC methods)
   Frank Weinhold                                : gennbo (NPA and NBO analysis)
   Simon Mueller                                 : openCOSMO-RS
   Christopher J. Cramer and Donald G. Truhlar   : smd solvation model
   Lars Goerigk                                  : TD-DFT with DH, B97 family of functionals
   V. Asgeirsson, H. Jonsson                     : NEB implementation
   FAccTs GmbH                                   : IRC, NEB, NEB-TS, DLPNO-Multilevel, CI-OPT
                                                   MM, QMMM, 2- and 3-layer-ONIOM, Crystal-QMMM,
                                                   LR-CPCM, SF, NACMEs, symmetry and pop. for TD-DFT,
                                                   nearIR, NL-DFT gradient (VV10), updates on ESD,
                                                   ML-optimized integration grids, MBIS, APM,
                                                   GOAT, DOCKER, SOLVATOR, interface openCOSMO-RS
   S Lehtola, MJT Oliveira, MAL Marques          : LibXC Library
   Liviu Ungur et al                             : ANISO software


 Your calculation uses the libint2 library for the computation of 2-el integrals
 For citations please refer to: http://libint.valeyev.net

 Your ORCA version has been built with support for libXC version: 6.2.2
 For citations please refer to: https://libxc.gitlab.io

 This ORCA versions uses:
   CBLAS   interface :  Fast vector & matrix operations
   LAPACKE interface :  Fast linear algebra routines
   Shared memory     :  Shared parallel matrices


Your calculation utilizes the atom-pairwise dispersion correction
with the Becke-Johnson damping scheme (D3BJ)


Warning: RI is on but no J-basis has been assigned. Assigning Def2/J (nothing to worry about!)
================================================================================

----- Orbital basis set information -----
Your calculation utilizes the basis: def2-SVP
   F. Weigend and R. Ahlrichs, Phys. Chem. Chem. Phys. 7, 3297 (2005).

----- AuxJ basis set information -----
Your calculation utilizes the auxiliary basis: def2/J
   F. Weigend, Phys. Chem. Chem. Phys. 8, 1057 (2006).

================================================================================
                                        WARNINGS
                       Please study these warnings very carefully!
================================================================================


WARNING: Geometry Optimization
  ===> : Switching off AutoStart
         For restart on a previous wavefunction, please use MOREAD

================================================================================
                                       INPUT FILE
================================================================================
NAME = data/geom_opt_P_BP86/13956/13956.inp
|  1> ! RI BP86 def2-SVP D3BJ TIGHTSCF Opt
|  2> %pal
|  3> nprocs 6
|  4> end
|  5> 
|  6> * xyz 0 1
|  7> C     -3.749845   -4.245279    0.902439
|  8> C     -2.802428   -3.233071    0.331535
|  9> C     -1.929626   -3.580499   -0.701996
| 10> C     -1.069705   -2.625365   -1.254376
| 11> C     -1.063517   -1.296975   -0.795227
| 12> C     -1.956351   -0.956738    0.230035
| 13> C     -2.818058   -1.911071    0.783897
| 14> P      0.094766   -0.128334   -1.579147
| 15> C     -0.455516    1.504993   -0.986441
| 16> C      0.113636    2.184650    0.099013
| 17> C     -0.363634    3.439373    0.496426
| 18> C     -1.428859    4.042662   -0.177297
| 19> C     -1.992930    3.383364   -1.271749
| 20> C     -1.514328    2.129903   -1.667531
| 21> C     -1.915888    5.401402    0.228565
| 22> C      1.668161   -0.409975   -0.703376
| 23> C      2.834192    0.156796   -1.246167
| 24> C      4.078909   -0.014495   -0.631183
| 25> C      4.189052   -0.752397    0.549514
| 26> C      3.039495   -1.335848    1.088652
| 27> C      1.794619   -1.162893    0.471869
| 28> C      5.526286   -0.967273    1.192729
| 29> H     -3.318131   -5.250878    0.862023
| 30> H     -3.967099   -4.027696    1.953483
| 31> H     -4.687730   -4.239879    0.338642
| 32> H     -1.909446   -4.597360   -1.087355
| 33> H     -0.397872   -2.934207   -2.053653
| 34> H     -2.000973    0.055075    0.624744
| 35> H     -3.501801   -1.608720    1.574168
| 36> H      0.937355    1.754630    0.663036
| 37> H      0.107124    3.939730    1.339919
| 38> H     -2.810365    3.837736   -1.826964
| 39> H     -1.983306    1.642456   -2.520785
| 40> H     -1.357482    6.174792   -0.307698
| 41> H     -1.789963    5.555900    1.305371
| 42> H     -2.982139    5.516533    0.006991
| 43> H      2.785464    0.744447   -2.161525
| 44> H      4.959808    0.434808   -1.084019
| 45> H      3.099928   -1.932050    1.996585
| 46> H      0.930018   -1.628992    0.937454
| 47> H      6.187258   -0.112449    1.014873
| 48> H      5.424637   -1.078367    2.277423
| 49> H      5.996282   -1.868437    0.787101
| 50> **                         ****END OF INPUT****
================================================================================

                       *****************************
                       * Geometry Optimization Run *
                       *****************************

Geometry optimization settings:
Update method            Update   .... BFGS
Choice of coordinates    CoordSys .... (2022) Redundant Internals
Initial Hessian          InHess   .... Almloef's Model
Max. no of cycles        MaxIter  .... 129

Convergence Tolerances:
Energy Change            TolE     ....  5.0000e-06 Eh
Max. Gradient            TolMAXG  ....  3.0000e-04 Eh/bohr
RMS Gradient             TolRMSG  ....  1.0000e-04 Eh/bohr
Max. Displacement        TolMAXD  ....  4.0000e-03 bohr
RMS Displacement         TolRMSD  ....  2.0000e-03 bohr
Strict Convergence                .... False

------------------------------------------------------------------------------
                        ORCA OPTIMIZATION COORDINATE SETUP
------------------------------------------------------------------------------

The optimization will be done in redundant internal coordinates (2022)
Making redundant internal coordinates   ...  (2022 redundants) done
Evaluating the initial hessian          ...  (Almloef) done
Evaluating the coordinates              ...  done
Calculating the B-matrix                .... done
Calculating the G-matrix                .... done
Diagonalizing the G-matrix              .... done
Small eigenvalue found = 2.863e-03
Small eigenvalue found = 2.864e-03
Small eigenvalue found = 5.609e-03
Small eigenvalue found = 2.258e-02
Small eigenvalue found = 2.262e-02
The first mode is                       ....   96
The number of degrees of freedom        ....  123

    -----------------------------------------------------------------
                    Redundant Internal Coordinates


    -----------------------------------------------------------------
         Definition                    Initial Value    Approx d2E/dq
    -----------------------------------------------------------------
      1. B(C   1,C   0)                  1.4994         0.418075   
      2. B(C   2,C   1)                  1.3967         0.609682   
      3. B(C   3,C   2)                  1.3989         0.604741   
      4. B(C   4,C   3)                  1.4055         0.590178   
      5. B(C   5,C   4)                  1.4015         0.599050   
      6. B(C   6,C   5)                  1.4000         0.602218   
      7. B(C   6,C   1)                  1.3973         0.608174   
      8. B(P   7,C   4)                  1.8226         0.428594   
      9. B(C   8,P   7)                  1.8226         0.428596   
     10. B(C   9,C   8)                  1.4015         0.599048   
     11. B(C  10,C   9)                  1.4000         0.602218   
     12. B(C  11,C  10)                  1.3973         0.608170   
     13. B(C  12,C  11)                  1.3967         0.609683   
     14. B(C  13,C  12)                  1.3989         0.604741   
     15. B(C  13,C   8)                  1.4055         0.590176   
     16. B(C  14,C  11)                  1.4994         0.418074   
     17. B(C  15,P   7)                  1.8226         0.428596   
     18. B(C  16,C  15)                  1.4055         0.590176   
     19. B(C  17,C  16)                  1.3989         0.604742   
     20. B(C  18,C  17)                  1.3967         0.609682   
     21. B(C  19,C  18)                  1.3973         0.608169   
     22. B(C  20,C  19)                  1.4000         0.602220   
     23. B(C  20,C  15)                  1.4015         0.599048   
     24. B(C  21,C  18)                  1.4994         0.418076   
     25. B(H  22,C   0)                  1.0951         0.353419   
     26. B(H  23,C   0)                  1.0951         0.353421   
     27. B(H  24,C   0)                  1.0943         0.354437   
     28. B(H  25,C   2)                  1.0876         0.363264   
     29. B(H  26,C   3)                  1.0888         0.361629   
     30. B(H  27,C   5)                  1.0870         0.364101   
     31. B(H  28,C   6)                  1.0879         0.362936   
     32. B(H  29,C   9)                  1.0870         0.364101   
     33. B(H  30,C  10)                  1.0879         0.362935   
     34. B(H  31,C  12)                  1.0876         0.363262   
     35. B(H  32,C  13)                  1.0888         0.361629   
     36. B(H  33,C  14)                  1.0943         0.354436   
     37. B(H  34,C  14)                  1.0951         0.353420   
     38. B(H  35,C  14)                  1.0951         0.353418   
     39. B(H  36,C  16)                  1.0888         0.361628   
     40. B(H  37,C  17)                  1.0876         0.363263   
     41. B(H  38,C  19)                  1.0879         0.362935   
     42. B(H  39,C  20)                  1.0870         0.364101   
     43. B(H  40,C  21)                  1.0951         0.353418   
     44. B(H  41,C  21)                  1.0951         0.353421   
     45. B(H  42,C  21)                  1.0943         0.354436   
     46. A(C   1,C   0,H  24)          110.0018         0.329525   
     47. A(H  22,C   0,H  23)          107.2224         0.289136   
     48. A(C   1,C   0,H  22)          110.9016         0.329369   
     49. A(C   1,C   0,H  23)          110.8959         0.329369   
     50. A(H  23,C   0,H  24)          108.8730         0.289266   
     51. A(H  22,C   0,H  24)          108.8679         0.289266   
     52. A(C   2,C   1,C   6)          118.8091         0.431263   
     53. A(C   0,C   1,C   2)          120.5776         0.403425   
     54. A(C   0,C   1,C   6)          120.5546         0.403249   
     55. A(C   3,C   2,H  25)          119.1468         0.351945   
     56. A(C   1,C   2,H  25)          120.4216         0.352429   
     57. A(C   1,C   2,C   3)          120.4316         0.430824   
     58. A(C   2,C   3,H  26)          118.3909         0.351676   
     59. A(C   4,C   3,H  26)          120.3420         0.350231   
     60. A(C   2,C   3,C   4)          121.2671         0.428318   
     61. A(C   3,C   4,C   5)          117.7513         0.427593   
     62. A(C   5,C   4,P   7)          124.3232         0.430701   
     63. A(C   3,C   4,P   7)          117.9240         0.429549   
     64. A(C   6,C   5,H  27)          117.7485         0.351833   
     65. A(C   4,C   5,H  27)          121.1837         0.351519   
     66. A(C   4,C   5,C   6)          121.0674         0.429144   
     67. A(C   5,C   6,H  28)          118.9984         0.351642   
     68. A(C   1,C   6,C   5)          120.6604         0.430310   
     69. A(C   1,C   6,H  28)          120.3412         0.352228   
     70. A(C   8,P   7,C  15)          104.0554         0.432675   
     71. A(C   4,P   7,C  15)          104.0557         0.432675   
     72. A(C   4,P   7,C   8)          104.0555         0.432675   
     73. A(P   7,C   8,C   9)          124.3232         0.430701   
     74. A(C   9,C   8,C  13)          117.7513         0.427592   
     75. A(P   7,C   8,C  13)          117.9240         0.429549   
     76. A(C  10,C   9,H  29)          117.7485         0.351833   
     77. A(C   8,C   9,C  10)          121.0674         0.429144   
     78. A(C   8,C   9,H  29)          121.1837         0.351519   
     79. A(C  11,C  10,H  30)          120.3411         0.352228   
     80. A(C   9,C  10,H  30)          118.9985         0.351642   
     81. A(C   9,C  10,C  11)          120.6604         0.430309   
     82. A(C  10,C  11,C  12)          118.8091         0.431262   
     83. A(C  12,C  11,C  14)          120.5778         0.403425   
     84. A(C  10,C  11,C  14)          120.5544         0.403249   
     85. A(C  13,C  12,H  31)          119.1467         0.351944   
     86. A(C  11,C  12,H  31)          120.4216         0.352429   
     87. A(C  11,C  12,C  13)          120.4316         0.430825   
     88. A(C  12,C  13,H  32)          118.3910         0.351676   
     89. A(C   8,C  13,H  32)          120.3419         0.350231   
     90. A(C   8,C  13,C  12)          121.2670         0.428318   
     91. A(H  33,C  14,H  35)          108.8677         0.289266   
     92. A(H  33,C  14,H  34)          108.8732         0.289266   
     93. A(C  11,C  14,H  34)          110.8956         0.329369   
     94. A(C  11,C  14,H  33)          110.0018         0.329525   
     95. A(C  11,C  14,H  35)          110.9020         0.329369   
     96. A(H  34,C  14,H  35)          107.2224         0.289136   
     97. A(C  16,C  15,C  20)          117.7512         0.427592   
     98. A(P   7,C  15,C  20)          124.3233         0.430701   
     99. A(P   7,C  15,C  16)          117.9240         0.429549   
    100. A(C  17,C  16,H  36)          118.3909         0.351676   
    101. A(C  15,C  16,H  36)          120.3419         0.350231   
    102. A(C  15,C  16,C  17)          121.2671         0.428318   
    103. A(C  16,C  17,C  18)          120.4316         0.430825   
    104. A(C  18,C  17,H  37)          120.4215         0.352429   
    105. A(C  16,C  17,H  37)          119.1468         0.351945   
    106. A(C  17,C  18,C  19)          118.8091         0.431262   
    107. A(C  19,C  18,C  21)          120.5546         0.403249   
    108. A(C  17,C  18,C  21)          120.5777         0.403426   
    109. A(C  18,C  19,C  20)          120.6604         0.430309   
    110. A(C  20,C  19,H  38)          118.9985         0.351642   
    111. A(C  18,C  19,H  38)          120.3411         0.352227   
    112. A(C  15,C  20,C  19)          121.0675         0.429144   
    113. A(C  19,C  20,H  39)          117.7485         0.351833   
    114. A(C  15,C  20,H  39)          121.1836         0.351519   
    115. A(H  41,C  21,H  42)          108.8730         0.289266   
    116. A(H  40,C  21,H  42)          108.8677         0.289266   
    117. A(C  18,C  21,H  42)          110.0018         0.329525   
    118. A(H  40,C  21,H  41)          107.2224         0.289136   
    119. A(C  18,C  21,H  41)          110.8959         0.329369   
    120. A(C  18,C  21,H  40)          110.9018         0.329369   
    121. D(C   6,C   1,C   0,H  23)    -32.0055         0.012928   
    122. D(C   2,C   1,C   0,H  24)    -88.6940         0.012928   
    123. D(C   2,C   1,C   0,H  22)     31.7968         0.012928   
    124. D(C   6,C   1,C   0,H  22)   -151.0212         0.012928   
    125. D(C   2,C   1,C   0,H  23)    150.8125         0.012928   
    126. D(C   3,C   2,C   1,C   0)    178.4458         0.025671   
    127. D(H  25,C   2,C   1,C   0)     -1.5870         0.025671   
    128. D(H  25,C   2,C   1,C   6)   -178.8175         0.025671   
    129. D(C   3,C   2,C   1,C   6)      1.2153         0.025671   
    130. D(H  26,C   3,C   2,H  25)     -0.4158         0.025233   
    131. D(C   4,C   3,C   2,H  25)    179.6662         0.025233   
    132. D(H  26,C   3,C   2,C   1)    179.5518         0.025233   
    133. D(C   4,C   3,C   2,C   1)     -0.3662         0.025233   
    134. D(C   5,C   4,C   3,C   2)     -0.4696         0.023970   
    135. D(C   5,C   4,C   3,H  26)    179.6140         0.023970   
    136. D(P   7,C   4,C   3,C   2)    179.9656         0.023970   
    137. D(P   7,C   4,C   3,H  26)      0.0492         0.023970   
    138. D(H  27,C   5,C   4,P   7)     -0.2521         0.024735   
    139. D(C   6,C   5,C   4,C   3)      0.4483         0.024735   
    140. D(C   6,C   5,C   4,P   7)    179.9827         0.024735   
    141. D(H  27,C   5,C   4,C   3)   -179.7865         0.024735   
    142. D(H  28,C   6,C   5,H  27)      0.5997         0.025011   
    143. D(H  28,C   6,C   5,C   4)   -179.6273         0.025011   
    144. D(C   1,C   6,C   5,H  27)   -179.3648         0.025011   
    145. D(C   1,C   6,C   5,C   4)      0.4081         0.025011   
    146. D(H  28,C   6,C   1,C   2)    178.7976         0.025537   
    147. D(H  28,C   6,C   1,C   0)      1.5664         0.025537   
    148. D(C   5,C   6,C   1,C   2)     -1.2383         0.025537   
    149. D(C   5,C   6,C   1,C   0)   -178.4696         0.025537   
    150. D(C   8,P   7,C   4,C   5)    -11.6093         0.003787   
    151. D(C   8,P   7,C   4,C   3)    167.9244         0.003787   
    152. D(C  15,P   7,C   4,C   5)     97.0997         0.003787   
    153. D(C  15,P   7,C   4,C   3)    -83.3666         0.003787   
    154. D(C  13,C   8,P   7,C  15)    167.9216         0.003787   
    155. D(C  13,C   8,P   7,C   4)    -83.3692         0.003787   
    156. D(C   9,C   8,P   7,C  15)    -11.6124         0.003787   
    157. D(C   9,C   8,P   7,C   4)     97.0968         0.003787   
    158. D(H  29,C   9,C   8,C  13)   -179.7870         0.024735   
    159. D(H  29,C   9,C   8,P   7)     -0.2522         0.024735   
    160. D(C  10,C   9,C   8,C  13)      0.4481         0.024735   
    161. D(C  10,C   9,C   8,P   7)    179.9828         0.024735   
    162. D(H  30,C  10,C   9,H  29)      0.6001         0.025011   
    163. D(H  30,C  10,C   9,C   8)   -179.6272         0.025011   
    164. D(C  11,C  10,C   9,H  29)   -179.3645         0.025011   
    165. D(C  11,C  10,C   9,C   8)      0.4083         0.025011   
    166. D(C  14,C  11,C  10,H  30)      1.5663         0.025536   
    167. D(C  14,C  11,C  10,C   9)   -178.4696         0.025536   
    168. D(C  12,C  11,C  10,C   9)     -1.2384         0.025536   
    169. D(C  12,C  11,C  10,H  30)    178.7976         0.025536   
    170. D(H  31,C  12,C  11,C  14)     -1.5870         0.025671   
    171. D(H  31,C  12,C  11,C  10)   -178.8176         0.025671   
    172. D(C  13,C  12,C  11,C  14)    178.4458         0.025671   
    173. D(C  13,C  12,C  11,C  10)      1.2153         0.025671   
    174. D(H  32,C  13,C  12,H  31)     -0.4157         0.025233   
    175. D(H  32,C  13,C  12,C  11)    179.5518         0.025233   
    176. D(C   8,C  13,C  12,H  31)    179.6662         0.025233   
    177. D(C   8,C  13,C  12,C  11)     -0.3662         0.025233   
    178. D(H  32,C  13,C   8,C   9)    179.6141         0.023970   
    179. D(H  32,C  13,C   8,P   7)      0.0490         0.023970   
    180. D(C  12,C  13,C   8,C   9)     -0.4694         0.023970   
    181. D(C  12,C  13,C   8,P   7)    179.9655         0.023970   
    182. D(H  33,C  14,C  11,C  12)    -88.7032         0.012928   
    183. D(H  33,C  14,C  11,C  10)     88.4788         0.012928   
    184. D(H  35,C  14,C  11,C  10)   -151.0304         0.012928   
    185. D(H  34,C  14,C  11,C  12)    150.8034         0.012928   
    186. D(H  34,C  14,C  11,C  10)    -32.0147         0.012928   
    187. D(C  20,C  15,P   7,C   8)     97.1017         0.003787   
    188. D(C  20,C  15,P   7,C   4)    -11.6074         0.003787   
    189. D(C  16,C  15,P   7,C   8)    -83.3648         0.003787   
    190. D(C  16,C  15,P   7,C   4)    167.9261         0.003787   
    191. D(H  36,C  16,C  15,C  20)    179.6138         0.023970   
    192. D(H  36,C  16,C  15,P   7)      0.0491         0.023970   
    193. D(C  17,C  16,C  15,C  20)     -0.4697         0.023970   
    194. D(C  17,C  16,C  15,P   7)    179.9656         0.023970   
    195. D(H  37,C  17,C  16,H  36)     -0.4156         0.025233   
    196. D(H  37,C  17,C  16,C  15)    179.6663         0.025233   
    197. D(C  18,C  17,C  16,H  36)    179.5520         0.025233   
    198. D(C  18,C  17,C  16,C  15)     -0.3661         0.025233   
    199. D(C  21,C  18,C  17,H  37)     -1.5869         0.025671   
    200. D(C  21,C  18,C  17,C  16)    178.4459         0.025671   
    201. D(C  19,C  18,C  17,H  37)   -178.8175         0.025671   
    202. D(C  19,C  18,C  17,C  16)      1.2153         0.025671   
    203. D(H  38,C  19,C  18,C  21)      1.5662         0.025536   
    204. D(H  38,C  19,C  18,C  17)    178.7975         0.025536   
    205. D(C  20,C  19,C  18,C  21)   -178.4696         0.025536   
    206. D(C  20,C  19,C  18,C  17)     -1.2384         0.025536   
    207. D(H  39,C  20,C  19,H  38)      0.5999         0.025012   
    208. D(H  39,C  20,C  19,C  18)   -179.3648         0.025012   
    209. D(C  15,C  20,C  19,H  38)   -179.6272         0.025012   
    210. D(C  15,C  20,C  19,C  18)      0.4081         0.025012   
    211. D(H  39,C  20,C  15,C  16)   -179.7865         0.024735   
    212. D(H  39,C  20,C  15,P   7)     -0.2522         0.024735   
    213. D(C  19,C  20,C  15,C  16)      0.4484         0.024735   
    214. D(C  19,C  20,C  15,P   7)    179.9827         0.024735   
    215. D(H  42,C  21,C  18,C  17)    -88.6964         0.012928   
    216. D(H  41,C  21,C  18,C  19)    -32.0078         0.012928   
    217. D(H  41,C  21,C  18,C  17)    150.8101         0.012928   
    218. D(H  40,C  21,C  18,C  19)   -151.0237         0.012928   
    219. D(H  40,C  21,C  18,C  17)     31.7943         0.012928   
    -----------------------------------------------------------------

Number of atoms                         .... 43
Number of degrees of freedom            .... 219


         *************************************************************
         *                GEOMETRY OPTIMIZATION CYCLE   1            *
         *************************************************************
---------------------------------
CARTESIAN COORDINATES (ANGSTROEM)
---------------------------------
  C     -3.749845   -4.245279    0.902439
  C     -2.802428   -3.233071    0.331535
  C     -1.929626   -3.580499   -0.701996
  C     -1.069705   -2.625365   -1.254376
  C     -1.063517   -1.296975   -0.795227
  C     -1.956351   -0.956738    0.230035
  C     -2.818058   -1.911071    0.783897
  P      0.094766   -0.128334   -1.579147
  C     -0.455516    1.504993   -0.986441
  C      0.113636    2.184650    0.099013
  C     -0.363634    3.439373    0.496426
  C     -1.428859    4.042662   -0.177297
  C     -1.992930    3.383364   -1.271749
  C     -1.514328    2.129903   -1.667531
  C     -1.915888    5.401402    0.228565
  C      1.668161   -0.409975   -0.703376
  C      2.834192    0.156796   -1.246167
  C      4.078909   -0.014495   -0.631183
  C      4.189052   -0.752397    0.549514
  C      3.039495   -1.335848    1.088652
  C      1.794619   -1.162893    0.471869
  C      5.526286   -0.967273    1.192729
  H     -3.318131   -5.250878    0.862023
  H     -3.967099   -4.027696    1.953483
  H     -4.687730   -4.239879    0.338642
  H     -1.909446   -4.597360   -1.087355
  H     -0.397872   -2.934207   -2.053653
  H     -2.000973    0.055075    0.624744
  H     -3.501801   -1.608720    1.574168
  H      0.937355    1.754630    0.663036
  H      0.107124    3.939730    1.339919
  H     -2.810365    3.837736   -1.826964
  H     -1.983306    1.642456   -2.520785
  H     -1.357482    6.174792   -0.307698
  H     -1.789963    5.555900    1.305371
  H     -2.982139    5.516533    0.006991
  H      2.785464    0.744447   -2.161525
  H      4.959808    0.434808   -1.084019
  H      3.099928   -1.932050    1.996585
  H      0.930018   -1.628992    0.937454
  H      6.187258   -0.112449    1.014873
  H      5.424637   -1.078367    2.277423
  H      5.996282   -1.868437    0.787101

----------------------------
CARTESIAN COORDINATES (A.U.)
----------------------------
  NO LB      ZA    FRAG     MASS         X           Y           Z
   0 C     6.0000    0    12.011   -7.086180   -8.022415    1.705363
   1 C     6.0000    0    12.011   -5.295821   -6.109619    0.626510
   2 C     6.0000    0    12.011   -3.646465   -6.766163   -1.326580
   3 C     6.0000    0    12.011   -2.021449   -4.961221   -2.370427
   4 C     6.0000    0    12.011   -2.009756   -2.450928   -1.502761
   5 C     6.0000    0    12.011   -3.696968   -1.807973    0.434703
   6 C     6.0000    0    12.011   -5.325358   -3.611401    1.481351
   7 P    15.0000    0    30.974    0.179082   -0.242516   -2.984155
   8 C     6.0000    0    12.011   -0.860800    2.844025   -1.864103
   9 C     6.0000    0    12.011    0.214741    4.128390    0.187107
  10 C     6.0000    0    12.011   -0.687169    6.499473    0.938109
  11 C     6.0000    0    12.011   -2.700152    7.639524   -0.335043
  12 C     6.0000    0    12.011   -3.766092    6.393631   -2.403257
  13 C     6.0000    0    12.011   -2.861665    4.024933   -3.151177
  14 C     6.0000    0    12.011   -3.620504   10.207171    0.431925
  15 C     6.0000    0    12.011    3.152367   -0.774740   -1.329188
  16 C     6.0000    0    12.011    5.355847    0.296301   -2.354914
  17 C     6.0000    0    12.011    7.708021   -0.027392   -1.192763
  18 C     6.0000    0    12.011    7.916161   -1.421824    1.038431
  19 C     6.0000    0    12.011    5.743813   -2.524387    2.057254
  20 C     6.0000    0    12.011    3.391338   -2.197549    0.891703
  21 C     6.0000    0    12.011   10.443167   -1.827881    2.253931
  22 H     1.0000    0     1.008   -6.270359   -9.922721    1.628987
  23 H     1.0000    0     1.008   -7.496731   -7.611242    3.691548
  24 H     1.0000    0     1.008   -8.858526   -8.012210    0.639941
  25 H     1.0000    0     1.008   -3.608330   -8.687751   -2.054803
  26 H     1.0000    0     1.008   -0.751869   -5.544848   -3.880842
  27 H     1.0000    0     1.008   -3.781291    0.104077    1.180595
  28 H     1.0000    0     1.008   -6.617445   -3.040040    2.974746
  29 H     1.0000    0     1.008    1.771344    3.315770    1.252956
  30 H     1.0000    0     1.008    0.202435    7.445011    2.532080
  31 H     1.0000    0     1.008   -5.310820    7.252270   -3.452462
  32 H     1.0000    0     1.008   -3.747905    3.103792   -4.763593
  33 H     1.0000    0     1.008   -2.565269   11.668666   -0.581465
  34 H     1.0000    0     1.008   -3.382540   10.499129    2.466794
  35 H     1.0000    0     1.008   -5.635426   10.424737    0.013211
  36 H     1.0000    0     1.008    5.263764    1.406801   -4.084690
  37 H     1.0000    0     1.008    9.372679    0.821668   -2.048499
  38 H     1.0000    0     1.008    5.858015   -3.651045    3.772999
  39 H     1.0000    0     1.008    1.757479   -3.078349    1.771531
  40 H     1.0000    0     1.008   11.692223   -0.212498    1.917832
  41 H     1.0000    0     1.008   10.251078   -2.037818    4.303706
  42 H     1.0000    0     1.008   11.331331   -3.530834    1.487405

--------------------------------
INTERNAL COORDINATES (ANGSTROEM)
--------------------------------
 C      0   0   0     0.000000000000     0.00000000     0.00000000
 C      1   0   0     1.499364993712     0.00000000     0.00000000
 C      2   1   0     1.396665985248   120.57760077     0.00000000
 C      3   2   1     1.398881248926   120.43158502   178.44584356
 C      4   3   2     1.405516306432   121.26706767   359.63383122
 C      5   4   3     1.401454935547   117.75125295   359.53040585
 C      2   1   3     1.397340214817   120.55461506   177.18201054
 P      5   4   3     1.822600302143   117.92402462   179.96557761
 C      8   5   4     1.822599179987   104.05552998   167.92437553
 C      9   8   5     1.401455679952   124.32316655    97.09679703
 C     10   9   8     1.400019125654   121.06739526   179.98284695
 C     11  10   9     1.397341976352   120.66037183     0.40826761
 C     12  11  10     1.396665717396   118.80914162   358.76163283
 C     13  12  11     1.398880890015   120.43163059     1.21527654
 C     12  11  10     1.499365064781   120.55438743   181.53042409
 C      8   5   4     1.822599331545   104.05568051   276.63337679
 C     16   8   5     1.405517601840   117.92397200   167.92612492
 C     17  16   8     1.398880386962   121.26709576   179.96560245
 C     18  17  16     1.396666118964   120.43161182   359.63388659
 C     19  18  17     1.397342530911   118.80911462     1.21527654
 C     20  19  18     1.400018198628   120.66037261   358.76164274
 C     19  18  17     1.499363865897   120.57766691   178.44587370
 H      1   2   3     1.095098068509   110.90156681    31.79678807
 H      1   2   3     1.095095955769   110.89591614   150.81253862
 H      1   2   3     1.094314621320   110.00183987   271.30599749
 H      3   2   1     1.087618997904   120.42159836   358.41303347
 H      4   3   2     1.088846492203   118.39090766   179.55181277
 H      6   5   4     1.086992117972   121.18370353   180.21345915
 H      7   2   1     1.087864362267   120.34116100     1.56638776
 H     10   9   8     1.086992242792   121.18367398   359.74775018
 H     11  10   9     1.087865186069   118.99850538   180.37282391
 H     13  12  11     1.087620149608   120.42163015   181.18241843
 H     14  13  12     1.088846789410   118.39099824   179.55181887
 H     15  12  11     1.094315931578   110.00177422    88.47884184
 H     15  12  11     1.095097209961   110.89559195   327.98534612
 H     15  12  11     1.095098799030   110.90197224   208.96955028
 H     17  16   8     1.088847273014   120.34194952     0.04905073
 H     18  17  16     1.087619729918   119.14684137   179.66629199
 H     20  19  18     1.087865481014   120.34112166   178.79745832
 H     21  20  19     1.086992437521   117.74853275   180.63519401
 H     22  19  18     1.095098540085   110.90175720    31.79429005
 H     22  19  18     1.095096100656   110.89586558   150.81014764
 H     22  19  18     1.094315708238   110.00179119   271.30362353

---------------------------
INTERNAL COORDINATES (A.U.)
---------------------------
 C      0   0   0     0.000000000000     0.00000000     0.00000000
 C      1   0   0     2.833389212904     0.00000000     0.00000000
 C      2   1   0     2.639316212682   120.57760077     0.00000000
 C      3   2   1     2.643502454348   120.43158502   178.44584356
 C      4   3   2     2.656040895916   121.26706767   359.63383122
 C      5   4   3     2.648366017216   117.75125295   359.53040585
 C      2   1   3     2.640590321918   120.55461506   177.18201054
 P      5   4   3     3.444215422651   117.92402462   179.96557761
 C      8   5   4     3.444213302085   104.05552998   167.92437553
 C      9   8   5     2.648367423937   124.32316655    97.09679703
 C     10   9   8     2.645652729739   121.06739526   179.98284695
 C     11  10   9     2.640593650737   120.66037183     0.40826761
 C     12  11  10     2.639315706515   118.80914162   358.76163283
 C     13  12  11     2.643501776104   120.43163059     1.21527654
 C     12  11  10     2.833389347205   120.55438743   181.53042409
 C      8   5   4     3.444213588487   104.05568051   276.63337679
 C     16   8   5     2.656043343884   117.92397200   167.92612492
 C     17  16   8     2.643500825471   121.26709576   179.96560245
 C     18  17  16     2.639316465369   120.43161182   359.63388659
 C     19  18  17     2.640594698703   118.80911462     1.21527654
 C     20  19  18     2.645650977913   120.66037261   358.76164274
 C     19  18  17     2.833387081642   120.57766691   178.44587370
 H      1   2   3     2.069435439269   110.90156681    31.79678807
 H      1   2   3     2.069431446768   110.89591614   150.81253862
 H      1   2   3     2.067954938640   110.00183987   271.30599749
 H      3   2   1     2.055302044089   120.42159836   358.41303347
 H      4   3   2     2.057621672144   118.39090766   179.55181277
 H      6   5   4     2.054117412699   121.18370353   180.21345915
 H      7   2   1     2.055765715538   120.34116100     1.56638776
 H     10   9   8     2.054117648574   121.18367398   359.74775018
 H     11  10   9     2.055767272299   118.99850538   180.37282391
 H     13  12  11     2.055304220494   120.42163015   181.18241843
 H     14  13  12     2.057622233785   118.39099824   179.55181887
 H     15  12  11     2.067957414669   110.00177422    88.47884184
 H     15  12  11     2.069433816848   110.89559195   327.98534612
 H     15  12  11     2.069436819754   110.90197224   208.96955028
 H     17  16   8     2.057623147663   120.34194952     0.04905073
 H     18  17  16     2.055303427394   119.14684137   179.66629199
 H     20  19  18     2.055767829663   120.34112166   178.79745832
 H     21  20  19     2.054118016557   117.74853275   180.63519401
 H     22  19  18     2.069436330417   110.90175720    31.79429005
 H     22  19  18     2.069431720566   110.89586558   150.81014764
 H     22  19  18     2.067956992618   110.00179119   271.30362353

---------------------
BASIS SET INFORMATION
---------------------
There are 3 groups of distinct atoms

 Group   1 Type C   : 7s4p1d contracted to 3s2p1d pattern {511/31/1}
 Group   2 Type P   : 10s7p1d contracted to 4s3p1d pattern {5311/511/1}
 Group   3 Type H   : 4s1p contracted to 2s1p pattern {31/1}

Atom   0C    basis set group =>   1
Atom   1C    basis set group =>   1
Atom   2C    basis set group =>   1
Atom   3C    basis set group =>   1
Atom   4C    basis set group =>   1
Atom   5C    basis set group =>   1
Atom   6C    basis set group =>   1
Atom   7P    basis set group =>   2
Atom   8C    basis set group =>   1
Atom   9C    basis set group =>   1
Atom  10C    basis set group =>   1
Atom  11C    basis set group =>   1
Atom  12C    basis set group =>   1
Atom  13C    basis set group =>   1
Atom  14C    basis set group =>   1
Atom  15C    basis set group =>   1
Atom  16C    basis set group =>   1
Atom  17C    basis set group =>   1
Atom  18C    basis set group =>   1
Atom  19C    basis set group =>   1
Atom  20C    basis set group =>   1
Atom  21C    basis set group =>   1
Atom  22H    basis set group =>   3
Atom  23H    basis set group =>   3
Atom  24H    basis set group =>   3
Atom  25H    basis set group =>   3
Atom  26H    basis set group =>   3
Atom  27H    basis set group =>   3
Atom  28H    basis set group =>   3
Atom  29H    basis set group =>   3
Atom  30H    basis set group =>   3
Atom  31H    basis set group =>   3
Atom  32H    basis set group =>   3
Atom  33H    basis set group =>   3
Atom  34H    basis set group =>   3
Atom  35H    basis set group =>   3
Atom  36H    basis set group =>   3
Atom  37H    basis set group =>   3
Atom  38H    basis set group =>   3
Atom  39H    basis set group =>   3
Atom  40H    basis set group =>   3
Atom  41H    basis set group =>   3
Atom  42H    basis set group =>   3
---------------------------------
AUXILIARY/J BASIS SET INFORMATION
---------------------------------
There are 3 groups of distinct atoms

 Group   1 Type C   : 12s5p4d2f1g contracted to 6s4p3d1f1g pattern {711111/2111/211/2/1}
 Group   2 Type P   : 14s5p5d2f1g contracted to 8s4p3d1f1g pattern {71111111/2111/311/2/1}
 Group   3 Type H   : 5s2p1d contracted to 3s1p1d pattern {311/2/1}

Atom   0C    basis set group =>   1
Atom   1C    basis set group =>   1
Atom   2C    basis set group =>   1
Atom   3C    basis set group =>   1
Atom   4C    basis set group =>   1
Atom   5C    basis set group =>   1
Atom   6C    basis set group =>   1
Atom   7P    basis set group =>   2
Atom   8C    basis set group =>   1
Atom   9C    basis set group =>   1
Atom  10C    basis set group =>   1
Atom  11C    basis set group =>   1
Atom  12C    basis set group =>   1
Atom  13C    basis set group =>   1
Atom  14C    basis set group =>   1
Atom  15C    basis set group =>   1
Atom  16C    basis set group =>   1
Atom  17C    basis set group =>   1
Atom  18C    basis set group =>   1
Atom  19C    basis set group =>   1
Atom  20C    basis set group =>   1
Atom  21C    basis set group =>   1
Atom  22H    basis set group =>   3
Atom  23H    basis set group =>   3
Atom  24H    basis set group =>   3
Atom  25H    basis set group =>   3
Atom  26H    basis set group =>   3
Atom  27H    basis set group =>   3
Atom  28H    basis set group =>   3
Atom  29H    basis set group =>   3
Atom  30H    basis set group =>   3
Atom  31H    basis set group =>   3
Atom  32H    basis set group =>   3
Atom  33H    basis set group =>   3
Atom  34H    basis set group =>   3
Atom  35H    basis set group =>   3
Atom  36H    basis set group =>   3
Atom  37H    basis set group =>   3
Atom  38H    basis set group =>   3
Atom  39H    basis set group =>   3
Atom  40H    basis set group =>   3
Atom  41H    basis set group =>   3
Atom  42H    basis set group =>   3


           ************************************************************
           *        Program running with 6 parallel MPI-processes     *
           *              working on a common directory               *
           ************************************************************
------------------------------------------------------------------------------
                             ORCA STARTUP CALCULATIONS
                           -- RI-GTO INTEGRALS CHOSEN --
------------------------------------------------------------------------------
------------------------------------------------------------------------------
                   ___                                                        
                  /   \      - P O W E R E D   B Y -                         
                 /     \                                                     
                 |  |  |   _    _      __       _____    __    __             
                 |  |  |  | |  | |    /  \     |  _  \  |  |  /  |          
                  \  \/   | |  | |   /    \    | | | |  |  | /  /          
                 / \  \   | |__| |  /  /\  \   | |_| |  |  |/  /          
                |  |  |   |  __  | /  /__\  \  |    /   |      \           
                |  |  |   | |  | | |   __   |  |    \   |  |\   \          
                \     /   | |  | | |  |  |  |  | |\  \  |  | \   \       
                 \___/    |_|  |_| |__|  |__|  |_| \__\ |__|  \__/        
                                                                              
                      - O R C A' S   B I G   F R I E N D -                    
                                      &                                       
                       - I N T E G R A L  F E E D E R -                       
                                                                              
 v1 FN, 2020, v2 2021, v3 2022-2024                                           
------------------------------------------------------------------------------


----------------------
SHARK INTEGRAL PACKAGE
----------------------

Number of atoms                             ...     43
Number of basis functions                   ...    417
Number of shells                            ...    197
Maximum angular momentum                    ...      2
Integral batch strategy                     ... SHARK/LIBINT Hybrid
RI-J (if used) integral strategy            ... SPLIT-RIJ (Revised 2003 algorithm where possible)
Printlevel                                  ...      1
Contraction scheme used                     ... SEGMENTED contraction
Prescreening option                         ... SCHWARTZ
   Thresh                                   ... 2.500e-11
   Tcut                                     ... 2.500e-12
   Tpresel                                  ... 2.500e-12 
Coulomb Range Separation                    ... NOT USED
Exchange Range Separation                   ... NOT USED
Multipole approximations                    ... NOT USED
Finite Nucleus Model                        ... NOT USED
CABS basis                                  ... NOT available
Auxiliary Coulomb fitting basis             ... AVAILABLE
   # of basis functions in Aux-J            ...   1311
   # of shells in Aux-J                     ...    437
   Maximum angular momentum in Aux-J        ...      4
Auxiliary J/K fitting basis                 ... NOT available
Auxiliary Correlation fitting basis         ... NOT available
Auxiliary 'external' fitting basis          ... NOT available

Checking pre-screening integrals            ... done (  0.0 sec) Dimension = 197
Check shell pair data                       ... done (  0.0 sec)
Shell pair information
Shell pair cut-off parameter TPreSel        ...   2.5e-12
Total number of shell pairs                 ...     19503
Shell pairs after pre-screening             ...     13582
Total number of primitive shell pairs       ...     70859
Primitive shell pairs kept                  ...     31367
          la=0 lb=0:   4321 shell pairs
          la=1 lb=0:   5097 shell pairs
          la=1 lb=1:   1549 shell pairs
          la=2 lb=0:   1546 shell pairs
          la=2 lb=1:    930 shell pairs
          la=2 lb=2:    139 shell pairs

Calculating one electron integrals          ... done (  0.0 sec)
Calculating RI/J V-Matrix + Cholesky decomp.... done (  0.1 sec)
Calculating Nuclear repulsion               ... done (  0.0 sec) ENN=   1770.628165288774 Eh

Diagonalization of the overlap matrix:
Smallest eigenvalue                        ... 2.572e-04
Time for diagonalization                   ...    0.023 sec
Threshold for overlap eigenvalues          ... 1.000e-07
Number of eigenvalues below threshold      ... 0
Time for construction of square roots      ...    0.013 sec
Total time needed                          ...    0.039 sec

-------------------
DFT GRID GENERATION
-------------------

General Integration Accuracy     IntAcc      ... 4.388
Radial Grid Type                 RadialGrid  ... OptM3 with GC (2021)
Angular Grid (max. ang.)         AngularGrid ... 4 (Lebedev-302)
Angular grid pruning method      GridPruning ... 4 (adaptive)
Weight generation scheme         WeightScheme... mBecke (2022)
Basis function cutoff            BFCut       ... 1.0000e-11
Integration weight cutoff        WCut        ... 1.0000e-14
Partially contracted basis set               ... off
Rotationally invariant grid construction     ... off
Angular grids for H and He will be reduced by one unit

Total number of grid points                  ...   199641
Total number of batches                      ...     3141
Average number of points per batch           ...       63
Average number of grid points per atom       ...     4643
Initializing property integral containers    ... done (  0.0 sec)

SHARK setup successfully completed in   1.4 seconds

Maximum memory used throughout the entire STARTUP-calculation: 53.0 MB


           ************************************************************
           *        Program running with 6 parallel MPI-processes     *
           *              working on a common directory               *
           ************************************************************
-------------------------------------------------------------------------------
                                 ORCA GUESS
                   Start orbitals & Density for SCF / CASSCF
-------------------------------------------------------------------------------

------------
SCF SETTINGS
------------
Hamiltonian:
 Density Functional     Method          .... DFT(GTOs)
 Exchange Functional    Exchange        .... B88
   X-Alpha parameter    XAlpha          ....  0.666667
   Becke's b parameter  XBeta           ....  0.004200
 Correlation Functional Correlation     .... P86
 LDA part of GGA corr.  LDAOpt          .... PW91-LDA
 Gradients option       PostSCFGGA      .... off
   NL short-range parameter             ....  4.400000
 RI-approximation to the Coulomb term is turned on
   Number of AuxJ basis functions       .... 1311


General Settings:
 Integral files         IntName         .... data/geom_opt_P_BP86/13956/13956
 Hartree-Fock type      HFTyp           .... RHF
 Total Charge           Charge          ....    0
 Multiplicity           Mult            ....    1
 Number of Electrons    NEL             ....  162
 Basis Dimension        Dim             ....  417
 Nuclear Repulsion      ENuc            ....   1770.6281652888 Eh

Convergence Acceleration:
 AO-DIIS                CNVDIIS         .... on
   Start iteration      DIISMaxIt       ....    12
   Startup error        DIISStart       ....  0.200000
   # of expansion vecs  DIISMaxEq       ....     5
   Bias factor          DIISBfac        ....   1.050
   Max. coefficient     DIISMaxC        ....  10.000
 MO-DIIS                CNVKDIIS        .... off
 Trust-Rad. Augm. Hess. CNVTRAH         .... auto
   Auto Start mean grad. ratio tolernc. ....  1.125000
   Auto Start start iteration           ....    50
   Auto Start num. interpolation iter.  ....    10
   Max. Number of Micro iterations      ....    24
   Max. Number of Macro iterations      .... Maxiter - #DIIS iter
   Number of Davidson start vectors     ....     2
   Converg. threshold    (grad. norm)   ....   1.000e-05
   Grad. Scal. Fac. for Micro threshold ....   0.100
   Minimum threshold for Micro iter.    ....   1.000e-02
   NR start threshold (gradient norm)   ....   1.000e-04
   Initial trust radius                 ....   0.400
   Minimum AH scaling param. (alpha)    ....   1.000
   Maximum AH scaling param. (alpha)    .... 1000.000
   Quad. conv. algorithm                .... NR
   White noise on init. David. guess    .... on
   Maximum white noise                  ....   0.010
   Pseudo random numbers                .... off
   Inactive MOs                         .... canonical
   Orbital update algorithm             .... Taylor
   Preconditioner                       .... Diag
   Full preconditioner red. dimension   ....   250
 SOSCF                  CNVSOSCF        .... on
   Start iteration      SOSCFMaxIt      ....   150
   Startup grad/error   SOSCFStart      ....  0.003300
   Hessian update       SOSCFHessUp     .... L-BFGS
 Level Shifting         CNVShift        .... on
   Level shift para.    LevelShift      ....    0.2500
   Turn off err/grad.   ShiftErr        ....    0.0010
 Zerner damping         CNVZerner       .... off
 Static damping         CNVDamp         .... on
   Fraction old density DampFac         ....    0.7000
   Max. Damping (<1)    DampMax         ....    0.9800
   Min. Damping (>=0)   DampMin         ....    0.0000
   Turn off err/grad.   DampErr         ....    0.1000

SCF Procedure:
 Maximum # iterations   MaxIter         ....   125
 SCF integral mode      SCFMode         .... Direct
   Integral package                     .... SHARK and LIBINT hybrid scheme
 Reset frequency        DirectResetFreq ....    20
 Integral Threshold     Thresh          ....  2.500e-11 Eh
 Primitive CutOff       TCut            ....  2.500e-12 Eh

Convergence Tolerance:
 Convergence Check Mode ConvCheckMode   .... Total+1el-Energy
 Convergence forced     ConvForced      .... 0
 Energy Change          TolE            ....  1.000e-08 Eh
 1-El. energy change                    ....  1.000e-05 Eh
 Orbital Gradient       TolG            ....  1.000e-05
 Orbital Rotation angle TolX            ....  1.000e-05
 DIIS Error             TolErr          ....  5.000e-07

------------------------------
INITIAL GUESS: MODEL POTENTIAL
------------------------------
Loading Hartree-Fock densities                     ... done
Calculating cut-offs                               ... done
Initializing the effective Hamiltonian             ... done
Setting up the integral package (SHARK)            ... done
Starting the Coulomb interaction                   ... done (   0.2 sec)
Making the grid                                    ... done (   0.3 sec)
Mapping shells                                     ... done
Starting the XC term evaluation                    ... done (   0.2 sec)
  promolecular density results
     # of electrons  =    161.993923514
     EX              =   -136.847893740
     EC              =     -5.957431501
     EX+EC           =   -142.805325241
Transforming the Hamiltonian                       ... done (   0.0 sec)
Diagonalizing the Hamiltonian                      ... done (   0.0 sec)
Back transforming the eigenvectors                 ... done (   0.0 sec)
Now organizing SCF variables                       ... done
                      ------------------
                      INITIAL GUESS DONE (   0.7 sec)
                      ------------------
             **** ENERGY FILE WAS UPDATED (data/geom_opt_P_BP86/13956/13956.en.tmp) ****
Finished Guess after   0.8 sec
Maximum memory used throughout the entire GUESS-calculation: 30.0 MB


           ************************************************************
           *        Program running with 6 parallel MPI-processes     *
           *              working on a common directory               *
           ************************************************************

-------------------------------------------------------------------------------------------
                                      ORCA LEAN-SCF
                              memory conserving SCF solver
-------------------------------------------------------------------------------------------

----------------------------------------D-I-I-S--------------------------------------------
Iteration    Energy (Eh)           Delta-E    RMSDP     MaxDP     DIISErr   Damp  Time(sec)
-------------------------------------------------------------------------------------------
               ***  Starting incremental Fock matrix formation  ***
    1    -1153.1714896637993206     0.00e+00  1.99e-03  7.26e-02  1.53e-01  0.700   1.1
    2    -1153.3685904729516096    -1.97e-01  1.42e-03  6.34e-02  7.60e-02  0.700   1.2
                               ***Turning on AO-DIIS***
    3    -1153.4435646690565136    -7.50e-02  6.00e-04  3.47e-02  2.46e-02  0.700   1.1
    4    -1153.4867755690763715    -4.32e-02  1.06e-03  6.27e-02  1.00e-02  0.000   1.0
    5    -1153.5816936147327851    -9.49e-02  2.29e-04  1.59e-02  5.00e-03  0.000   1.1
                              *** Initializing SOSCF ***
---------------------------------------S-O-S-C-F--------------------------------------
Iteration    Energy (Eh)           Delta-E    RMSDP     MaxDP     MaxGrad    Time(sec)
--------------------------------------------------------------------------------------
    6    -1153.5824404528641480    -7.47e-04  8.15e-05  4.61e-03  1.03e-03     1.0
               *** Restarting incremental Fock matrix formation ***
    7    -1153.5824870538619962    -4.66e-05  5.61e-05  2.47e-03  2.18e-04     1.2
    8    -1153.5824808303266309     6.22e-06  2.63e-05  9.70e-04  4.76e-04     0.9
    9    -1153.5824914819579590    -1.07e-05  2.30e-05  1.34e-03  1.54e-04     0.9
   10    -1153.5824901852745370     1.30e-06  1.07e-05  2.88e-04  1.66e-04     1.0
   11    -1153.5824925656713731    -2.38e-06  1.14e-05  7.82e-04  7.00e-05     0.9
   12    -1153.5824919435669926     6.22e-07  6.87e-06  4.03e-04  1.13e-04     0.9
   13    -1153.5824927903461230    -8.47e-07  2.38e-06  1.90e-04  8.08e-06     0.9
   14    -1153.5824927455421403     4.48e-08  1.41e-06  1.05e-04  1.39e-05     0.9
   15    -1153.5824928054000793    -5.99e-08  3.73e-07  3.49e-05  1.70e-06     0.8
                  *** Gradient check signals convergence ***

               *****************************************************
               *                     SUCCESS                       *
               *           SCF CONVERGED AFTER  15 CYCLES          *
               *****************************************************

             **** ENERGY FILE WAS UPDATED (data/geom_opt_P_BP86/13956/13956.en.tmp) ****

----------------
TOTAL SCF ENERGY
----------------

Total Energy       :      -1153.58249280540008 Eh          -31390.57550 eV

Components:
Nuclear Repulsion  :       1770.62816528877443 Eh           48181.24186 eV
Electronic Energy  :      -2924.21065809417451 Eh          -79571.81736 eV
One Electron Energy:      -5087.73228363207545 Eh         -138444.23381 eV
Two Electron Energy:       2163.52162553790095 Eh           58872.41645 eV

Virial components:
Potential Energy   :      -2296.58668551443361 Eh          -62493.30081 eV
Kinetic Energy     :       1143.00419270903353 Eh           31102.72532 eV
Virial Ratio       :          2.00925482177917

DFT components:
N(Alpha)           :       80.999995582662 electrons
N(Beta)            :       80.999995582662 electrons
N(Total)           :      161.999991165325 electrons
E(X)               :     -138.991501761609 Eh       
E(C)               :       -5.963514167873 Eh       
E(XC)              :     -144.955015929481 Eh       

---------------
SCF CONVERGENCE
---------------

  Last Energy change         ...    5.9858e-08  Tolerance :   1.0000e-08
  Last MAX-Density change    ...    3.4917e-05  Tolerance :   1.0000e-07
  Last RMS-Density change    ...    3.7293e-07  Tolerance :   5.0000e-09
  Last DIIS Error            ...    1.0308e-03  Tolerance :   5.0000e-07
  Last Orbital Gradient      ...    1.6953e-06  Tolerance :   1.0000e-05
  Last Orbital Rotation      ...    3.8398e-06  Tolerance :   1.0000e-05


----------------
ORBITAL ENERGIES
----------------

  NO   OCC          E(Eh)            E(eV) 
   0   2.0000     -76.334734     -2077.1737 
   1   2.0000      -9.920375      -269.9471 
   2   2.0000      -9.920372      -269.9471 
   3   2.0000      -9.920371      -269.9470 
   4   2.0000      -9.916234      -269.8344 
   5   2.0000      -9.916230      -269.8343 
   6   2.0000      -9.916146      -269.8320 
   7   2.0000      -9.915279      -269.8084 
   8   2.0000      -9.915262      -269.8080 
   9   2.0000      -9.915261      -269.8080 
  10   2.0000      -9.913406      -269.7575 
  11   2.0000      -9.913381      -269.7568 
  12   2.0000      -9.913378      -269.7567 
  13   2.0000      -9.911502      -269.7057 
  14   2.0000      -9.911498      -269.7056 
  15   2.0000      -9.911496      -269.7055 
  16   2.0000      -9.911017      -269.6925 
  17   2.0000      -9.911015      -269.6924 
  18   2.0000      -9.911013      -269.6924 
  19   2.0000      -9.910901      -269.6893 
  20   2.0000      -9.910898      -269.6893 
  21   2.0000      -9.910892      -269.6891 
  22   2.0000      -6.304041      -171.5417 
  23   2.0000      -4.525409      -123.1426 
  24   2.0000      -4.525406      -123.1426 
  25   2.0000      -4.521702      -123.0418 
  26   2.0000      -0.779473       -21.2105 
  27   2.0000      -0.773301       -21.0426 
  28   2.0000      -0.773300       -21.0426 
  29   2.0000      -0.713067       -19.4035 
  30   2.0000      -0.694503       -18.8984 
  31   2.0000      -0.694501       -18.8983 
  32   2.0000      -0.666816       -18.1450 
  33   2.0000      -0.666815       -18.1450 
  34   2.0000      -0.666750       -18.1432 
  35   2.0000      -0.638577       -17.3766 
  36   2.0000      -0.611629       -16.6433 
  37   2.0000      -0.611627       -16.6432 
  38   2.0000      -0.555203       -15.1078 
  39   2.0000      -0.542972       -14.7750 
  40   2.0000      -0.542972       -14.7750 
  41   2.0000      -0.542662       -14.7666 
  42   2.0000      -0.518866       -14.1191 
  43   2.0000      -0.518865       -14.1190 
  44   2.0000      -0.499355       -13.5882 
  45   2.0000      -0.449523       -12.2321 
  46   2.0000      -0.449521       -12.2321 
  47   2.0000      -0.418576       -11.3900 
  48   2.0000      -0.415752       -11.3132 
  49   2.0000      -0.415750       -11.3131 
  50   2.0000      -0.414457       -11.2780 
  51   2.0000      -0.397756       -10.8235 
  52   2.0000      -0.397755       -10.8235 
  53   2.0000      -0.389669       -10.6034 
  54   2.0000      -0.381646       -10.3851 
  55   2.0000      -0.381601       -10.3839 
  56   2.0000      -0.381599       -10.3838 
  57   2.0000      -0.371436       -10.1073 
  58   2.0000      -0.371047       -10.0967 
  59   2.0000      -0.371045       -10.0966 
  60   2.0000      -0.353374        -9.6158 
  61   2.0000      -0.353372        -9.6157 
  62   2.0000      -0.341984        -9.3059 
  63   2.0000      -0.339570        -9.2402 
  64   2.0000      -0.339568        -9.2401 
  65   2.0000      -0.321778        -8.7560 
  66   2.0000      -0.319177        -8.6853 
  67   2.0000      -0.319174        -8.6852 
  68   2.0000      -0.313334        -8.5263 
  69   2.0000      -0.298328        -8.1179 
  70   2.0000      -0.298327        -8.1179 
  71   2.0000      -0.297823        -8.1042 
  72   2.0000      -0.283421        -7.7123 
  73   2.0000      -0.283420        -7.7123 
  74   2.0000      -0.238328        -6.4852 
  75   2.0000      -0.231731        -6.3057 
  76   2.0000      -0.228201        -6.2097 
  77   2.0000      -0.228201        -6.2097 
  78   2.0000      -0.222702        -6.0600 
  79   2.0000      -0.222701        -6.0600 
  80   2.0000      -0.177194        -4.8217 
  81   0.0000      -0.050397        -1.3714 
  82   0.0000      -0.050396        -1.3713 
  83   0.0000      -0.049476        -1.3463 
  84   0.0000      -0.035142        -0.9563 
  85   0.0000      -0.035139        -0.9562 
  86   0.0000      -0.032841        -0.8936 
  87   0.0000       0.040208         1.0941 
  88   0.0000       0.040217         1.0944 
  89   0.0000       0.048092         1.3086 
  90   0.0000       0.058893         1.6026 
  91   0.0000       0.058900         1.6027 
*Only the first 10 virtual orbitals were printed.

                    ********************************
                    * MULLIKEN POPULATION ANALYSIS *
                    ********************************

-----------------------
MULLIKEN ATOMIC CHARGES
-----------------------
   0 C :    0.032984
   1 C :   -0.044899
   2 C :   -0.016558
   3 C :    0.011124
   4 C :   -0.122308
   5 C :    0.001536
   6 C :   -0.011585
   7 P :    0.279908
   8 C :   -0.122359
   9 C :    0.001540
  10 C :   -0.011550
  11 C :   -0.044931
  12 C :   -0.016481
  13 C :    0.010981
  14 C :    0.032923
  15 C :   -0.122374
  16 C :    0.011114
  17 C :   -0.016408
  18 C :   -0.045010
  19 C :   -0.011661
  20 C :    0.001499
  21 C :    0.033001
  22 H :    0.028279
  23 H :    0.028535
  24 H :    0.050914
  25 H :   -0.021611
  26 H :   -0.007704
  27 H :    0.002242
  28 H :   -0.024217
  29 H :    0.002215
  30 H :   -0.024159
  31 H :   -0.021609
  32 H :   -0.007633
  33 H :    0.050918
  34 H :    0.028515
  35 H :    0.028330
  36 H :   -0.007692
  37 H :   -0.021626
  38 H :   -0.024203
  39 H :    0.002289
  40 H :    0.028278
  41 H :    0.028521
  42 H :    0.050932
Sum of atomic charges:   -0.0000000

--------------------------------
MULLIKEN REDUCED ORBITAL CHARGES
--------------------------------
  0 C s       :     2.946165  s :     2.946165
      pz      :     1.001585  p :     2.995142
      px      :     1.004447
      py      :     0.989110
      dz2     :     0.006482  d :     0.025709
      dxz     :     0.005178
      dyz     :     0.002632
      dx2y2   :     0.006239
      dxy     :     0.005178

  1 C s       :     3.067358  s :     3.067358
      pz      :     0.973696  p :     2.935726
      px      :     0.976089
      py      :     0.985940
      dz2     :     0.007937  d :     0.041816
      dxz     :     0.005867
      dyz     :     0.009139
      dx2y2   :     0.009521
      dxy     :     0.009351

  2 C s       :     3.222225  s :     3.222225
      pz      :     0.958860  p :     2.762214
      px      :     0.988515
      py      :     0.814839
      dz2     :     0.006242  d :     0.032118
      dxz     :     0.005341
      dyz     :     0.006805
      dx2y2   :     0.007966
      dxy     :     0.005765

  3 C s       :     3.223739  s :     3.223739
      pz      :     0.900558  p :     2.732386
      px      :     0.901760
      py      :     0.930068
      dz2     :     0.004387  d :     0.032751
      dxz     :     0.004605
      dyz     :     0.007813
      dx2y2   :     0.007824
      dxy     :     0.008123

  4 C s       :     3.070043  s :     3.070043
      pz      :     0.994034  p :     3.017294
      px      :     1.015876
      py      :     1.007384
      dz2     :     0.006963  d :     0.034971
      dxz     :     0.005282
      dyz     :     0.008296
      dx2y2   :     0.006499
      dxy     :     0.007932

  5 C s       :     3.238649  s :     3.238649
      pz      :     0.934383  p :     2.726941
      px      :     0.958128
      py      :     0.834430
      dz2     :     0.006324  d :     0.032875
      dxz     :     0.005292
      dyz     :     0.007045
      dx2y2   :     0.008235
      dxy     :     0.005979

  6 C s       :     3.222251  s :     3.222251
      pz      :     0.895838  p :     2.757209
      px      :     0.912123
      py      :     0.949247
      dz2     :     0.004335  d :     0.032125
      dxz     :     0.004560
      dyz     :     0.007505
      dx2y2   :     0.007996
      dxy     :     0.007729

  7 P s       :     5.658965  s :     5.658965
      pz      :     3.339496  p :     8.884576
      px      :     2.771690
      py      :     2.773390
      dz2     :     0.016117  d :     0.176551
      dxz     :     0.038041
      dyz     :     0.031567
      dx2y2   :     0.044792
      dxy     :     0.046034

  8 C s       :     3.070163  s :     3.070163
      pz      :     0.996230  p :     3.017225
      px      :     1.023252
      py      :     0.997742
      dz2     :     0.007527  d :     0.034971
      dxz     :     0.006407
      dyz     :     0.008094
      dx2y2   :     0.006675
      dxy     :     0.006268

  9 C s       :     3.238851  s :     3.238851
      pz      :     0.926814  p :     2.726735
      px      :     0.900353
      py      :     0.899567
      dz2     :     0.006089  d :     0.032875
      dxz     :     0.005659
      dyz     :     0.007793
      dx2y2   :     0.006578
      dxy     :     0.006755

 10 C s       :     3.222113  s :     3.222113
      pz      :     0.885251  p :     2.757312
      px      :     0.946746
      py      :     0.925315
      dz2     :     0.004981  d :     0.032125
      dxz     :     0.005206
      dyz     :     0.007113
      dx2y2   :     0.007286
      dxy     :     0.007538

 11 C s       :     3.067389  s :     3.067389
      pz      :     0.973135  p :     2.935727
      px      :     0.980682
      py      :     0.981910
      dz2     :     0.008558  d :     0.041816
      dxz     :     0.006584
      dyz     :     0.008997
      dx2y2   :     0.009017
      dxy     :     0.008660

 12 C s       :     3.222209  s :     3.222209
      pz      :     0.938727  p :     2.762154
      px      :     0.894924
      py      :     0.928503
      dz2     :     0.006010  d :     0.032118
      dxz     :     0.005484
      dyz     :     0.007795
      dx2y2   :     0.006081
      dxy     :     0.006748

 13 C s       :     3.223701  s :     3.223701
      pz      :     0.895848  p :     2.732566
      px      :     0.937388
      py      :     0.899331
      dz2     :     0.005045  d :     0.032752
      dxz     :     0.005323
      dyz     :     0.007319
      dx2y2   :     0.007500
      dxy     :     0.007565

 14 C s       :     2.946188  s :     2.946188
      pz      :     1.004534  p :     2.995180
      px      :     1.003239
      py      :     0.987407
      dz2     :     0.006754  d :     0.025710
      dxz     :     0.002237
      dyz     :     0.004857
      dx2y2   :     0.006745
      dxy     :     0.005116

 15 C s       :     3.070169  s :     3.070169
      pz      :     0.990371  p :     3.017234
      px      :     0.996389
      py      :     1.030474
      dz2     :     0.008012  d :     0.034971
      dxz     :     0.009934
      dyz     :     0.004851
      dx2y2   :     0.006579
      dxy     :     0.005596

 16 C s       :     3.223705  s :     3.223705
      pz      :     0.878032  p :     2.732431
      px      :     0.922404
      py      :     0.931995
      dz2     :     0.005858  d :     0.032751
      dxz     :     0.008353
      dyz     :     0.004194
      dx2y2   :     0.007084
      dxy     :     0.007261

 17 C s       :     3.222217  s :     3.222217
      pz      :     0.948028  p :     2.762074
      px      :     0.836751
      py      :     0.977295
      dz2     :     0.007188  d :     0.032118
      dxz     :     0.008998
      dyz     :     0.004669
      dx2y2   :     0.005238
      dxy     :     0.006025

 18 C s       :     3.067415  s :     3.067415
      pz      :     0.974562  p :     2.935780
      px      :     0.986153
      py      :     0.975065
      dz2     :     0.009258  d :     0.041816
      dxz     :     0.010786
      dyz     :     0.005360
      dx2y2   :     0.007822
      dxy     :     0.008590

 19 C s       :     3.222224  s :     3.222224
      pz      :     0.861470  p :     2.757312
      px      :     0.955986
      py      :     0.939856
      dz2     :     0.005796  d :     0.032125
      dxz     :     0.008155
      dyz     :     0.004146
      dx2y2   :     0.006883
      dxy     :     0.007144

 20 C s       :     3.238612  s :     3.238612
      pz      :     0.928966  p :     2.727015
      px      :     0.836754
      py      :     0.961295
      dz2     :     0.007211  d :     0.032875
      dxz     :     0.009309
      dyz     :     0.004689
      dx2y2   :     0.005171
      dxy     :     0.006494

 21 C s       :     2.946155  s :     2.946155
      pz      :     0.999033  p :     2.995134
      px      :     0.982445
      py      :     1.013657
      dz2     :     0.007563  d :     0.025710
      dxz     :     0.004103
      dyz     :     0.002300
      dx2y2   :     0.004009
      dxy     :     0.007735

 22 H s       :     0.948692  s :     0.948692
      pz      :     0.005383  p :     0.023029
      px      :     0.006106
      py      :     0.011541

 23 H s       :     0.948430  s :     0.948430
      pz      :     0.012415  p :     0.023035
      px      :     0.005351
      py      :     0.005269

 24 H s       :     0.925430  s :     0.925430
      pz      :     0.007428  p :     0.023656
      px      :     0.010925
      py      :     0.005303

 25 H s       :     0.999195  s :     0.999195
      pz      :     0.005578  p :     0.022416
      px      :     0.004421
      py      :     0.012417

 26 H s       :     0.985199  s :     0.985199
      pz      :     0.009733  p :     0.022505
      px      :     0.008280
      py      :     0.004492

 27 H s       :     0.974555  s :     0.974555
      pz      :     0.005536  p :     0.023203
      px      :     0.004387
      py      :     0.013280

 28 H s       :     1.001849  s :     1.001849
      pz      :     0.009582  p :     0.022368
      px      :     0.008322
      py      :     0.004465

 29 H s       :     0.974583  s :     0.974583
      pz      :     0.006761  p :     0.023202
      px      :     0.010384
      py      :     0.006057

 30 H s       :     1.001792  s :     1.001792
      pz      :     0.010175  p :     0.022367
      px      :     0.006096
      py      :     0.006096

 31 H s       :     0.999194  s :     0.999194
      pz      :     0.006783  p :     0.022415
      px      :     0.009910
      py      :     0.005723

 32 H s       :     0.985129  s :     0.985129
      pz      :     0.010334  p :     0.022504
      px      :     0.005964
      py      :     0.006206

 33 H s       :     0.925427  s :     0.925427
      pz      :     0.007347  p :     0.023655
      px      :     0.007446
      py      :     0.008863

 34 H s       :     0.948450  s :     0.948450
      pz      :     0.012785  p :     0.023036
      px      :     0.005501
      py      :     0.004749

 35 H s       :     0.948643  s :     0.948643
      pz      :     0.005724  p :     0.023027
      px      :     0.012634
      py      :     0.004669

 36 H s       :     0.985188  s :     0.985188
      pz      :     0.011208  p :     0.022503
      px      :     0.003855
      py      :     0.007440

 37 H s       :     0.999209  s :     0.999209
      pz      :     0.005796  p :     0.022417
      px      :     0.010224
      py      :     0.006397

 38 H s       :     1.001836  s :     1.001836
      pz      :     0.011000  p :     0.022367
      px      :     0.003736
      py      :     0.007631

 39 H s       :     0.974509  s :     0.974509
      pz      :     0.005798  p :     0.023202
      px      :     0.010997
      py      :     0.006408

 40 H s       :     0.948694  s :     0.948694
      pz      :     0.005497  p :     0.023028
      px      :     0.007514
      py      :     0.010017

 41 H s       :     0.948443  s :     0.948443
      pz      :     0.012828  p :     0.023036
      px      :     0.004654
      py      :     0.005555

 42 H s       :     0.925413  s :     0.925413
      pz      :     0.006483  p :     0.023655
      px      :     0.006489
      py      :     0.010683



                     *******************************
                     * LOEWDIN POPULATION ANALYSIS *
                     *******************************

----------------------
LOEWDIN ATOMIC CHARGES
----------------------
   0 C :   -0.057286
   1 C :   -0.026847
   2 C :   -0.034053
   3 C :   -0.026495
   4 C :   -0.182960
   5 C :   -0.030012
   6 C :   -0.033891
   7 P :    0.504920
   8 C :   -0.182948
   9 C :   -0.030014
  10 C :   -0.033895
  11 C :   -0.026854
  12 C :   -0.034040
  13 C :   -0.026517
  14 C :   -0.057296
  15 C :   -0.182966
  16 C :   -0.026505
  17 C :   -0.034026
  18 C :   -0.026857
  19 C :   -0.033902
  20 C :   -0.030027
  21 C :   -0.057288
  22 H :    0.033884
  23 H :    0.034087
  24 H :    0.042709
  25 H :    0.027473
  26 H :    0.027576
  27 H :    0.030765
  28 H :    0.026744
  29 H :    0.030764
  30 H :    0.026751
  31 H :    0.027475
  32 H :    0.027590
  33 H :    0.042710
  34 H :    0.034088
  35 H :    0.033889
  36 H :    0.027581
  37 H :    0.027468
  38 H :    0.026748
  39 H :    0.030771
  40 H :    0.033883
  41 H :    0.034088
  42 H :    0.042713

-------------------------------
LOEWDIN REDUCED ORBITAL CHARGES
[...]
      dz2     :     0.015673  d :     0.085894
      dxz     :     0.023211
      dyz     :     0.009956
      dx2y2   :     0.019226
      dxy     :     0.017828

 20 C s       :     2.875362  s :     2.875362
      pz      :     1.028863  p :     3.071150
      px      :     1.047782
      py      :     0.994505
      dz2     :     0.019666  d :     0.087708
      dxz     :     0.025744
      dyz     :     0.013336
      dx2y2   :     0.013967
      dxy     :     0.014994

 21 C s       :     2.846251  s :     2.846251
      pz      :     1.054269  p :     3.150199
      px      :     1.028665
      py      :     1.067264
      dz2     :     0.020002  d :     0.067258
      dxz     :     0.011787
      dyz     :     0.005001
      dx2y2   :     0.009915
      dxy     :     0.020553

 22 H s       :     0.900255  s :     0.900255
      pz      :     0.012081  p :     0.063659
      px      :     0.016033
      py      :     0.035545

 23 H s       :     0.900415  s :     0.900415
      pz      :     0.036833  p :     0.063641
      px      :     0.013455
      py      :     0.013353

 24 H s       :     0.891485  s :     0.891485
      pz      :     0.018535  p :     0.063739
      px      :     0.032950
      py      :     0.012254

 25 H s       :     0.904402  s :     0.904402
      pz      :     0.015008  p :     0.065993
      px      :     0.012687
      py      :     0.038298

 26 H s       :     0.902947  s :     0.902947
      pz      :     0.029294  p :     0.066498
      px      :     0.023848
      py      :     0.013356

 27 H s       :     0.895597  s :     0.895597
      pz      :     0.014979  p :     0.069034
      px      :     0.012658
      py      :     0.041397

 28 H s       :     0.904882  s :     0.904882
      pz      :     0.028992  p :     0.066022
      px      :     0.023546
      py      :     0.013484

 29 H s       :     0.895615  s :     0.895615
      pz      :     0.018713  p :     0.069031
      px      :     0.031188
      py      :     0.019130

 30 H s       :     0.904870  s :     0.904870
      pz      :     0.031186  p :     0.066015
      px      :     0.017706
      py      :     0.017123

 31 H s       :     0.904407  s :     0.904407
      pz      :     0.018572  p :     0.065991
      px      :     0.030083
      py      :     0.017335

 32 H s       :     0.902935  s :     0.902935
      pz      :     0.031504  p :     0.066493
      px      :     0.017484
      py      :     0.017505

 33 H s       :     0.891486  s :     0.891486
      pz      :     0.017894  p :     0.063739
      px      :     0.018504
      py      :     0.027341

 34 H s       :     0.900305  s :     0.900305
      pz      :     0.038558  p :     0.063648
      px      :     0.012681
      py      :     0.012410

 35 H s       :     0.900330  s :     0.900330
      pz      :     0.013054  p :     0.063659
      px      :     0.038148
      py      :     0.012456

 36 H s       :     0.902954  s :     0.902954
      pz      :     0.033940  p :     0.066498
      px      :     0.010932
      py      :     0.021626

 37 H s       :     0.904411  s :     0.904411
      pz      :     0.015727  p :     0.065995
      px      :     0.031552
      py      :     0.018716

 38 H s       :     0.904889  s :     0.904889
      pz      :     0.033404  p :     0.066021
      px      :     0.010889
      py      :     0.021728

 39 H s       :     0.895623  s :     0.895623
      pz      :     0.015737  p :     0.069030
      px      :     0.034947
      py      :     0.018347

 40 H s       :     0.900339  s :     0.900339
      pz      :     0.012512  p :     0.063658
      px      :     0.022534
      py      :     0.028611

 41 H s       :     0.900363  s :     0.900363
      pz      :     0.038667  p :     0.063641
      px      :     0.012166
      py      :     0.012809

 42 H s       :     0.891478  s :     0.891478
      pz      :     0.015308  p :     0.063743
      px      :     0.018312
      py      :     0.030123



                      *****************************
                      * MAYER POPULATION ANALYSIS *
                      *****************************

  NA   - Mulliken gross atomic population
  ZA   - Total nuclear charge
  QA   - Mulliken gross atomic charge
  VA   - Mayer's total valence
  BVA  - Mayer's bonded valence
  FA   - Mayer's free valence

  ATOM       NA         ZA         QA         VA         BVA        FA
  0 C      5.9900     6.0000     0.0100     3.9135     3.9135    -0.0000
  1 C      6.0402     6.0000    -0.0402     3.9709     3.9709    -0.0000
  2 C      6.0246     6.0000    -0.0246     3.8657     3.8657    -0.0000
  3 C      5.9839     6.0000     0.0161     3.8582     3.8582    -0.0000
  4 C      6.1580     6.0000    -0.1580     3.8214     3.8214    -0.0000
  5 C      5.9906     6.0000     0.0094     3.8709     3.8709    -0.0000
  6 C      6.0195     6.0000    -0.0195     3.8404     3.8404    -0.0000
  7 P     14.7007    15.0000     0.2993     2.9827     2.9827    -0.0000
  8 C      6.1581     6.0000    -0.1581     3.8214     3.8214    -0.0000
  9 C      5.9904     6.0000     0.0096     3.8709     3.8709    -0.0000
 10 C      6.0196     6.0000    -0.0196     3.8402     3.8402    -0.0000
 11 C      6.0401     6.0000    -0.0401     3.9704     3.9704    -0.0000
 12 C      6.0246     6.0000    -0.0246     3.8659     3.8659    -0.0000
 13 C      5.9840     6.0000     0.0160     3.8584     3.8584    -0.0000
 14 C      5.9900     6.0000     0.0100     3.9136     3.9136    -0.0000
 15 C      6.1580     6.0000    -0.1580     3.8211     3.8211    -0.0000
 16 C      5.9838     6.0000     0.0162     3.8582     3.8582    -0.0000
 17 C      6.0245     6.0000    -0.0245     3.8657     3.8657    -0.0000
 18 C      6.0403     6.0000    -0.0403     3.9710     3.9710    -0.0000
 19 C      6.0196     6.0000    -0.0196     3.8404     3.8404    -0.0000
 20 C      5.9907     6.0000     0.0093     3.8710     3.8710    -0.0000
 21 C      5.9900     6.0000     0.0100     3.9135     3.9135    -0.0000
 22 H      0.9657     1.0000     0.0343     0.9927     0.9927     0.0000
 23 H      0.9662     1.0000     0.0338     0.9930     0.9930    -0.0000
 24 H      0.9464     1.0000     0.0536     0.9856     0.9856    -0.0000
 25 H      1.0132     1.0000    -0.0132     0.9868     0.9868    -0.0000
 26 H      0.9999     1.0000     0.0001     0.9898     0.9898    -0.0000
 27 H      0.9860     1.0000     0.0140     0.9905     0.9905    -0.0000
 28 H      1.0156     1.0000    -0.0156     0.9865     0.9865    -0.0000
 29 H      0.9861     1.0000     0.0139     0.9905     0.9905    -0.0000
 30 H      1.0155     1.0000    -0.0155     0.9865     0.9865    -0.0000
 31 H      1.0132     1.0000    -0.0132     0.9868     0.9868    -0.0000
 32 H      0.9999     1.0000     0.0001     0.9898     0.9898    -0.0000
 33 H      0.9464     1.0000     0.0536     0.9856     0.9856    -0.0000
 34 H      0.9660     1.0000     0.0340     0.9929     0.9929     0.0000
 35 H      0.9659     1.0000     0.0341     0.9928     0.9928    -0.0000
 36 H      0.9999     1.0000     0.0001     0.9898     0.9898    -0.0000
 37 H      1.0132     1.0000    -0.0132     0.9868     0.9868    -0.0000
 38 H      1.0156     1.0000    -0.0156     0.9865     0.9865    -0.0000
 39 H      0.9860     1.0000     0.0140     0.9904     0.9904     0.0000
 40 H      0.9659     1.0000     0.0341     0.9928     0.9928    -0.0000
 41 H      0.9660     1.0000     0.0340     0.9929     0.9929    -0.0000
 42 H      0.9464     1.0000     0.0536     0.9856     0.9856    -0.0000

  Mayer bond orders larger than 0.100000
B(  0-C ,  1-C ) :   1.0719 B(  0-C , 22-H ) :   0.9541 B(  0-C , 23-H ) :   0.9542 
B(  0-C , 24-H ) :   0.9466 B(  1-C ,  2-C ) :   1.3721 B(  1-C ,  6-C ) :   1.3757 
B(  2-C ,  3-C ) :   1.3980 B(  2-C , 25-H ) :   0.9762 B(  3-C ,  4-C ) :   1.3540 
B(  3-C , 26-H ) :   0.9702 B(  4-C ,  5-C ) :   1.3757 B(  4-C ,  7-P ) :   0.9333 
B(  5-C ,  6-C ) :   1.3742 B(  5-C , 27-H ) :   0.9659 B(  6-C , 28-H ) :   0.9753 
B(  7-P ,  8-C ) :   0.9333 B(  7-P , 15-C ) :   0.9329 B(  8-C ,  9-C ) :   1.3754 
B(  8-C , 13-C ) :   1.3543 B(  9-C , 10-C ) :   1.3744 B(  9-C , 29-H ) :   0.9660 
B( 10-C , 11-C ) :   1.3754 B( 10-C , 30-H ) :   0.9754 B( 11-C , 12-C ) :   1.3722 
B( 11-C , 14-C ) :   1.0719 B( 12-C , 13-C ) :   1.3979 B( 12-C , 31-H ) :   0.9761 
B( 13-C , 32-H ) :   0.9702 B( 14-C , 33-H ) :   0.9466 B( 14-C , 34-H ) :   0.9542 
B( 14-C , 35-H ) :   0.9542 B( 15-C , 16-C ) :   1.3541 B( 15-C , 20-C ) :   1.3759 
B( 16-C , 17-C ) :   1.3980 B( 16-C , 36-H ) :   0.9702 B( 17-C , 18-C ) :   1.3721 
B( 17-C , 37-H ) :   0.9762 B( 18-C , 19-C ) :   1.3759 B( 18-C , 21-C ) :   1.0719 
B( 19-C , 20-C ) :   1.3741 B( 19-C , 38-H ) :   0.9753 B( 20-C , 39-H ) :   0.9660 
B( 21-C , 40-H ) :   0.9542 B( 21-C , 41-H ) :   0.9542 B( 21-C , 42-H ) :   0.9466 


-------
TIMINGS
-------

Total SCF time: 0 days 0 hours 0 min 6 sec 

Total time                  ....       6.177 sec
Sum of individual times     ....       6.081 sec  ( 98.4%)

SCF preparation             ....       0.133 sec  (  2.2%)
Fock matrix formation       ....       5.382 sec  ( 87.1%)
  Startup                   ....       0.028 sec  (  0.5% of F)
  Split-RI-J                ....       1.971 sec  ( 36.6% of F)
  XC integration            ....       3.294 sec  ( 61.2% of F)
    Basis function eval.    ....       0.937 sec  ( 28.4% of XC)
    Density eval.           ....       0.952 sec  ( 28.9% of XC)
    XC-Functional eval.     ....       0.093 sec  (  2.8% of XC)
    XC-Potential eval.      ....       0.739 sec  ( 22.4% of XC)
Diagonalization             ....       0.000 sec  (  0.0%)
Density matrix formation    ....       0.061 sec  (  1.0%)
Total Energy calculation    ....       0.024 sec  (  0.4%)
Population analysis         ....       0.100 sec  (  1.6%)
Orbital Transformation      ....       0.052 sec  (  0.8%)
Orbital Orthonormalization  ....       0.000 sec  (  0.0%)
DIIS solution               ....       0.068 sec  (  1.1%)
SOSCF solution              ....       0.261 sec  (  4.2%)
Finished LeanSCF after   6.2 sec

Maximum memory used throughout the entire LEANSCF-calculation: 45.0 MB


-------------------------------------------------------------------------------
                          DFT DISPERSION CORRECTION                            
                                                                               
                              DFTD3 V3.1  Rev 1                                
                          USING Becke-Johnson damping                          
-------------------------------------------------------------------------------
The BP86 functional is recognized
Active option DFTDOPT                   ...         4   

molecular C6(AA) [au] = 23144.764379 


            DFT-D V3
 parameters
 s6 scaling factor         :     1.0000 
 a1 scaling factor         :     0.3946 
 s8 scaling factor         :     3.2822 
 a2 scaling factor         :     4.8516 
 ad hoc parameters k1-k3   :    16.0000     1.3333    -4.0000 

 Edisp/kcal,au: -60.671423941258  -0.096686058103 
 E6   /kcal   : -22.216629024 
 E8   /kcal   : -38.454794917 
 % E8         :  63.382054382 

-------------------------   ----------------
Dispersion correction           -0.096686058
-------------------------   ----------------


-------------------------   --------------------
FINAL SINGLE POINT ENERGY     -1153.686437869636
-------------------------   --------------------

                                *** OPTIMIZATION RUN DONE ***



           ************************************************************
           *        Program running with 6 parallel MPI-processes     *
           *              working on a common directory               *
           ************************************************************

------------------------------------------------------------------------------
                              ORCA PROPERTY CALCULATIONS
------------------------------------------------------------------------------

GBWName                                 ... data/geom_opt_P_BP86/13956/13956.gbw
Number of atoms                         ...     43
Number of basis functions               ...    417
Max core memory                         ...   1024 MB

Electric properties:
Dipole moment                           ... YES
Quadrupole moment                       ...  NO
Static polarizability (Dipole/Dipole)   ...  NO
Static polarizability (Dipole/Quad.)    ...  NO
Static polarizability (Quad./Quad.)     ...  NO
Static polarizability (Velocity)        ...  NO

Atomic electric properties:
Dipole moment                           ...  NO
Quadrupole moment                       ...  NO
Static polarizability                   ...  NO

Choice of electric origin               ... Center of mass
Position of electric origin             ...     0.034164    -0.045995    -0.565900

General magnetic properties:
Magnetizability                         ...  NO

EPR properties:
g-Tensor (aka g-matrix)                 ...  NO
Zero-Field splitting spin-orbit         ...  NO
Zero-field splitting spin-spin          ...  NO
Hyperfine couplings                     ...  NO (   0 nuclei)
Quadrupole couplings                    ...  NO (   0 nuclei)
Contact density                         ...  NO (   0 nuclei)

NMR properties:
Chemical shifts                         ...  NO (   0 nuclei)
Spin-rotation constants                 ...  NO (   0 nuclei)
Spin-spin couplings                     ...  NO (   0 nuclei,    0 pairs)

Choice of magnetic origin               ... GIAO
Position of magnetic origin             ...     0.000000     0.000000     0.000000

Properties with geometric perturbations:
SCF Hessian                             ...  NO
IR spectrum                             ...  NO
VCD spectrum                            ...  NO
X-ray spectroscopy properties:
SCF XES/XAS/RIXS spectra                ...  NO


-------------
DIPOLE MOMENT
-------------

Method             : SCF
Type of density    : Electron Density
Multiplicity       :   1
Irrep              :   0
Energy             : -1153.5897518115332332 Eh
Relativity type    : 
Basis              : AO
                                X                 Y                 Z
Electronic contribution:      0.688457490      -0.927909471     -11.419292876
Nuclear contribution   :     -0.731978663       0.984815159      12.123298194
                        -----------------------------------------
Total Dipole Moment    :     -0.043521173       0.056905688       0.704005318
                        -----------------------------------------
Magnitude (a.u.)       :      0.707641037
Magnitude (Debye)      :      1.798680572



--------------------
Rotational spectrum 
--------------------
 
Rotational constants in cm-1:             0.007689             0.007685             0.004462 
Rotational constants in MHz :           230.516207           230.395201           133.771513 

Dipole components along the rotational axes: 
x,y,z [a.u.] :     0.001238     0.000665     0.707640 
x,y,z [Debye]:     0.003146     0.001691     1.798677 

 

Dipole moment calculation done in   0.0 sec 

Maximum memory used throughout the entire PROP-calculation: 23.0 MB

--------------------------------
SUGGESTED CITATIONS FOR THIS RUN
--------------------------------

Below you find a list of papers that are relevant to this ORCA run
We neither can nor want to force you to cite these papers, but we appreciate if you do
You receive ORCA, which is the product of decades of hard work by many enthusiastic individuals, for free
The only thing we kindly ask in return is that you cite our papers,
We deeply appreciate it, if you show your appreciation for ORCA by not just citing the generic ORCA reference.

Please note that relegating all ORCA citations to the supporting information does *not* help us.
SI sections are not indexed - citations you put there will not count into any citation statistics
But we need these citations in order to attract the funding resources that allow us to do what we are doing

Therefore, if you are a happy ORCA user, please consider citing a few of the papers listed below in the main body of your paper

In addition to the list printed below, the program has created the file data/geom_opt_P_BP86/13956/13956.bibtex that contains the list in bibtex format
You can import this file easily into all common literature databanks and citation aid programs


List of essential papers. We consider these as the minimum necessary citations

  1. Neese,F.
     Software update: the ORCA program system, version 5.0
     WIRES Comput. Molec. Sci., 2022 12(1)e1606
     doi.org/10.1002/wcms.1606

List of papers to cite with high priority. The work reported in these papers was absolutely
necessary for this run to complete.
Our perspective: the developers of density functionals and basis sets usually get cited in chemistry papers
Good! But without the algorithms to do something with them, the functionals or basis sets would not do anything.
Hence, in our opinion, the algorithm design and method developments papers are equally worthy of getting cited

  1. Neese,F.
     An improvement of the resolution of the identity approximation for the formation of the Coulomb matrix
     J. Comp. Chem., 2003 24(14)1740-1747
     doi.org/10.1002/jcc.10318
  2. Neese,F.
     The SHARK Integral Generation and Digestion System
     J. Comp. Chem., 2022  1-16
     doi.org/10.1002/jcc.26942
  3. Grimme,S.; Antony,J.; Ehrlich,S.; Krieg,H.
     A consistent and accurate ab initio parametrization of density functional dispersion correction (DFT-D) for the 94 elements H-Pu
     J. Chem. Phys., 2010 132 154104-XXXX
     doi.org/10.1063/1.3382344
  4. Grimme,S.; Ehrlich,S.; Goerigk,L.
     Effect of the damping function in dispersion corrected density functional theory
     J. Comput. Chem., 2011 32(7)1456-1465
     doi.org/10.1002/jcc.21759

List of suggested additional citations. These are papers that are important in the 'surrounding' of 
of this run, or papers that preceded the highly important papers. If you like your results we are grateful for a citation.

  1. Neese,F.
     The ORCA program system
     WIRES Comput. Molec. Sci., 2012 2(1)73-78
     doi.org/10.1002/wcms.81
  2. Neese,F.
     Software update: the ORCA program system, version 4.0
     WIRES Comput. Molec. Sci., 2018 8(1)1-6
     doi.org/10.1002/wcms.1327
  3. Neese,F.; Wennmohs,F.; Becker,U.; Riplinger,C.
     The ORCA quantum chemistry program package
     J. Chem. Phys., 2020 152 Art. No. L224108
     doi.org/10.1063/5.0004608

List of optional additional citations

  1. Neese,F.
     Approximate second-order SCF convergence for spin unrestricted wavefunctions
     Chem. Phys. Lett., 2000 325(1-3)93-98
     doi.org/10.1016/s0009-2614(00)00662-x

Timings for individual modules:

Sum of individual times          ...      147.873 sec (=   2.465 min)
Startup calculation              ...       12.347 sec (=   0.206 min)   8.3 %
SCF iterations                   ...       89.222 sec (=   1.487 min)  60.3 %
Property calculations            ...        0.178 sec (=   0.003 min)   0.1 %
SCF Gradient evaluation          ...       45.966 sec (=   0.766 min)  31.1 %
Geometry relaxation              ...        0.160 sec (=   0.003 min)   0.1 %
                             ****ORCA TERMINATED NORMALLY****
TOTAL RUN TIME: 0 days 0 hours 2 minutes 29 seconds 376 msec
