
                                 *****************
                                 * O   R   C   A *
                                 *****************

                                            #,                                       
                                            ###                                      
                                            ####                                     
                                            #####                                    
                                            ######                                   
                                           ########,                                 
                                     ,,################,,,,,                         
                               ,,#################################,,                 
                          ,,##########################################,,             
                       ,#########################################, ''#####,          
                    ,#############################################,,   '####,        
                  ,##################################################,,,,####,       
                ,###########''''           ''''###############################       
              ,#####''   ,,,,##########,,,,          '''####'''          '####       
            ,##' ,,,,###########################,,,                        '##       
           ' ,,###''''                  '''############,,,                           
         ,,##''                                '''############,,,,        ,,,,,,###''
      ,#''                                            '''#######################'''  
     '                                                          ''''####''''         
             ,#######,   #######,   ,#######,      ##                                
            ,#'     '#,  ##    ##  ,#'     '#,    #''#        ,####,   ,####,        
            ##       ##  ##   ,#'  ##            #'  '#       #'       #'  '#        
            ##       ##  #######   ##           ,######,      #####,   #    #        
            '#,     ,#'  ##    ##  '#,     ,#' ,#      #,     #,   #   #,  ,#        
             '#######'   ##     ##  '#######'  #'      '#     '####' # '####'        



                #########################################################
                #                        -***-                          #
                #          Department of theory and spectroscopy        #
                #                                                       #
                #                      Frank Neese                      #
                #                                                       #
                #     Directorship, Architecture, Infrastructure        #
                #                    SHARK, DRIVERS                     #
                #        Core code/Algorithms in most modules           #
                #                                                       #
                #        Max Planck Institute fuer Kohlenforschung      #
                #                Kaiser Wilhelm Platz 1                 #
                #                 D-45470 Muelheim/Ruhr                 #
                #                      Germany                          #
                #                                                       #
                #                  All rights reserved                  #
                #                        -***-                          #
                #########################################################


                         Program Version 6.0.0  -   RELEASE   -


 With contributions from (in alphabetic order):
   Daniel Aravena         : Magnetic Suceptibility
   Michael Atanasov       : Ab Initio Ligand Field Theory (pilot matlab implementation)
   Alexander A. Auer      : GIAO ZORA, VPT2 properties, NMR spectrum
   Ute Becker             : All parallelization in ORCA, NUMFREQ, NUMCALC
   Giovanni Bistoni       : ED, misc. LED, open-shell LED, HFLD
   Martin Brehm           : Molecular dynamics
   Dmytro Bykov           : pre 5.0 version of the SCF Hessian
   Marcos Casanova-Páez   : Triplet and SCS-CIS(D). UHF-(DLPNO)-IP/EA/STEOM-CCSD. UHF-CVS-IP/STEOM-CCSD
   Vijay G. Chilkuri      : MRCI spin determinant printing, contributions to CSF-ICE
   Pauline Colinet        : FMM embedding
   Dipayan Datta          : RHF DLPNO-CCSD density
   Achintya Kumar Dutta   : EOM-CC, STEOM-CC
   Nicolas Foglia         : Exact transition moments, OPA infrastructure, MCD improvements
   Dmitry Ganyushin       : Spin-Orbit,Spin-Spin,Magnetic field MRCI
   Miquel Garcia          : C-PCM and meta-GGA Hessian, CCSD/C-PCM, Gaussian charge scheme
   Tiago L. C. Gouveia    : GS-ROHF, GS-ROCIS
   Yang Guo               : DLPNO-NEVPT2, F12-NEVPT2, CIM, IAO-localization
   Andreas Hansen         : Spin unrestricted coupled pair/coupled cluster methods
   Ingolf Harden          : AUTO-CI MPn and infrastructure 
   Benjamin Helmich-Paris : MC-RPA, TRAH-(SCF,CASSCF), AVAS, COSX integrals, SCF dyn. polar.
   Lee Huntington         : MR-EOM, pCC
   Robert Izsak           : Overlap fitted RIJCOSX, COSX-SCS-MP3, EOM
   Riya Kayal             : Wick's Theorem for AUTO-CI, AUTO-CI UHF-CCSDT
   Emily Kempfer          : AUTO-CI, RHF CISDT and CCSDT
   Christian Kollmar      : KDIIS, OOCD, Brueckner-CCSD(T), CCSD density, CASPT2, CASPT2-K, improved NEVPT2
   Axel Koslowski         : Symmetry handling
   Simone Kossmann        : Meta GGA functionals, TD-DFT gradient, OOMP2, (MP2 Hessian; deprecated post 5.0)
   Lucas Lang             : DCDCAS
   Marvin Lechner         : AUTO-CI (C++ implementation), FIC-MRCC
   Spencer Leger          : CASSCF response
   Dagmar Lenk            : GEPOL surface, SMD, ORCA-2-JSON
   Dimitrios Liakos       : Extrapolation schemes; Compound Job, initial MDCI parallelization
   Dimitrios Manganas     : Further ROCIS development; embedding schemes. LFT, Crystal Embedding
   Dimitrios Pantazis     : SARC Basis sets
   Anastasios Papadopoulos: AUTO-CI, single reference methods and gradients
   Taras Petrenko         : pre 6.0 DFT Hessian and TD-DFT gradient, (ASA, deprecated), ECA, 1-Electron XAS/XES, NRVS
   Peter Pinski           : DLPNO-MP2, DLPNO-MP2 Gradient
   Christoph Reimann      : Effective Core Potentials
   Marius Retegan         : Local ZFS, SOC
   Christoph Riplinger    : Optimizer, TS searches, QM/MM, DLPNO-CCSD(T), (RO)-DLPNO pert. Triples
   Michael Roemelt        : Original ROCIS implementation
   Masaaki Saitow         : Open-shell DLPNO-CCSD energy and density
   Barbara Sandhoefer     : DKH picture change effects
   Kantharuban Sivalingam : CASSCF convergence/infrastructure, NEVPT2 and variants, FIC-MRCI
   Bernardo de Souza      : ESD, SOC TD-DFT
   Georgi Stoychev        : AutoAux, RI-MP2 NMR, DLPNO-MP2 response, X2C
   Van Anh Tran           : RI-MP2 g-tensors
   Willem Van den Heuvel  : Paramagnetic NMR
   Zikuan Wang            : NOTCH, Electric field optimization 
   Frank Wennmohs         : Technical directorship and infrastructure
   Hang Xu                : AUTO-CI-Response properties 


 We gratefully acknowledge several colleagues who have allowed us to
 interface, adapt or use parts of their codes:
   Stefan Grimme, W. Hujo, H. Kruse, P. Pracht,  : VdW corrections, initial TS optimization,
                  C. Bannwarth, S. Ehlert,         DFT functionals, gCP, sTDA/sTD-DF
                  L. Wittmann, M. Mueller
   Ed Valeev, F. Pavosevic, A. Kumar             : LibInt (2-el integral package), F12 methods
   Garnet Chan, S. Sharma, J. Yang, R. Olivares  : DMRG
   Ulf Ekstrom                                   : XCFun DFT Library
   Mihaly Kallay                                 : mrcc  (arbitrary order and MRCC methods)
   Frank Weinhold                                : gennbo (NPA and NBO analysis)
   Simon Mueller                                 : openCOSMO-RS
   Christopher J. Cramer and Donald G. Truhlar   : smd solvation model
   Lars Goerigk                                  : TD-DFT with DH, B97 family of functionals
   V. Asgeirsson, H. Jonsson                     : NEB implementation
   FAccTs GmbH                                   : IRC, NEB, NEB-TS, DLPNO-Multilevel, CI-OPT
                                                   MM, QMMM, 2- and 3-layer-ONIOM, Crystal-QMMM,
                                                   LR-CPCM, SF, NACMEs, symmetry and pop. for TD-DFT,
                                                   nearIR, NL-DFT gradient (VV10), updates on ESD,
                                                   ML-optimized integration grids, MBIS, APM,
                                                   GOAT, DOCKER, SOLVATOR, interface openCOSMO-RS
   S Lehtola, MJT Oliveira, MAL Marques          : LibXC Library
   Liviu Ungur et al                             : ANISO software


 Your calculation uses the libint2 library for the computation of 2-el integrals
 For citations please refer to: http://libint.valeyev.net

 Your ORCA version has been built with support for libXC version: 6.2.2
 For citations please refer to: https://libxc.gitlab.io

 This ORCA versions uses:
   CBLAS   interface :  Fast vector & matrix operations
   LAPACKE interface :  Fast linear algebra routines
   Shared memory     :  Shared parallel matrices


Your calculation utilizes the atom-pairwise dispersion correction
with the zero-damping scheme (D30)


XCFun DFT library Copyright 2009-2010 Ulf Ekstrom and contributors.
See http://admol.org/xcfun for more information.
This is free software; see the source code for copying conditions.
There is ABSOLUTELY NO WARRANTY; not even for MERCHANTABILITY or FITNESS FOR A PARTICULAR PURPOSE.
For details see the documentation.
Scientific users of this library should cite U. Ekstrom, L. Visscher, R. Bast, A. J. Thorvaldsen and K. Ruud;
J.Chem.Theor.Comp. 2010, DOI: 10.1021/ct100117s
XCFun Version 0.99 

Warning: RI is on but no J-basis has been assigned. Assigning Def2/J (nothing to worry about!)
================================================================================

----- Orbital basis set information -----
Your calculation utilizes the basis: def2-TZVP
   F. Weigend and R. Ahlrichs, Phys. Chem. Chem. Phys. 7, 3297 (2005).

----- AuxJ basis set information -----
Your calculation utilizes the auxiliary basis: def2/J
   F. Weigend, Phys. Chem. Chem. Phys. 8, 1057 (2006).

================================================================================
                                        WARNINGS
                       Please study these warnings very carefully!
================================================================================

WARNING: Functional chosen is sensitive to the integration grid.
         DEFGRID3 seems to be a minimum grid for robust results!

================================================================================
                                       INPUT FILE
================================================================================
NAME = data/single_point_PO_M06-2x/70071/70071.inp
|  1> ! RIJCOSX M062X def2-TZVP D3ZERO NormalSCF
|  2> %pal
|  3> nprocs 6
|  4> end
|  5> 
|  6> * xyz 0 1
|  7>   C          -0.37966319757932      6.58368331526165     -1.08348398517452
|  8>   O           0.19346049066051      5.42101041714460     -1.65918774955133
|  9>   C           0.11637508978791      4.25072709746472     -0.96843433736560
| 10>   C           0.71620271061987      3.12850575258841     -1.58522980464229
| 11>   C           0.68927128261402      1.88251588731878     -0.95391541321858
| 12>   C           0.05642351949912      1.72746126549483      0.29935878444492
| 13>   C          -0.52383287831310      2.85104859876699      0.91643521156804
| 14>   C          -0.50107887405746      4.10807891556275      0.29398821238951
| 15>   P          -0.06453504179689      0.13902064997947      1.19375943322319
| 16>   O          -0.14933377942847      0.30828661172913      2.70273342377015
| 17>   C           1.38525559597803     -0.83723622519436      0.66212057470273
| 18>   C           1.43406952256923     -1.59132936725229     -0.53126649630266
| 19>   C           2.59081566456297     -2.29254035410778     -0.88017379537338
| 20>   C           3.72321890606883     -2.26111947541208     -0.03378477193072
| 21>   C           3.67534927396589     -1.52568533878848      1.17121470332503
| 22>   C           2.50872260443638     -0.82326397302676      1.50889869808016
| 23>   O           4.80236525522047     -2.97421613048070     -0.45746104254471
| 24>   C           5.96340194798842     -2.98947046939407      0.35721699515744
| 25>   C          -1.51726423652240     -0.71304958756343      0.48582214469872
| 26>   C          -1.96829275353892     -0.53319216612727     -0.84062239450506
| 27>   C          -3.07374272063700     -1.24299897133045     -1.31570538852510
| 28>   C          -3.75845680616518     -2.14311958919694     -0.46673957438837
| 29>   C          -3.32604139866917     -2.31300949048838      0.86722061961162
| 30>   C          -2.21268569098035     -1.59659687402365      1.33150357679747
| 31>   O          -4.82190590744483     -2.78891829827574     -1.01870806840469
| 32>   C          -5.55129426166945     -3.69983630136100     -0.21272583977098
| 33>   H          -0.20359418159596      7.40597328920929     -1.80118804035958
| 34>   H          -1.47531189010422      6.46953294012632     -0.92419635600601
| 35>   H           0.09731046922821      6.84179014086058     -0.11160593884436
| 36>   H           1.20755728561383      3.26904470520944     -2.55897742459974
| 37>   H           1.18247106774155      1.02250782172111     -1.43310894587449
| 38>   H          -0.98570411660137      2.73048443981183      1.90877072394663
| 39>   H          -0.95857875561275      4.96812041443354      0.80107009565736
| 40>   H           0.55073346702084     -1.64480064687557     -1.18643532951020
| 41>   H           2.64593606299628     -2.88752562100539     -1.80340013638028
| 42>   H           4.53565314896628     -1.49973545272837      1.85336719483174
| 43>   H           2.45224972979421     -0.26119020623533      2.45420704474452
| 44>   H           5.75990484902253     -3.43013165717631      1.35874952180802
| 45>   H           6.70530229655694     -3.61771718385846     -0.16921794830844
| 46>   H           6.38493525108662     -1.96871014124015      0.49551739335678
| 47>   H          -1.45927798936104      0.18406355707605     -1.50317249434193
| 48>   H          -3.44149112346960     -1.11381256097749     -2.34402756842129
| 49>   H          -3.85182870571635     -2.99316210810227      1.55064672037812
| 50>   H          -1.87591755162517     -1.70609328930665      2.37420311911210
| 51>   H          -6.00853350349132     -3.19809708640204      0.66935090669165
| 52>   H          -4.91284256357102     -4.53842939130136      0.14502609230324
| 53>   H          -6.35577756404758     -4.10687086252671     -0.85257734625483
| 54> **                         ****END OF INPUT****
================================================================================

                       ****************************
                       * Single Point Calculation *
                       ****************************

---------------------------------
CARTESIAN COORDINATES (ANGSTROEM)
---------------------------------
  C     -0.379663    6.583683   -1.083484
  O      0.193460    5.421010   -1.659188
  C      0.116375    4.250727   -0.968434
  C      0.716203    3.128506   -1.585230
  C      0.689271    1.882516   -0.953915
  C      0.056424    1.727461    0.299359
  C     -0.523833    2.851049    0.916435
  C     -0.501079    4.108079    0.293988
  P     -0.064535    0.139021    1.193759
  O     -0.149334    0.308287    2.702733
  C      1.385256   -0.837236    0.662121
  C      1.434070   -1.591329   -0.531266
  C      2.590816   -2.292540   -0.880174
  C      3.723219   -2.261119   -0.033785
  C      3.675349   -1.525685    1.171215
  C      2.508723   -0.823264    1.508899
  O      4.802365   -2.974216   -0.457461
  C      5.963402   -2.989470    0.357217
  C     -1.517264   -0.713050    0.485822
  C     -1.968293   -0.533192   -0.840622
  C     -3.073743   -1.242999   -1.315705
  C     -3.758457   -2.143120   -0.466740
  C     -3.326041   -2.313009    0.867221
  C     -2.212686   -1.596597    1.331504
  O     -4.821906   -2.788918   -1.018708
  C     -5.551294   -3.699836   -0.212726
  H     -0.203594    7.405973   -1.801188
  H     -1.475312    6.469533   -0.924196
  H      0.097310    6.841790   -0.111606
  H      1.207557    3.269045   -2.558977
  H      1.182471    1.022508   -1.433109
  H     -0.985704    2.730484    1.908771
  H     -0.958579    4.968120    0.801070
  H      0.550733   -1.644801   -1.186435
  H      2.645936   -2.887526   -1.803400
  H      4.535653   -1.499735    1.853367
  H      2.452250   -0.261190    2.454207
  H      5.759905   -3.430132    1.358750
  H      6.705302   -3.617717   -0.169218
  H      6.384935   -1.968710    0.495517
  H     -1.459278    0.184064   -1.503172
  H     -3.441491   -1.113813   -2.344028
  H     -3.851829   -2.993162    1.550647
  H     -1.875918   -1.706093    2.374203
  H     -6.008534   -3.198097    0.669351
  H     -4.912843   -4.538429    0.145026
  H     -6.355778   -4.106871   -0.852577

----------------------------
CARTESIAN COORDINATES (A.U.)
----------------------------
  NO LB      ZA    FRAG     MASS         X           Y           Z
   0 C     6.0000    0    12.011   -0.717459   12.441358   -2.047488
   1 O     8.0000    0    15.999    0.365587   10.244225   -3.135410
   2 C     6.0000    0    12.011    0.219917    8.032710   -1.830076
   3 C     6.0000    0    12.011    1.353427    5.912019   -2.995650
   4 C     6.0000    0    12.011    1.302534    3.557439   -1.802639
   5 C     6.0000    0    12.011    0.106625    3.264429    0.565706
   6 C     6.0000    0    12.011   -0.989901    5.387701    1.731812
   7 C     6.0000    0    12.011   -0.946902    7.763144    0.555557
   8 P    15.0000    0    30.974   -0.121954    0.262711    2.255878
   9 O     8.0000    0    15.999   -0.282200    0.582577    5.107426
  10 C     6.0000    0    12.011    2.617754   -1.582147    1.251227
  11 C     6.0000    0    12.011    2.709999   -3.007177   -1.003948
  12 C     6.0000    0    12.011    4.895932   -4.332273   -1.663287
  13 C     6.0000    0    12.011    7.035864   -4.272897   -0.063844
  14 C     6.0000    0    12.011    6.945404   -2.883127    2.213275
  15 C     6.0000    0    12.011    4.740799   -1.555743    2.851405
  16 O     8.0000    0    15.999    9.075155   -5.620454   -0.864476
  17 C     6.0000    0    12.011   11.269197   -5.649280    0.675042
  18 C     6.0000    0    12.011   -2.867214   -1.347468    0.918071
  19 C     6.0000    0    12.011   -3.719534   -1.007587   -1.588546
  20 C     6.0000    0    12.011   -5.808532   -2.348928   -2.486323
  21 C     6.0000    0    12.011   -7.102454   -4.049909   -0.882010
  22 C     6.0000    0    12.011   -6.285307   -4.370954    1.638809
  23 C     6.0000    0    12.011   -4.181370   -3.017131    2.516177
  24 O     8.0000    0    15.999   -9.112082   -5.270292   -1.925079
  25 C     6.0000    0    12.011  -10.490426   -6.991677   -0.401994
  26 H     1.0000    0     1.008   -0.384737   13.995261   -3.403752
  27 H     1.0000    0     1.008   -2.787935   12.225645   -1.746478
  28 H     1.0000    0     1.008    0.183890   12.929110   -0.210905
  29 H     1.0000    0     1.008    2.281953    6.177599   -4.835767
  30 H     1.0000    0     1.008    2.234546    1.932260   -2.708183
  31 H     1.0000    0     1.008   -1.862711    5.159868    3.607054
  32 H     1.0000    0     1.008   -1.811451    9.388387    1.513803
  33 H     1.0000    0     1.008    1.040735   -3.108223   -2.242038
  34 H     1.0000    0     1.008    5.000095   -5.456633   -3.407932
  35 H     1.0000    0     1.008    8.571142   -2.834089    3.502356
  36 H     1.0000    0     1.008    4.634080   -0.493578    4.637779
  37 H     1.0000    0     1.008   10.884643   -6.482009    2.567664
  38 H     1.0000    0     1.008   12.671185   -6.836495   -0.319776
  39 H     1.0000    0     1.008   12.065779   -3.720323    0.936392
  40 H     1.0000    0     1.008   -2.757636    0.347830   -2.840584
  41 H     1.0000    0     1.008   -6.503476   -2.104801   -4.429570
  42 H     1.0000    0     1.008   -7.278901   -5.656257    2.930298
  43 H     1.0000    0     1.008   -3.544970   -3.224049    4.486594
  44 H     1.0000    0     1.008  -11.354483   -6.043528    1.264890
  45 H     1.0000    0     1.008   -9.283927   -8.576389    0.274060
  46 H     1.0000    0     1.008  -12.010679   -7.760861   -1.611138

--------------------------------
INTERNAL COORDINATES (ANGSTROEM)
--------------------------------
 C      0   0   0     0.000000000000     0.00000000     0.00000000
 O      1   0   0     1.418348988915     0.00000000     0.00000000
 C      2   1   0     1.361119202640   118.42008874     0.00000000
 C      3   2   1     1.414075871395   115.90998476   180.59465253
 C      4   3   2     1.397059020581   120.16613267   179.98777123
 C      5   4   3     1.412527678156   120.49601247     0.44938845
 C      6   5   4     1.407099605431   119.09136641   358.74833687
 C      7   6   5     1.402883897135   120.94580277     1.12783936
 P      6   5   4     1.826944740025   124.01912012   178.74189379
 O      9   6   5     1.520803832142   113.12099589   152.06089189
 C      9   6   5     1.826912766279   105.64096272    27.81861909
 C     11   9   6     1.412519722896   123.95673482   277.36028408
 C     12  11   9     1.396959121968   120.50451854   178.80477528
 C     13  12  11     1.414107051109   120.16203508     0.46367279
 C     14  13  12     1.412507913732   119.67196473     0.48959342
 C     15  14  13     1.403012487988   119.61537504   359.37204503
 O     14  13  12     1.361089734235   115.91005178   180.01509107
 C     17  14  13     1.418428426789   118.41358022   180.56883220
 C      9   6   5     1.826915708892   105.57213984   276.22296829
 C     19   9   6     1.412526293841   123.94581784    28.95904635
 C     20  19   9     1.396978590271   120.48608225   178.71751673
 C     21  20  19     1.414140537288   120.15878932     0.46225208
 C     22  21  20     1.412549277858   119.68768368     0.51455336
 C     23  22  21     1.402984901275   119.60562423   359.34556760
 O     22  21  20     1.361120561173   115.90297697   180.04149866
 C     25  22  21     1.418233525375   118.43109981   180.28447632
 H      1   2   3     1.105558777485   106.37064965   179.89278302
 H      1   2   3     1.113035899862   111.82567041   298.81410062
 H      1   2   3     1.112955501890   111.80064889    60.97136251
 H      4   3   2     1.099711299817   118.31558992     0.66085685
 H      5   4   3     1.101129575791   119.42473991   181.55489496
 H      7   6   5     1.101176882390   118.73358180   182.04057278
 H      8   7   6     1.098230193421   119.34565214   180.23134457
 H     12  11   9     1.101084903531   120.06047200   357.72238093
 H     13  12  11     1.099723875742   121.51716642   179.78918804
 H     15  14  13     1.098238669687   121.04016181   178.95680802
 H     16  15  14     1.101237474462   120.31677429   178.88141612
 H     18  17  14     1.112951370745   111.80485263    61.12092722
 H     18  17  14     1.105551360699   106.37446632   180.05151057
 H     18  17  14     1.112999988004   111.80908766   298.98265474
 H     20  19   9     1.101146873679   120.02382676   357.60589611
 H     21  20  19     1.099715655100   121.52908149   179.79340781
 H     23  22  21     1.098240005968   121.03740084   178.94480534
 H     24  23  22     1.101192344773   120.34866300   178.90816278
 H     26  25  22     1.113045080282   111.84591162    61.34176804
 H     26  25  22     1.113034314926   111.81298187   299.17143865
 H     26  25  22     1.105567939178   106.36757301   180.25330840

---------------------------
INTERNAL COORDINATES (A.U.)
---------------------------
 C      0   0   0     0.000000000000     0.00000000     0.00000000
 O      1   0   0     2.680291151373     0.00000000     0.00000000
 C      2   1   0     2.572142528611   118.42008874     0.00000000
 C      3   2   1     2.672216129523   115.90998476   180.59465253
 C      4   3   2     2.640058941823   120.16613267   179.98777123
 C      5   4   3     2.669290468299   120.49601247     0.44938845
 C      6   5   4     2.659032897412   119.09136641   358.74833687
 C      7   6   5     2.651066363273   120.94580277     1.12783936
 P      6   5   4     3.452425220455   124.01912012   178.74189379
 O      9   6   5     2.873902746167   113.12099589   152.06089189
 C      9   6   5     3.452364798832   105.64096272    27.81861909
 C     11   9   6     2.669275435036   123.95673482   277.36028408
 C     12  11   9     2.639870160802   120.50451854   178.80477528
 C     13  12  11     2.672275050642   120.16203508     0.46367279
 C     14  13  12     2.669253118950   119.67196473     0.48959342
 C     15  14  13     2.651309364769   119.61537504   359.37204503
 O     14  13  12     2.572086841395   115.91005178   180.01509107
 C     17  14  13     2.680441267200   118.41358022   180.56883220
 C      9   6   5     3.452370359565   105.57213984   276.22296829
 C     19   9   6     2.669287852322   123.94581784    28.95904635
 C     20  19   9     2.639906950565   120.48608225   178.71751673
 C     21  20  19     2.672338330351   120.15878932     0.46225208
 C     22  21  20     2.669331285820   119.68768368     0.51455336
 C     23  22  21     2.651257233437   119.60562423   359.34556760
 O     22  21  20     2.572145095866   115.90297697   180.04149866
 C     25  22  21     2.680072956904   118.43109981   180.28447632
 H      1   2   3     2.089203314399   106.37064965   179.89278302
 H      1   2   3     2.103333027961   111.82567041   298.81410062
 H      1   2   3     2.103181097813   111.80064889    60.97136251
 H      4   3   2     2.078153183032   118.31558992     0.66085685
 H      5   4   3     2.080833336206   119.42473991   181.55489496
 H      7   6   5     2.080922732722   118.73358180   182.04057278
 H      8   7   6     2.075354297569   119.34565214   180.23134457
 H     12  11   9     2.080748917868   120.06047200   357.72238093
 H     13  12  11     2.078176948087   121.51716642   179.78918804
 H     15  14  13     2.075370315391   121.04016181   178.95680802
 H     16  15  14     2.081037235144   120.31677429   178.88141612
 H     18  17  14     2.103173291081   111.80485263    61.12092722
 H     18  17  14     2.089189298705   106.37446632   180.05151057
 H     18  17  14     2.103265164384   111.80908766   298.98265474
 H     20  19   9     2.080866024477   120.02382676   357.60589611
 H     21  20  19     2.078161413325   121.52908149   179.79340781
 H     23  22  21     2.075372840595   121.03740084   178.94480534
 H     24  23  22     2.080951952392   120.34866300   178.90816278
 H     26  25  22     2.103350376441   111.84591162    61.34176804
 H     26  25  22     2.103330032867   111.81298187   299.17143865
 H     26  25  22     2.089220627490   106.36757301   180.25330840

---------------------
BASIS SET INFORMATION
---------------------
There are 4 groups of distinct atoms

 Group   1 Type C   : 11s6p2d1f contracted to 5s3p2d1f pattern {62111/411/11/1}
 Group   2 Type O   : 11s6p2d1f contracted to 5s3p2d1f pattern {62111/411/11/1}
 Group   3 Type P   : 14s9p3d1f contracted to 5s5p2d1f pattern {73211/51111/21/1}
 Group   4 Type H   : 5s1p contracted to 3s1p pattern {311/1}

Atom   0C    basis set group =>   1
Atom   1O    basis set group =>   2
Atom   2C    basis set group =>   1
Atom   3C    basis set group =>   1
Atom   4C    basis set group =>   1
Atom   5C    basis set group =>   1
Atom   6C    basis set group =>   1
Atom   7C    basis set group =>   1
Atom   8P    basis set group =>   3
Atom   9O    basis set group =>   2
Atom  10C    basis set group =>   1
Atom  11C    basis set group =>   1
Atom  12C    basis set group =>   1
Atom  13C    basis set group =>   1
Atom  14C    basis set group =>   1
Atom  15C    basis set group =>   1
Atom  16O    basis set group =>   2
Atom  17C    basis set group =>   1
Atom  18C    basis set group =>   1
Atom  19C    basis set group =>   1
Atom  20C    basis set group =>   1
Atom  21C    basis set group =>   1
Atom  22C    basis set group =>   1
Atom  23C    basis set group =>   1
Atom  24O    basis set group =>   2
Atom  25C    basis set group =>   1
Atom  26H    basis set group =>   4
Atom  27H    basis set group =>   4
Atom  28H    basis set group =>   4
Atom  29H    basis set group =>   4
Atom  30H    basis set group =>   4
Atom  31H    basis set group =>   4
Atom  32H    basis set group =>   4
Atom  33H    basis set group =>   4
Atom  34H    basis set group =>   4
Atom  35H    basis set group =>   4
Atom  36H    basis set group =>   4
Atom  37H    basis set group =>   4
Atom  38H    basis set group =>   4
Atom  39H    basis set group =>   4
Atom  40H    basis set group =>   4
Atom  41H    basis set group =>   4
Atom  42H    basis set group =>   4
Atom  43H    basis set group =>   4
Atom  44H    basis set group =>   4
Atom  45H    basis set group =>   4
Atom  46H    basis set group =>   4
---------------------------------
AUXILIARY/J BASIS SET INFORMATION
---------------------------------
There are 4 groups of distinct atoms

 Group   1 Type C   : 12s5p4d2f1g contracted to 6s4p3d1f1g pattern {711111/2111/211/2/1}
 Group   2 Type O   : 12s5p4d2f1g contracted to 6s4p3d1f1g pattern {711111/2111/211/2/1}
 Group   3 Type P   : 14s5p5d2f1g contracted to 8s4p3d1f1g pattern {71111111/2111/311/2/1}
 Group   4 Type H   : 5s2p1d contracted to 3s1p1d pattern {311/2/1}

Atom   0C    basis set group =>   1
Atom   1O    basis set group =>   2
Atom   2C    basis set group =>   1
Atom   3C    basis set group =>   1
Atom   4C    basis set group =>   1
Atom   5C    basis set group =>   1
Atom   6C    basis set group =>   1
Atom   7C    basis set group =>   1
Atom   8P    basis set group =>   3
Atom   9O    basis set group =>   2
Atom  10C    basis set group =>   1
Atom  11C    basis set group =>   1
Atom  12C    basis set group =>   1
Atom  13C    basis set group =>   1
Atom  14C    basis set group =>   1
Atom  15C    basis set group =>   1
Atom  16O    basis set group =>   2
Atom  17C    basis set group =>   1
Atom  18C    basis set group =>   1
Atom  19C    basis set group =>   1
Atom  20C    basis set group =>   1
Atom  21C    basis set group =>   1
Atom  22C    basis set group =>   1
Atom  23C    basis set group =>   1
Atom  24O    basis set group =>   2
Atom  25C    basis set group =>   1
Atom  26H    basis set group =>   4
Atom  27H    basis set group =>   4
Atom  28H    basis set group =>   4
Atom  29H    basis set group =>   4
Atom  30H    basis set group =>   4
Atom  31H    basis set group =>   4
Atom  32H    basis set group =>   4
Atom  33H    basis set group =>   4
Atom  34H    basis set group =>   4
Atom  35H    basis set group =>   4
Atom  36H    basis set group =>   4
Atom  37H    basis set group =>   4
Atom  38H    basis set group =>   4
Atom  39H    basis set group =>   4
Atom  40H    basis set group =>   4
Atom  41H    basis set group =>   4
Atom  42H    basis set group =>   4
Atom  43H    basis set group =>   4
Atom  44H    basis set group =>   4
Atom  45H    basis set group =>   4
Atom  46H    basis set group =>   4


           ************************************************************
           *        Program running with 6 parallel MPI-processes     *
           *              working on a common directory               *
           ************************************************************
------------------------------------------------------------------------------
                             ORCA STARTUP CALCULATIONS
                           -- RI-GTO INTEGRALS CHOSEN --
------------------------------------------------------------------------------
------------------------------------------------------------------------------
                   ___                                                        
                  /   \      - P O W E R E D   B Y -                         
                 /     \                                                     
                 |  |  |   _    _      __       _____    __    __             
                 |  |  |  | |  | |    /  \     |  _  \  |  |  /  |          
                  \  \/   | |  | |   /    \    | | | |  |  | /  /          
                 / \  \   | |__| |  /  /\  \   | |_| |  |  |/  /          
                |  |  |   |  __  | /  /__\  \  |    /   |      \           
                |  |  |   | |  | | |   __   |  |    \   |  |\   \          
                \     /   | |  | | |  |  |  |  | |\  \  |  | \   \       
                 \___/    |_|  |_| |__|  |__|  |_| \__\ |__|  \__/        
                                                                              
                      - O R C A' S   B I G   F R I E N D -                    
                                      &                                       
                       - I N T E G R A L  F E E D E R -                       
                                                                              
 v1 FN, 2020, v2 2021, v3 2022-2024                                           
------------------------------------------------------------------------------


----------------------
SHARK INTEGRAL PACKAGE
----------------------

Number of atoms                             ...     47
Number of basis functions                   ...    938
Number of shells                            ...    372
Maximum angular momentum                    ...      3
Integral batch strategy                     ... SHARK/LIBINT Hybrid
RI-J (if used) integral strategy            ... SPLIT-RIJ (Revised 2003 algorithm where possible)
Printlevel                                  ...      1
Contraction scheme used                     ... SEGMENTED contraction
Prescreening option                         ... SCHWARTZ
   Thresh                                   ... 1.000e-10
   Tcut                                     ... 1.000e-11
   Tpresel                                  ... 1.000e-11 
Coulomb Range Separation                    ... NOT USED
Exchange Range Separation                   ... NOT USED
Multipole approximations                    ... NOT USED
Finite Nucleus Model                        ... NOT USED
CABS basis                                  ... NOT available
Auxiliary Coulomb fitting basis             ... AVAILABLE
   # of basis functions in Aux-J            ...   1507
   # of shells in Aux-J                     ...    497
   Maximum angular momentum in Aux-J        ...      4
Auxiliary J/K fitting basis                 ... NOT available
Auxiliary Correlation fitting basis         ... NOT available
Auxiliary 'external' fitting basis          ... NOT available

Checking pre-screening integrals            ... done (  0.0 sec) Dimension = 372
Check shell pair data                       ... done (  0.0 sec)
Shell pair information
Shell pair cut-off parameter TPreSel        ...   1.0e-11
Total number of shell pairs                 ...     69378
Shell pairs after pre-screening             ...     40888
Total number of primitive shell pairs       ...    214180
Primitive shell pairs kept                  ...     81661
          la=0 lb=0:  10492 shell pairs
          la=1 lb=0:  12058 shell pairs
          la=1 lb=1:   3494 shell pairs
          la=2 lb=0:   5644 shell pairs
          la=2 lb=1:   3301 shell pairs
          la=2 lb=2:    794 shell pairs
          la=3 lb=0:   2652 shell pairs
          la=3 lb=1:   1565 shell pairs
          la=3 lb=2:    711 shell pairs
          la=3 lb=3:    177 shell pairs

Calculating one electron integrals          ... done (  0.1 sec)
Calculating RI/J V-Matrix + Cholesky decomp.... done (  0.1 sec)
Calculating Nuclear repulsion               ... done (  0.0 sec) ENN=   2363.575918438002 Eh

Diagonalization of the overlap matrix:
Smallest eigenvalue                        ... 7.581e-06
Time for diagonalization                   ...    0.248 sec
Threshold for overlap eigenvalues          ... 1.000e-07
Number of eigenvalues below threshold      ... 0
Time for construction of square roots      ...    0.089 sec
Total time needed                          ...    0.345 sec

-------------------
DFT GRID GENERATION
-------------------

General Integration Accuracy     IntAcc      ... 4.388
Radial Grid Type                 RadialGrid  ... OptM3 with GC (2021)
Angular Grid (max. ang.)         AngularGrid ... 4 (Lebedev-302)
Angular grid pruning method      GridPruning ... 4 (adaptive)
Weight generation scheme         WeightScheme... mBecke (2022)
Basis function cutoff            BFCut       ... 1.0000e-10
Integration weight cutoff        WCut        ... 1.0000e-14
Partially contracted basis set               ... off
Rotationally invariant grid construction     ... off
Angular grids for H and He will be reduced by one unit

Total number of grid points                  ...   223967
Total number of batches                      ...     3529
Average number of points per batch           ...       63
Average number of grid points per atom       ...     4765

--------------------
COSX GRID GENERATION
--------------------

GRIDX 1
-------
General Integration Accuracy     IntAcc      ... 3.816
Radial Grid Type                 RadialGrid  ... OptM3 with GC (2021)
Angular Grid (max. ang.)         AngularGrid ... 1 (Lebedev-50)
Angular grid pruning method      GridPruning ... 4 (adaptive)
Weight generation scheme         WeightScheme... mBecke (2022)
Basis function cutoff            BFCut       ... 1.0000e-10
Integration weight cutoff        WCut        ... 1.0000e-14
Partially contracted basis set               ... on
Rotationally invariant grid construction     ... off
Angular grids for H and He will be reduced by one unit

Total number of grid points                  ...    29455
Total number of batches                      ...      257
Average number of points per batch           ...      114
Average number of grid points per atom       ...      627
UseSFitting                                  ... on

GRIDX 2
-------
General Integration Accuracy     IntAcc      ... 4.020
Radial Grid Type                 RadialGrid  ... OptM3 with GC (2021)
Angular Grid (max. ang.)         AngularGrid ... 2 (Lebedev-110)
Angular grid pruning method      GridPruning ... 4 (adaptive)
Weight generation scheme         WeightScheme... mBecke (2022)
Basis function cutoff            BFCut       ... 1.0000e-10
Integration weight cutoff        WCut        ... 1.0000e-14
Partially contracted basis set               ... on
Rotationally invariant grid construction     ... off
Angular grids for H and He will be reduced by one unit

Total number of grid points                  ...    61489
Total number of batches                      ...      503
Average number of points per batch           ...      122
Average number of grid points per atom       ...     1308
UseSFitting                                  ... on

GRIDX 3
-------
General Integration Accuracy     IntAcc      ... 4.338
Radial Grid Type                 RadialGrid  ... OptM3 with GC (2021)
Angular Grid (max. ang.)         AngularGrid ... 3 (Lebedev-194)
Angular grid pruning method      GridPruning ... 4 (adaptive)
Weight generation scheme         WeightScheme... mBecke (2022)
Basis function cutoff            BFCut       ... 1.0000e-10
Integration weight cutoff        WCut        ... 1.0000e-14
Partially contracted basis set               ... on
Rotationally invariant grid construction     ... off
Angular grids for H and He will be reduced by one unit

Total number of grid points                  ...   134868
Total number of batches                      ...     1083
Average number of points per batch           ...      124
Average number of grid points per atom       ...     2870
UseSFitting                                  ... on
Initializing property integral containers    ... done (  0.0 sec)

SHARK setup successfully completed in   7.0 seconds

Maximum memory used throughout the entire STARTUP-calculation: 93.3 MB


           ************************************************************
           *        Program running with 6 parallel MPI-processes     *
           *              working on a common directory               *
           ************************************************************
-------------------------------------------------------------------------------
                                 ORCA GUESS
                   Start orbitals & Density for SCF / CASSCF
-------------------------------------------------------------------------------

------------
SCF SETTINGS
------------
Hamiltonian:
 Density Functional     Method          .... DFT(GTOs)
 Exchange Functional    Exchange        .... M062X
 Correlation Functional Correlation     .... M062X
 Gradients option       PostSCFGGA      .... off
 Hybrid DFT is turned on
   Fraction HF Exchange ScalHFX         ....  0.540000
   Scaling of DF-GGA-X  ScalDFX         ....  0.460000
   Scaling of DF-GGA-C  ScalDFC         ....  1.000000
   Scaling of DF-LDA-C  ScalLDAC        ....  1.000000
   Perturbative correction              ....  0.000000
 RI-approximation to the Coulomb term is turned on
   Number of AuxJ basis functions       .... 1507
   RIJ-COSX (HFX calculated with COS-X)).... on


General Settings:
 Integral files         IntName         .... data/single_point_PO_M06-2x/70071/70071
 Hartree-Fock type      HFTyp           .... RHF
 Total Charge           Charge          ....    0
 Multiplicity           Mult            ....    1
 Number of Electrons    NEL             ....  194
 Basis Dimension        Dim             ....  938
 Nuclear Repulsion      ENuc            ....   2363.5759184380 Eh

Convergence Acceleration:
 AO-DIIS                CNVDIIS         .... on
   Start iteration      DIISMaxIt       ....    12
   Startup error        DIISStart       ....  0.200000
   # of expansion vecs  DIISMaxEq       ....     5
   Bias factor          DIISBfac        ....   1.050
   Max. coefficient     DIISMaxC        ....  10.000
 MO-DIIS                CNVKDIIS        .... off
 Trust-Rad. Augm. Hess. CNVTRAH         .... auto
   Auto Start mean grad. ratio tolernc. ....  1.125000
   Auto Start start iteration           ....    50
   Auto Start num. interpolation iter.  ....    10
   Max. Number of Micro iterations      ....    24
   Max. Number of Macro iterations      .... Maxiter - #DIIS iter
   Number of Davidson start vectors     ....     2
   Converg. threshold    (grad. norm)   ....   5.000e-05
   Grad. Scal. Fac. for Micro threshold ....   0.100
   Minimum threshold for Micro iter.    ....   1.000e-02
   NR start threshold (gradient norm)   ....   1.000e-04
   Initial trust radius                 ....   0.400
   Minimum AH scaling param. (alpha)    ....   1.000
   Maximum AH scaling param. (alpha)    .... 1000.000
   Quad. conv. algorithm                .... NR
   White noise on init. David. guess    .... on
   Maximum white noise                  ....   0.010
   Pseudo random numbers                .... off
   Inactive MOs                         .... canonical
   Orbital update algorithm             .... Taylor
   Preconditioner                       .... Diag
   Full preconditioner red. dimension   ....   250
 SOSCF                  CNVSOSCF        .... on
   Start iteration      SOSCFMaxIt      ....   150
   Startup grad/error   SOSCFStart      ....  0.003300
   Hessian update       SOSCFHessUp     .... L-BFGS
 Level Shifting         CNVShift        .... on
   Level shift para.    LevelShift      ....    0.2500
   Turn off err/grad.   ShiftErr        ....    0.0010
 Zerner damping         CNVZerner       .... off
 Static damping         CNVDamp         .... on
   Fraction old density DampFac         ....    0.7000
   Max. Damping (<1)    DampMax         ....    0.9800
   Min. Damping (>=0)   DampMin         ....    0.0000
   Turn off err/grad.   DampErr         ....    0.1000

SCF Procedure:
 Maximum # iterations   MaxIter         ....   125
 SCF integral mode      SCFMode         .... Direct
   Integral package                     .... SHARK and LIBINT hybrid scheme
 Reset frequency        DirectResetFreq ....    20
 Integral Threshold     Thresh          ....  1.000e-10 Eh
 Primitive CutOff       TCut            ....  1.000e-11 Eh

Convergence Tolerance:
 Convergence Check Mode ConvCheckMode   .... Total+1el-Energy
 Convergence forced     ConvForced      .... 0
 Energy Change          TolE            ....  1.000e-06 Eh
 1-El. energy change                    ....  1.000e-03 Eh
 Orbital Gradient       TolG            ....  5.000e-05
 Orbital Rotation angle TolX            ....  5.000e-05
 DIIS Error             TolErr          ....  1.000e-05

------------------------------
INITIAL GUESS: MODEL POTENTIAL
------------------------------
Loading Hartree-Fock densities                     ... done
Calculating cut-offs                               ... done
Initializing the effective Hamiltonian             ... done
Setting up the integral package (SHARK)            ... done
Starting the Coulomb interaction                   ... done (   0.9 sec)
Making the grid                                    ... done (   0.4 sec)
Mapping shells                                     ... done
Starting the XC term evaluation                    ... done (   0.6 sec)
  promolecular density results
     # of electrons  =    193.988990367
     EX              =   -168.685964553
     EC              =     -6.565291327
     EX+EC           =   -175.251255879
Transforming the Hamiltonian                       ... done (   0.1 sec)
Diagonalizing the Hamiltonian                      ... done (   0.2 sec)
Back transforming the eigenvectors                 ... done (   0.1 sec)
Now organizing SCF variables                       ... done
                      ------------------
                      INITIAL GUESS DONE (   2.4 sec)
                      ------------------
             **** ENERGY FILE WAS UPDATED (data/single_point_PO_M06-2x/70071/70071.en.tmp) ****
Finished Guess after   2.7 sec
Maximum memory used throughout the entire GUESS-calculation: 73.2 MB


           ************************************************************
           *        Program running with 6 parallel MPI-processes     *
           *              working on a common directory               *
           ************************************************************

-------------------------------------------------------------------------------------------
                                      ORCA LEAN-SCF
                              memory conserving SCF solver
-------------------------------------------------------------------------------------------

----------------------------------------D-I-I-S--------------------------------------------
Iteration    Energy (Eh)           Delta-E    RMSDP     MaxDP     DIISErr   Damp  Time(sec)
-------------------------------------------------------------------------------------------
               ***  Starting incremental Fock matrix formation  ***
    1    -1454.4554702434829778     0.00e+00  1.32e-03  1.11e-01  3.64e-01  0.700  26.6
    2    -1454.7255804382534734    -2.70e-01  1.14e-03  1.06e-01  1.59e-01  0.700  13.8
                               ***Turning on AO-DIIS***
    3    -1454.8524586930898295    -1.27e-01  5.77e-04  2.05e-02  4.62e-02  0.700  13.6
    4    -1454.9282497694280210    -7.58e-02  1.25e-03  4.64e-02  3.70e-02  0.000  12.9
    5    -1455.0918068227379081    -1.64e-01  1.53e-04  1.44e-02  8.68e-03  0.000  13.9
                              *** Initializing SOSCF ***
---------------------------------------S-O-S-C-F--------------------------------------
Iteration    Energy (Eh)           Delta-E    RMSDP     MaxDP     MaxGrad    Time(sec)
--------------------------------------------------------------------------------------
    6    -1455.0922429372558327    -4.36e-04  5.25e-05  6.05e-03  2.67e-03    12.0
               *** Restarting incremental Fock matrix formation ***
    7    -1455.0922918665896759    -4.89e-05  1.13e-04  4.83e-03  2.17e-04    23.9
    8    -1455.0922979707829654    -6.10e-06  4.73e-05  2.91e-03  2.27e-04    17.7
    9    -1455.0923025958918515    -4.63e-06  3.98e-05  1.69e-03  4.39e-05    16.0
   10    -1455.0923028490574325    -2.53e-07  9.83e-06  4.23e-04  4.03e-05    16.1
                 **** Energy Check signals convergence ****

               *****************************************************
               *                     SUCCESS                       *
               *           SCF CONVERGED AFTER  10 CYCLES          *
               *****************************************************

Recomputing exchange energy using gridx3       ... done (   37.261 sec)
Old exchange energy                            :    -92.769244948 Eh
New exchange energy                            :    -92.769087029 Eh
Exchange energy change after final integration :      0.000157919 Eh
Total energy after final integration           :  -1455.092144930 Eh
             **** ENERGY FILE WAS UPDATED (data/single_point_PO_M06-2x/70071/70071.en.tmp) ****

----------------
TOTAL SCF ENERGY
----------------

Total Energy       :      -1455.09214493013769 Eh          -39595.07024 eV

Components:
Nuclear Repulsion  :       2363.57591843800219 Eh           64316.17051 eV
Electronic Energy  :      -3818.66822128705962 Eh         -103911.24505 eV
One Electron Energy:      -6685.74042867934077 Eh         -181928.24612 eV
Two Electron Energy:       2867.07220739228114 Eh           78017.00107 eV

Virial components:
Potential Energy   :      -2902.71557847995427 Eh          -78986.90651 eV
Kinetic Energy     :       1447.62343354981658 Eh           39391.83627 eV
Virial Ratio       :          2.00515929157212

DFT components:
N(Alpha)           :       97.000142305252 electrons
N(Beta)            :       97.000142305252 electrons
N(Total)           :      194.000284610505 electrons
E(XC)              :      -86.180539768213 Eh       

---------------
SCF CONVERGENCE
---------------

  Last Energy change         ...    2.5317e-07  Tolerance :   1.0000e-06
  Last MAX-Density change    ...    4.2271e-04  Tolerance :   1.0000e-05
  Last RMS-Density change    ...    9.8343e-06  Tolerance :   1.0000e-06
  Last DIIS Error            ...    2.6727e-03  Tolerance :   1.0000e-05
  Last Orbital Gradient      ...    4.0266e-05  Tolerance :   5.0000e-05
  Last Orbital Rotation      ...    7.9542e-05  Tolerance :   5.0000e-05


----------------
ORBITAL ENERGIES
----------------

  NO   OCC          E(Eh)            E(eV) 
   0   2.0000     -78.088161     -2124.8869 
   1   2.0000     -19.666825      -535.1615 
   2   2.0000     -19.666747      -535.1594 
   3   2.0000     -19.666702      -535.1582 
   4   2.0000     -19.557574      -532.1886 
   5   2.0000     -10.617326      -288.9121 
   6   2.0000     -10.617306      -288.9116 
   7   2.0000     -10.617304      -288.9115 
   8   2.0000     -10.602019      -288.4956 
   9   2.0000     -10.602007      -288.4953 
  10   2.0000     -10.601984      -288.4947 
  11   2.0000     -10.559159      -287.3293 
  12   2.0000     -10.559149      -287.3291 
  13   2.0000     -10.559109      -287.3280 
  14   2.0000     -10.555898      -287.2406 
  15   2.0000     -10.555840      -287.2390 
  16   2.0000     -10.555816      -287.2384 
  17   2.0000     -10.551628      -287.1244 
  18   2.0000     -10.551590      -287.1234 
  19   2.0000     -10.551561      -287.1226 
  20   2.0000     -10.549513      -287.0668 
  21   2.0000     -10.549502      -287.0665 
  22   2.0000     -10.549437      -287.0648 
  23   2.0000     -10.546702      -286.9903 
  24   2.0000     -10.546695      -286.9902 
  25   2.0000     -10.546634      -286.9885 
  26   2.0000      -6.894068      -187.5971 
  27   2.0000      -5.011213      -136.3620 
  28   2.0000      -5.011211      -136.3620 
  29   2.0000      -5.009597      -136.3181 
  30   2.0000      -1.199475       -32.6394 
  31   2.0000      -1.199441       -32.6385 
  32   2.0000      -1.199441       -32.6384 
  33   2.0000      -1.053188       -28.6587 
  34   2.0000      -0.960915       -26.1478 
  35   2.0000      -0.956248       -26.0208 
  36   2.0000      -0.956217       -26.0200 
  37   2.0000      -0.869340       -23.6559 
  38   2.0000      -0.856817       -23.3152 
  39   2.0000      -0.856765       -23.3138 
  40   2.0000      -0.850365       -23.1396 
  41   2.0000      -0.844266       -22.9736 
  42   2.0000      -0.844239       -22.9729 
  43   2.0000      -0.801429       -21.8080 
  44   2.0000      -0.788632       -21.4598 
  45   2.0000      -0.788561       -21.4578 
  46   2.0000      -0.716319       -19.4920 
  47   2.0000      -0.697446       -18.9785 
  48   2.0000      -0.696275       -18.9466 
  49   2.0000      -0.696177       -18.9439 
  50   2.0000      -0.673178       -18.3181 
  51   2.0000      -0.673116       -18.3164 
  52   2.0000      -0.633703       -17.2439 
  53   2.0000      -0.614601       -16.7241 
  54   2.0000      -0.614560       -16.7230 
  55   2.0000      -0.609206       -16.5773 
  56   2.0000      -0.564759       -15.3679 
  57   2.0000      -0.564649       -15.3649 
  58   2.0000      -0.564595       -15.3634 
  59   2.0000      -0.554503       -15.0888 
  60   2.0000      -0.554484       -15.0883 
  61   2.0000      -0.554381       -15.0855 
  62   2.0000      -0.544971       -14.8294 
  63   2.0000      -0.544896       -14.8274 
  64   2.0000      -0.522606       -14.2208 
  65   2.0000      -0.518322       -14.1042 
  66   2.0000      -0.518161       -14.0999 
  67   2.0000      -0.494147       -13.4464 
  68   2.0000      -0.491640       -13.3782 
  69   2.0000      -0.491605       -13.3772 
  70   2.0000      -0.490556       -13.3487 
  71   2.0000      -0.484005       -13.1705 
  72   2.0000      -0.483932       -13.1685 
  73   2.0000      -0.481190       -13.0938 
  74   2.0000      -0.455947       -12.4069 
  75   2.0000      -0.455885       -12.4053 
  76   2.0000      -0.451606       -12.2888 
  77   2.0000      -0.437575       -11.9070 
  78   2.0000      -0.437491       -11.9047 
  79   2.0000      -0.435070       -11.8389 
  80   2.0000      -0.419538       -11.4162 
  81   2.0000      -0.419307       -11.4099 
  82   2.0000      -0.419136       -11.4053 
  83   2.0000      -0.396700       -10.7948 
  84   2.0000      -0.396539       -10.7904 
  85   2.0000      -0.396440       -10.7877 
  86   2.0000      -0.393817       -10.7163 
  87   2.0000      -0.393784       -10.7154 
  88   2.0000      -0.390807       -10.6344 
  89   2.0000      -0.329368        -8.9625 
  90   2.0000      -0.329267        -8.9598 
  91   2.0000      -0.316264        -8.6060 
  92   2.0000      -0.314703        -8.5635 
  93   2.0000      -0.314611        -8.5610 
  94   2.0000      -0.287010        -7.8099 
  95   2.0000      -0.286782        -7.8037 
  96   2.0000      -0.277366        -7.5475 
  97   0.0000       0.003389         0.0922 
  98   0.0000       0.003694         0.1005 
  99   0.0000       0.003879         0.1056 
 100   0.0000       0.018519         0.5039 
 101   0.0000       0.018777         0.5109 
 102   0.0000       0.019161         0.5214 
 103   0.0000       0.067727         1.8429 
 104   0.0000       0.071042         1.9331 
 105   0.0000       0.071052         1.9334 
 106   0.0000       0.083336         2.2677 
 107   0.0000       0.096910         2.6370 
*Only the first 10 virtual orbitals were printed.

                    ********************************
                    * MULLIKEN POPULATION ANALYSIS *
                    ********************************

-----------------------
MULLIKEN ATOMIC CHARGES
-----------------------
   0 C :   -0.301731
   1 O :   -0.274721
   2 C :    0.298067
   3 C :   -0.209242
   4 C :   -0.170072
   5 C :   -0.113515
   6 C :   -0.166007
   7 C :   -0.229091
   8 P :    0.623568
   9 O :   -0.607549
  10 C :   -0.109923
  11 C :   -0.175359
  12 C :   -0.208206
  13 C :    0.296179
  14 C :   -0.230030
  15 C :   -0.164930
  16 O :   -0.274752
  17 C :   -0.302477
  18 C :   -0.107617
  19 C :   -0.175950
  20 C :   -0.209949
  21 C :    0.297674
  22 C :   -0.229353
  23 C :   -0.167756
  24 O :   -0.274548
  25 C :   -0.302487
  26 H :    0.156603
  27 H :    0.152177
  28 H :    0.153137
  29 H :    0.156475
  30 H :    0.195024
  31 H :    0.185208
  32 H :    0.163218
  33 H :    0.195780
  34 H :    0.157184
  35 H :    0.163514
  36 H :    0.185330
  37 H :    0.153357
  38 H :    0.156927
  39 H :    0.152291
  40 H :    0.195024
  41 H :    0.157063
  42 H :    0.163213
  43 H :    0.185918
  44 H :    0.152962
  45 H :    0.152487
  46 H :    0.156886
Sum of atomic charges:   -0.0000000

--------------------------------
MULLIKEN REDUCED ORBITAL CHARGES
--------------------------------
  0 C s       :     3.298044  s :     3.298044
      pz      :     1.054413  p :     2.897615
      px      :     1.013425
      py      :     0.829777
      dz2     :     0.018101  d :     0.098531
      dxz     :     0.011059
      dyz     :     0.025312
      dx2y2   :     0.025740
      dxy     :     0.018319
      f0      :     0.000414  f :     0.007540
      f+1     :     0.000750
      f-1     :     0.001413
      f+2     :     0.001145
      f-2     :     0.000963
      f+3     :     0.001089
      f-3     :     0.001766

  1 O s       :     3.771003  s :     3.771003
      pz      :     1.590604  p :     4.462884
      px      :     1.692936
      py      :     1.179345
      dz2     :     0.005267  d :     0.038679
      dxz     :     0.004366
      dyz     :     0.014095
      dx2y2   :     0.006940
      dxy     :     0.008012
      f0      :     0.000168  f :     0.002155
      f+1     :     0.000042
      f-1     :     0.000327
      f+2     :     0.000439
      f-2     :     0.000299
      f+3     :     0.000441
      f-3     :     0.000438

  2 C s       :     3.069611  s :     3.069611
      pz      :     0.850525  p :     2.467356
      px      :     0.900347
      py      :     0.716483
      dz2     :     0.035407  d :     0.151094
      dxz     :     0.019173
      dyz     :     0.034816
      dx2y2   :     0.022724
      dxy     :     0.038974
      f0      :     0.001195  f :     0.013873
      f+1     :     0.000917
      f-1     :     0.003755
      f+2     :     0.001811
      f-2     :     0.002427
      f+3     :     0.002173
      f-3     :     0.001595

  3 C s       :     3.241198  s :     3.241198
      pz      :     1.026893  p :     2.907945
      px      :     0.990878
      py      :     0.890175
      dz2     :     0.008772  d :     0.053529
      dxz     :     0.006318
      dyz     :     0.013516
      dx2y2   :     0.007992
      dxy     :     0.016931
      f0      :     0.000324  f :     0.006571
      f+1     :     0.000742
      f-1     :     0.001351
      f+2     :     0.000980
      f-2     :     0.000889
      f+3     :     0.001179
      f-3     :     0.001107

  4 C s       :     3.183125  s :     3.183125
      pz      :     0.897403  p :     2.912098
      px      :     0.956499
      py      :     1.058196
      dz2     :     0.017239  d :     0.068325
      dxz     :     0.012340
      dyz     :     0.015921
      dx2y2   :     0.007041
      dxy     :     0.015785
      f0      :     0.001047  f :     0.006523
      f+1     :     0.000643
      f-1     :     0.001257
      f+2     :     0.000932
      f-2     :     0.001139
      f+3     :     0.001015
      f-3     :     0.000489

  5 C s       :     3.246173  s :     3.246173
      pz      :     0.883582  p :     2.786811
      px      :     0.982474
      py      :     0.920755
      dz2     :     0.018188  d :     0.073419
      dxz     :     0.010070
      dyz     :     0.019162
      dx2y2   :     0.014341
      dxy     :     0.011657
      f0      :     0.001025  f :     0.007111
      f+1     :     0.000929
      f-1     :     0.001281
      f+2     :     0.001194
      f-2     :     0.000997
      f+3     :     0.000714
      f-3     :     0.000971

  6 C s       :     3.214127  s :     3.214127
      pz      :     1.004011  p :     2.877973
      px      :     0.950643
      py      :     0.923318
      dz2     :     0.012664  d :     0.067173
      dxz     :     0.008202
      dyz     :     0.014647
      dx2y2   :     0.010262
      dxy     :     0.021399
      f0      :     0.000350  f :     0.006734
      f+1     :     0.000707
      f-1     :     0.001506
      f+2     :     0.000941
      f-2     :     0.000936
      f+3     :     0.001140
      f-3     :     0.001154

  7 C s       :     3.214008  s :     3.214008
      pz      :     0.917095  p :     2.956759
      px      :     1.020975
      py      :     1.018689
      dz2     :     0.015948  d :     0.051953
      dxz     :     0.012195
      dyz     :     0.005034
      dx2y2   :     0.008216
      dxy     :     0.010560
      f0      :     0.001000  f :     0.006371
      f+1     :     0.000717
      f-1     :     0.001177
      f+2     :     0.000962
      f-2     :     0.001071
      f+3     :     0.000965
      f-3     :     0.000479

  8 P s       :     5.290850  s :     5.290850
      pz      :     2.617637  p :     8.307371
      px      :     2.845767
      py      :     2.843967
      dz2     :     0.102356  d :     0.712627
      dxz     :     0.201471
      dyz     :     0.217945
      dx2y2   :     0.083430
      dxy     :     0.107425
      f0      :     0.008490  f :     0.065584
      f+1     :     0.018106
      f-1     :     0.017094
      f+2     :     0.006771
      f-2     :     0.005769
      f+3     :     0.005962
      f-3     :     0.003392

  9 O s       :     3.880295  s :     3.880295
      pz      :     1.372397  p :     4.701708
      px      :     1.665884
      py      :     1.663427
      dz2     :     0.009709  d :     0.024296
      dxz     :     0.007056
      dyz     :     0.007098
      dx2y2   :     0.000238
      dxy     :     0.000195
      f0      :     0.000520  f :     0.001251
      f+1     :     0.000339
      f-1     :     0.000349
      f+2     :     0.000021
      f-2     :     0.000020
      f+3     :     0.000001
      f-3     :     0.000001

 10 C s       :     3.244785  s :     3.244785
      pz      :     0.888452  p :     2.784579
      px      :     0.932433
      py      :     0.963693
      dz2     :     0.021170  d :     0.073465
      dxz     :     0.014379
      dyz     :     0.010965
      dx2y2   :     0.009895
      dxy     :     0.017056
      f0      :     0.001067  f :     0.007094
      f+1     :     0.001251
      f-1     :     0.000767
      f+2     :     0.000990
      f-2     :     0.001512
      f+3     :     0.000699
      f-3     :     0.000810

 11 C s       :     3.182813  s :     3.182813
      pz      :     0.923657  p :     2.917353
      px      :     1.051034
      py      :     0.942662
      dz2     :     0.013767  d :     0.068661
      dxz     :     0.020274
      dyz     :     0.008663
      dx2y2   :     0.017366
      dxy     :     0.008592
      f0      :     0.001084  f :     0.006532
      f+1     :     0.000762
      f-1     :     0.000781
      f+2     :     0.001040
      f-2     :     0.001121
      f+3     :     0.001184
      f-3     :     0.000560

 12 C s       :     3.237208  s :     3.237208
      pz      :     1.011796  p :     2.910878
      px      :     0.894309
      py      :     1.004772
      dz2     :     0.007319  d :     0.053552
      dxz     :     0.013247
      dyz     :     0.009313
      dx2y2   :     0.011959
      dxy     :     0.011713
      f0      :     0.000486  f :     0.006569
      f+1     :     0.001055
      f-1     :     0.000781
      f+2     :     0.000910
      f-2     :     0.001134
      f+3     :     0.001297
      f-3     :     0.000905

 13 C s       :     3.071249  s :     3.071249
      pz      :     0.888150  p :     2.467657
      px      :     0.740846
      py      :     0.838661
      dz2     :     0.028627  d :     0.151049
      dxz     :     0.034994
      dyz     :     0.020307
      dx2y2   :     0.038540
      dxy     :     0.028581
      f0      :     0.001622  f :     0.013867
      f+1     :     0.002341
      f-1     :     0.001230
      f+2     :     0.001569
      f-2     :     0.002655
      f+3     :     0.002908
      f-3     :     0.001541

 14 C s       :     3.214783  s :     3.214783
      pz      :     0.946295  p :     2.956876
      px      :     1.026856
      py      :     0.983725
      dz2     :     0.013650  d :     0.051997
      dxz     :     0.009276
      dyz     :     0.009039
      dx2y2   :     0.013730
      dxy     :     0.006303
      f0      :     0.000998  f :     0.006373
      f+1     :     0.000745
      f-1     :     0.000855
      f+2     :     0.001067
      f-2     :     0.001053
      f+3     :     0.001118
      f-3     :     0.000538

 15 C s       :     3.210937  s :     3.210937
      pz      :     0.988143  p :     2.880059
      px      :     0.930194
      py      :     0.961722
      dz2     :     0.011527  d :     0.067211
      dxz     :     0.014575
      dyz     :     0.010569
      dx2y2   :     0.016693
      dxy     :     0.013846
      f0      :     0.000512  f :     0.006722
      f+1     :     0.001228
      f-1     :     0.000746
      f+2     :     0.000802
      f-2     :     0.001154
      f+3     :     0.001306
      f-3     :     0.000975

 16 O s       :     3.771130  s :     3.771130
      pz      :     1.586685  p :     4.462785
      px      :     1.225214
      py      :     1.650886
      dz2     :     0.005747  d :     0.038682
      dxz     :     0.012409
      dyz     :     0.004712
      dx2y2   :     0.006860
      dxy     :     0.008955
      f0      :     0.000180  f :     0.002154
      f+1     :     0.000311
      f-1     :     0.000075
      f+2     :     0.000364
      f-2     :     0.000323
      f+3     :     0.000421
      f-3     :     0.000481

 17 C s       :     3.298261  s :     3.298261
      pz      :     0.975353  p :     2.898160
      px      :     0.825104
      py      :     1.097703
      dz2     :     0.026049  d :     0.098538
      dxz     :     0.018469
      dyz     :     0.015083
      dx2y2   :     0.012815
      dxy     :     0.026123
      f0      :     0.000532  f :     0.007518
      f+1     :     0.002000
      f-1     :     0.000425
      f+2     :     0.000844
      f-2     :     0.001627
      f+3     :     0.000833
      f-3     :     0.001258

 18 C s       :     3.243062  s :     3.243062
      pz      :     0.862801  p :     2.784273
      px      :     0.943847
      py      :     0.977625
      dz2     :     0.017725  d :     0.073177
      dxz     :     0.016221
      dyz     :     0.016618
      dx2y2   :     0.012871
      dxy     :     0.009741
      f0      :     0.001104  f :     0.007105
      f+1     :     0.001123
      f-1     :     0.001352
      f+2     :     0.000904
      f-2     :     0.001000
      f+3     :     0.000761
      f-3     :     0.000860

 19 C s       :     3.185466  s :     3.185466
      pz      :     0.909238  p :     2.915360
      px      :     1.004642
      py      :     1.001480
      dz2     :     0.012739  d :     0.068592
      dxz     :     0.014745
      dyz     :     0.018604
      dx2y2   :     0.013206
      dxy     :     0.009297
      f0      :     0.001036  f :     0.006532
      f+1     :     0.001101
      f-1     :     0.001005
      f+2     :     0.000572
      f-2     :     0.001078
      f+3     :     0.001118
      f-3     :     0.000622

 20 C s       :     3.242121  s :     3.242121
      pz      :     1.012948  p :     2.907669
      px      :     0.950526
      py      :     0.944195
      dz2     :     0.008516  d :     0.053581
      dxz     :     0.013159
      dyz     :     0.007826
      dx2y2   :     0.017864
      dxy     :     0.006216
      f0      :     0.000575  f :     0.006578
      f+1     :     0.001051
      f-1     :     0.000745
      f+2     :     0.000821
      f-2     :     0.001074
      f+3     :     0.001318
      f-3     :     0.000994

 21 C s       :     3.071101  s :     3.071101
      pz      :     0.872320  p :     2.466505
      px      :     0.753181
      py      :     0.841005
      dz2     :     0.027904  d :     0.150846
      dxz     :     0.034185
      dyz     :     0.026973
      dx2y2   :     0.041710
      dxy     :     0.020075
      f0      :     0.001350  f :     0.013874
      f+1     :     0.002531
      f-1     :     0.001926
      f+2     :     0.002096
      f-2     :     0.001824
      f+3     :     0.002608
      f-3     :     0.001539

 22 C s       :     3.214008  s :     3.214008
      pz      :     0.911746  p :     2.957052
      px      :     1.001347
      py      :     1.043959
      dz2     :     0.014829  d :     0.051923
      dxz     :     0.007407
      dyz     :     0.011135
      dx2y2   :     0.009368
      dxy     :     0.009183
      f0      :     0.000995  f :     0.006370
      f+1     :     0.001160
      f-1     :     0.000951
      f+2     :     0.000496
      f-2     :     0.001083
      f+3     :     0.001071
      f-3     :     0.000614

 23 C s       :     3.214580  s :     3.214580
      pz      :     1.017864  p :     2.879206
      px      :     0.933014
      py      :     0.928329
      dz2     :     0.014203  d :     0.067243
      dxz     :     0.012716
      dyz     :     0.008339
      dx2y2   :     0.023647
      dxy     :     0.008338
      f0      :     0.000644  f :     0.006727
      f+1     :     0.001084
      f-1     :     0.000820
      f+2     :     0.000930
      f-2     :     0.000934
      f+3     :     0.001307
      f-3     :     0.001008

 24 O s       :     3.770848  s :     3.770848
      pz      :     1.562941  p :     4.462865
      px      :     1.402673
      py      :     1.497251
      dz2     :     0.005717  d :     0.038681
      dxz     :     0.010072
      dyz     :     0.008725
      dx2y2   :     0.007366
      dxy     :     0.006802
      f0      :     0.000135  f :     0.002154
      f+1     :     0.000198
      f-1     :     0.000157
      f+2     :     0.000235
      f-2     :     0.000519
      f+3     :     0.000417
      f-3     :     0.000493

 25 C s       :     3.298362  s :     3.298362
      pz      :     0.989201  p :     2.898042
      px      :     0.996279
      py      :     0.912562
      dz2     :     0.018110  d :     0.098548
      dxz     :     0.022646
      dyz     :     0.020384
      dx2y2   :     0.021787
      dxy     :     0.015621
      f0      :     0.000442  f :     0.007534
      f+1     :     0.000959
      f-1     :     0.001268
      f+2     :     0.001521
      f-2     :     0.001216
      f+3     :     0.000957
      f-3     :     0.001173

 26 H s       :     0.824825  s :     0.824825
      pz      :     0.006871  p :     0.018572
      px      :     0.003521
      py      :     0.008180

 27 H s       :     0.830408  s :     0.830408
      pz      :     0.003272  p :     0.017415
      px      :     0.011852
      py      :     0.002291

 28 H s       :     0.829428  s :     0.829428
      pz      :     0.009935  p :     0.017435
      px      :     0.004559
      py      :     0.002941

 29 H s       :     0.823669  s :     0.823669
      pz      :     0.011343  p :     0.019856
      px      :     0.005757
      py      :     0.002756

 30 H s       :     0.784783  s :     0.784783
      pz      :     0.004804  p :     0.020193
      px      :     0.005658
      py      :     0.009731

 31 H s       :     0.794335  s :     0.794335
      pz      :     0.012350  p :     0.020457
      px      :     0.005068
      py      :     0.003040

 32 H s       :     0.816382  s :     0.816382
      pz      :     0.005221  p :     0.020400
      px      :     0.005735
      py      :     0.009444

 33 H s       :     0.784049  s :     0.784049
      pz      :     0.006611  p :     0.020171
      px      :     0.010230
      py      :     0.003331

 34 H s       :     0.822955  s :     0.822955
      pz      :     0.010491  p :     0.019861
      px      :     0.002671
      py      :     0.006700

 35 H s       :     0.816104  s :     0.816104
      pz      :     0.007126  p :     0.020382
      px      :     0.009514
      py      :     0.003742

 36 H s       :     0.794191  s :     0.794191
      pz      :     0.011314  p :     0.020480
      px      :     0.002936
      py      :     0.006230

 37 H s       :     0.829212  s :     0.829212
      pz      :     0.010301  p :     0.017431
      px      :     0.002459
      py      :     0.004670

 38 H s       :     0.824498  s :     0.824498
      pz      :     0.004835  p :     0.018575
      px      :     0.007157
      py      :     0.006584

 39 H s       :     0.830275  s :     0.830275
      pz      :     0.003034  p :     0.017434
      px      :     0.003823
      py      :     0.010578

 40 H s       :     0.784845  s :     0.784845
      pz      :     0.006533  p :     0.020132
      px      :     0.005496
      py      :     0.008102

 41 H s       :     0.823082  s :     0.823082
      pz      :     0.012105  p :     0.019855
      px      :     0.004338
      py      :     0.003412

 42 H s       :     0.816412  s :     0.816412
      pz      :     0.006875  p :     0.020374
      px      :     0.005804
      py      :     0.007695

 43 H s       :     0.793586  s :     0.793586
      pz      :     0.013026  p :     0.020496
      px      :     0.004308
      py      :     0.003162

 44 H s       :     0.829598  s :     0.829598
      pz      :     0.008682  p :     0.017440
      px      :     0.004531
      py      :     0.004227

 45 H s       :     0.830091  s :     0.830091
      pz      :     0.003891  p :     0.017422
      px      :     0.005443
      py      :     0.008088

 46 H s       :     0.824534  s :     0.824534
      pz      :     0.005746  p :     0.018580
      px      :     0.008412
      py      :     0.004423



                     *******************************
                     * LOEWDIN POPULATION ANALYSIS *
                     *******************************

----------------------
LOEWDIN ATOMIC CHARGES
----------------------
   0 C :   -0.336219
   1 O :    0.227970
   2 C :   -0.234786
   3 C :   -0.116792
   4 C :   -0.135343
   5 C :   -0.243955
   6 C :   -0.111922
   7 C :   -0.140545
   8 P :    0.675035
   9 O :   -0.315237
  10 C :   -0.243989
  11 C :   -0.135550
  12 C :   -0.116817
  13 C :   -0.234878
  14 C :   -0.140625
  15 C :   -0.111948
  16 O :    0.227990
  17 C :   -0.336233
  18 C :   -0.243949
  19 C :   -0.135665
  20 C :   -0.116809
  21 C :   -0.234757
  22 C :   -0.140584
  23 C :   -0.111998
  24 O :    0.228047
  25 C :   -0.336415
  26 H :    0.119819
  27 H :    0.113185
  28 H :    0.113406
  29 H :    0.154357
  30 H :    0.157289
  31 H :    0.161725
  32 H :    0.152214
  33 H :    0.157218
  34 H :    0.154381
  35 H :    0.152254
  36 H :    0.161727
  37 H :    0.113434
  38 H :    0.119805
  39 H :    0.113240
  40 H :    0.157141
  41 H :    0.154400
  42 H :    0.152201
  43 H :    0.161743
  44 H :    0.113383
  45 H :    0.113241
  46 H :    0.119813

-------------------------------
LOEWDIN REDUCED ORBITAL CHARGES
-------------------------------
  0 C s       :     2.869432  s :     2.869432
      pz      :     1.071164  p :     3.025631
      px      :     1.059993
      py      :     0.894474
      dz2     :     0.062412  d :     0.386311
      dxz     :     0.043151
      dyz     :     0.112130
      dx2y2   :     0.102583
      dxy     :     0.066035
      f0      :     0.004561  f :     0.054844
      f+1     :     0.005041
      f-1     :     0.008819
      f+2     :     0.006980
      f-2     :     0.009765
      f+3     :     0.009298
      f-3     :     0.010379

  1 O s       :     3.244937  s :     3.244937
      pz      :     1.556659  p :     4.409241
      px      :     1.593136
      py      :     1.259447
      dz2     :     0.016218  d :     0.111235
      dxz     :     0.007868
      dyz     :     0.036119
      dx2y2   :     0.025935
      dxy     :     0.025094
      f0      :     0.000436  f :     0.006616
      f+1     :     0.000148
      f-1     :     0.001684
      f+2     :     0.001061
      f-2     :     0.001215
      f+3     :     0.000927
      f-3     :     0.001145

  2 C s       :     2.722730  s :     2.722730
      pz      :     0.981720  p :     2.751039
      px      :     0.898279
      py      :     0.871040
      dz2     :     0.138881  d :     0.667833
      dxz     :     0.088901
      dyz     :     0.198747
      dx2y2   :     0.109033
      dxy     :     0.132271
      f0      :     0.008668  f :     0.093184
      f+1     :     0.005563
      f-1     :     0.026814
      f+2     :     0.012821
      f-2     :     0.015856
      f+3     :     0.012712
      f-3     :     0.010751

  3 C s       :     2.772042  s :     2.772042
      pz      :     0.976817  p :     2.951993
      px      :     0.938290
      py      :     1.036886
      dz2     :     0.072769  d :     0.352934
      dxz     :     0.037386
      dyz     :     0.091994
      dx2y2   :     0.072446
      dxy     :     0.078339
      f0      :     0.002432  f :     0.039823
      f+1     :     0.002739
      f-1     :     0.010454
      f+2     :     0.005498
      f-2     :     0.006719
      f+3     :     0.005914
      f-3     :     0.006067

  4 C s       :     2.774279  s :     2.774279
      pz      :     1.003498  p :     2.929068
      px      :     0.907659
      py      :     1.017911
[...]
      px      :     0.015812
      py      :     0.010334

 29 H s       :     0.788643  s :     0.788643
      pz      :     0.029966  p :     0.057000
      px      :     0.017022
      py      :     0.010012

 30 H s       :     0.785291  s :     0.785291
      pz      :     0.014800  p :     0.057419
      px      :     0.016582
      py      :     0.026037

 31 H s       :     0.780689  s :     0.780689
      pz      :     0.032216  p :     0.057586
      px      :     0.015176
      py      :     0.010194

 32 H s       :     0.789555  s :     0.789555
      pz      :     0.015943  p :     0.058230
      px      :     0.017139
      py      :     0.025148

 33 H s       :     0.785380  s :     0.785380
      pz      :     0.019072  p :     0.057402
      px      :     0.027057
      py      :     0.011273

 34 H s       :     0.788618  s :     0.788618
      pz      :     0.028042  p :     0.057000
      px      :     0.009892
      py      :     0.019067

 35 H s       :     0.789505  s :     0.789505
      pz      :     0.020297  p :     0.058241
      px      :     0.025426
      py      :     0.012518

 36 H s       :     0.780646  s :     0.780646
      pz      :     0.029900  p :     0.057628
      px      :     0.009939
      py      :     0.017789

 37 H s       :     0.828728  s :     0.828728
      pz      :     0.032408  p :     0.057838
      px      :     0.009257
      py      :     0.016173

 38 H s       :     0.822736  s :     0.822736
      pz      :     0.016445  p :     0.057459
      px      :     0.020431
      py      :     0.020582

 39 H s       :     0.828956  s :     0.828956
      pz      :     0.010927  p :     0.057805
      px      :     0.012887
      py      :     0.033990

 40 H s       :     0.785480  s :     0.785480
      pz      :     0.018980  p :     0.057379
      px      :     0.016283
      py      :     0.022116

 41 H s       :     0.788589  s :     0.788589
      pz      :     0.031837  p :     0.057011
      px      :     0.013539
      py      :     0.011635

 42 H s       :     0.789553  s :     0.789553
      pz      :     0.019759  p :     0.058246
      px      :     0.017002
      py      :     0.021485

 43 H s       :     0.780608  s :     0.780608
      pz      :     0.034031  p :     0.057649
      px      :     0.013090
      py      :     0.010528

 44 H s       :     0.828799  s :     0.828799
      pz      :     0.027564  p :     0.057819
      px      :     0.015436
      py      :     0.014819

 45 H s       :     0.828947  s :     0.828947
      pz      :     0.013423  p :     0.057812
      px      :     0.018755
      py      :     0.025634

 46 H s       :     0.822734  s :     0.822734
      pz      :     0.019283  p :     0.057452
      px      :     0.024573
      py      :     0.013596



                      *****************************
                      * MAYER POPULATION ANALYSIS *
                      *****************************

  NA   - Mulliken gross atomic population
  ZA   - Total nuclear charge
  QA   - Mulliken gross atomic charge
  VA   - Mayer's total valence
  BVA  - Mayer's bonded valence
  FA   - Mayer's free valence

  ATOM       NA         ZA         QA         VA         BVA        FA
  0 C      6.3017     6.0000    -0.3017     3.8601     3.8601    -0.0000
  1 O      8.2747     8.0000    -0.2747     2.0567     2.0567    -0.0000
  2 C      5.7019     6.0000     0.2981     3.8928     3.8928    -0.0000
  3 C      6.2092     6.0000    -0.2092     4.0191     4.0191    -0.0000
  4 C      6.1701     6.0000    -0.1701     3.8580     3.8580     0.0000
  5 C      6.1135     6.0000    -0.1135     3.7984     3.7984    -0.0000
  6 C      6.1660     6.0000    -0.1660     4.0072     4.0072    -0.0000
  7 C      6.2291     6.0000    -0.2291     3.8580     3.8580    -0.0000
  8 P     14.3764    15.0000     0.6236     4.9880     4.9880    -0.0000
  9 O      8.6075     8.0000    -0.6075     1.9727     1.9727    -0.0000
 10 C      6.1099     6.0000    -0.1099     3.7966     3.7966     0.0000
 11 C      6.1754     6.0000    -0.1754     3.8644     3.8644    -0.0000
 12 C      6.2082     6.0000    -0.2082     4.0244     4.0244    -0.0000
 13 C      5.7038     6.0000     0.2962     3.8953     3.8953    -0.0000
 14 C      6.2300     6.0000    -0.2300     3.8570     3.8570    -0.0000
 15 C      6.1649     6.0000    -0.1649     4.0079     4.0079     0.0000
 16 O      8.2748     8.0000    -0.2748     2.0566     2.0566    -0.0000
 17 C      6.3025     6.0000    -0.3025     3.8596     3.8596    -0.0000
 18 C      6.1076     6.0000    -0.1076     3.7941     3.7941    -0.0000
 19 C      6.1759     6.0000    -0.1759     3.8601     3.8601    -0.0000
 20 C      6.2099     6.0000    -0.2099     4.0210     4.0210     0.0000
 21 C      5.7023     6.0000     0.2977     3.8938     3.8938    -0.0000
 22 C      6.2294     6.0000    -0.2294     3.8574     3.8574    -0.0000
 23 C      6.1678     6.0000    -0.1678     4.0100     4.0100    -0.0000
 24 O      8.2745     8.0000    -0.2745     2.0572     2.0572    -0.0000
 25 C      6.3025     6.0000    -0.3025     3.8597     3.8597    -0.0000
 26 H      0.8434     1.0000     0.1566     0.9620     0.9620     0.0000
 27 H      0.8478     1.0000     0.1522     0.9442     0.9442     0.0000
 28 H      0.8469     1.0000     0.1531     0.9441     0.9441    -0.0000
 29 H      0.8435     1.0000     0.1565     0.9742     0.9742     0.0000
 30 H      0.8050     1.0000     0.1950     0.9431     0.9431     0.0000
 31 H      0.8148     1.0000     0.1852     0.9754     0.9754    -0.0000
 32 H      0.8368     1.0000     0.1632     0.9689     0.9689    -0.0000
 33 H      0.8042     1.0000     0.1958     0.9430     0.9430     0.0000
 34 H      0.8428     1.0000     0.1572     0.9740     0.9740     0.0000
 35 H      0.8365     1.0000     0.1635     0.9688     0.9688    -0.0000
 36 H      0.8147     1.0000     0.1853     0.9761     0.9761     0.0000
 37 H      0.8466     1.0000     0.1534     0.9440     0.9440    -0.0000
 38 H      0.8431     1.0000     0.1569     0.9620     0.9620    -0.0000
 39 H      0.8477     1.0000     0.1523     0.9441     0.9441    -0.0000
 40 H      0.8050     1.0000     0.1950     0.9437     0.9437    -0.0000
 41 H      0.8429     1.0000     0.1571     0.9740     0.9740     0.0000
 42 H      0.8368     1.0000     0.1632     0.9690     0.9690    -0.0000
 43 H      0.8141     1.0000     0.1859     0.9755     0.9755     0.0000
 44 H      0.8470     1.0000     0.1530     0.9440     0.9440    -0.0000
 45 H      0.8475     1.0000     0.1525     0.9442     0.9442    -0.0000
 46 H      0.8431     1.0000     0.1569     0.9620     0.9620    -0.0000

  Mayer bond orders larger than 0.100000
B(  0-C ,  1-O ) :   0.9324 B(  0-C , 26-H ) :   0.9723 B(  0-C , 27-H ) :   0.9627 
B(  0-C , 28-H ) :   0.9628 B(  1-O ,  2-C ) :   1.0970 B(  2-C ,  3-C ) :   1.3941 
B(  2-C ,  7-C ) :   1.3441 B(  3-C ,  4-C ) :   1.5280 B(  3-C , 29-H ) :   0.9378 
B(  4-C ,  5-C ) :   1.3005 B(  4-C , 30-H ) :   0.9142 B(  5-C ,  6-C ) :   1.4606 
B(  5-C ,  8-P ) :   0.9329 B(  6-C ,  7-C ) :   1.4405 B(  6-C , 31-H ) :   0.8992 
B(  7-C , 32-H ) :   0.9186 B(  8-P ,  9-O ) :   1.9342 B(  8-P , 10-C ) :   0.9316 
B(  8-P , 18-C ) :   0.9323 B( 10-C , 11-C ) :   1.3008 B( 10-C , 15-C ) :   1.4618 
B( 11-C , 12-C ) :   1.5322 B( 11-C , 33-H ) :   0.9136 B( 12-C , 13-C ) :   1.3959 
B( 12-C , 34-H ) :   0.9364 B( 13-C , 14-C ) :   1.3438 B( 13-C , 16-O ) :   1.0971 
B( 14-C , 15-C ) :   1.4403 B( 14-C , 35-H ) :   0.9184 B( 15-C , 36-H ) :   0.8983 
B( 16-O , 17-C ) :   0.9321 B( 17-C , 37-H ) :   0.9629 B( 17-C , 38-H ) :   0.9723 
B( 17-C , 39-H ) :   0.9627 B( 18-C , 19-C ) :   1.2978 B( 18-C , 23-C ) :   1.4635 
B( 19-C , 20-C ) :   1.5298 B( 19-C , 40-H ) :   0.9149 B( 20-C , 21-C ) :   1.3942 
B( 20-C , 41-H ) :   0.9375 B( 21-C , 22-C ) :   1.3445 B( 21-C , 24-O ) :   1.0973 
B( 22-C , 23-C ) :   1.4406 B( 22-C , 42-H ) :   0.9184 B( 23-C , 43-H ) :   0.8981 
B( 24-O , 25-C ) :   0.9324 B( 25-C , 44-H ) :   0.9628 B( 25-C , 45-H ) :   0.9627 
B( 25-C , 46-H ) :   0.9723 

-------
TIMINGS
-------

Total SCF time: 0 days 0 hours 3 min 25 sec 

Total time                  ....     205.166 sec
Sum of individual times     ....     205.337 sec  (100.1%)

SCF preparation             ....       0.453 sec  (  0.2%)
Fock matrix formation       ....     197.078 sec  ( 96.1%)
  Startup                   ....       0.222 sec  (  0.1% of F)
  Split-RI-J                ....      15.063 sec  (  7.6% of F)
  Chain of spheres X        ....     143.875 sec  ( 73.0% of F)
  XC integration            ....      37.357 sec  ( 19.0% of F)
    Basis function eval.    ....       5.709 sec  ( 15.3% of XC)
    Density eval.           ....      15.763 sec  ( 42.2% of XC)
    XC-Functional eval.     ....       0.622 sec  (  1.7% of XC)
    XC-Potential eval.      ....      13.503 sec  ( 36.1% of XC)
Diagonalization             ....       0.000 sec  (  0.0%)
Density matrix formation    ....       0.617 sec  (  0.3%)
Total Energy calculation    ....       0.197 sec  (  0.1%)
Population analysis         ....       0.367 sec  (  0.2%)
Orbital Transformation      ....       0.928 sec  (  0.5%)
Orbital Orthonormalization  ....       0.000 sec  (  0.0%)
DIIS solution               ....       4.107 sec  (  2.0%)
SOSCF solution              ....       1.590 sec  (  0.8%)
Finished LeanSCF after 205.3 sec

Maximum memory used throughout the entire LEANSCF-calculation: 140.7 MB


-------------------------------------------------------------------------------
                          DFT DISPERSION CORRECTION                            
                                                                               
                              DFTD3 V3.1  Rev 1                                
                              USING zero damping                               
-------------------------------------------------------------------------------
The M062X functional is recognized
Active option DFTDOPT                   ...         3   

molecular C6(AA) [au] = 27178.947884 


            DFT-D V3
 parameters
 s6 scaling factor         :     1.0000 
 rs6 scaling factor        :     1.6190 
 s8 scaling factor         :     0.0000 
 rs8 scaling factor        :     1.0000 
 Damping factor alpha6     :    14.0000 
 Damping factor alpha8     :    16.0000 
 ad hoc parameters k1-k3   :    16.0000     1.3333    -4.0000 

 Edisp/kcal,au: -1.970593245796  -0.003140339895 
 E6   /kcal   :  -1.970593246 
 E8   /kcal   :  -0.000000000 
 % E8         :   0.000000000 

-------------------------   ----------------
Dispersion correction           -0.003140340
-------------------------   ----------------


-------------------------   --------------------
FINAL SINGLE POINT ENERGY     -1455.095285270032
-------------------------   --------------------



           ************************************************************
           *        Program running with 6 parallel MPI-processes     *
           *              working on a common directory               *
           ************************************************************

------------------------------------------------------------------------------
                              ORCA PROPERTY CALCULATIONS
------------------------------------------------------------------------------

GBWName                                 ... data/single_point_PO_M06-2x/70071/70071.gbw
Number of atoms                         ...     47
Number of basis functions               ...    938
Max core memory                         ...   1024 MB

Electric properties:
Dipole moment                           ... YES
Quadrupole moment                       ...  NO
Static polarizability (Dipole/Dipole)   ...  NO
Static polarizability (Dipole/Quad.)    ...  NO
Static polarizability (Quad./Quad.)     ...  NO
Static polarizability (Velocity)        ...  NO

Atomic electric properties:
Dipole moment                           ...  NO
Quadrupole moment                       ...  NO
Static polarizability                   ...  NO

Choice of electric origin               ... Center of mass
Position of electric origin             ...    -0.005391     0.017051     0.088328

General magnetic properties:
Magnetizability                         ...  NO

EPR properties:
g-Tensor (aka g-matrix)                 ...  NO
Zero-Field splitting spin-orbit         ...  NO
Zero-field splitting spin-spin          ...  NO
Hyperfine couplings                     ...  NO (   0 nuclei)
Quadrupole couplings                    ...  NO (   0 nuclei)
Contact density                         ...  NO (   0 nuclei)

NMR properties:
Chemical shifts                         ...  NO (   0 nuclei)
Spin-rotation constants                 ...  NO (   0 nuclei)
Spin-spin couplings                     ...  NO (   0 nuclei,    0 pairs)

Choice of magnetic origin               ... GIAO
Position of magnetic origin             ...     0.000000     0.000000     0.000000

Properties with geometric perturbations:
SCF Hessian                             ...  NO
IR spectrum                             ...  NO
VCD spectrum                            ...  NO
X-ray spectroscopy properties:
SCF XES/XAS/RIXS spectra                ...  NO


-------------
DIPOLE MOMENT
-------------

Method             : SCF
Type of density    : Electron Density
Multiplicity       :   1
Irrep              :   0
Energy             : -1455.0921449301376924 Eh
Relativity type    : 
Basis              : AO
                                X                 Y                 Z
Electronic contribution:     -0.073149996       0.280204712       2.242530495
Nuclear contribution   :      0.105465315      -0.365094269      -2.965310568
                        -----------------------------------------
Total Dipole Moment    :      0.032315319      -0.084889556      -0.722780073
                        -----------------------------------------
Magnitude (a.u.)       :      0.728465202
Magnitude (Debye)      :      1.851611394



--------------------
Rotational spectrum 
--------------------
 
Rotational constants in cm-1:             0.004984             0.004967             0.002862 
Rotational constants in MHz :           149.429253           148.902328            85.809762 

Dipole components along the rotational axes: 
x,y,z [a.u.] :     0.002879    -0.008338    -0.728412 
x,y,z [Debye]:     0.007318    -0.021193    -1.851476 

 

Dipole moment calculation done in   0.1 sec 

Maximum memory used throughout the entire PROP-calculation: 78.4 MB

--------------------------------
SUGGESTED CITATIONS FOR THIS RUN
--------------------------------

Below you find a list of papers that are relevant to this ORCA run
We neither can nor want to force you to cite these papers, but we appreciate if you do
You receive ORCA, which is the product of decades of hard work by many enthusiastic individuals, for free
The only thing we kindly ask in return is that you cite our papers,
We deeply appreciate it, if you show your appreciation for ORCA by not just citing the generic ORCA reference.

Please note that relegating all ORCA citations to the supporting information does *not* help us.
SI sections are not indexed - citations you put there will not count into any citation statistics
But we need these citations in order to attract the funding resources that allow us to do what we are doing

Therefore, if you are a happy ORCA user, please consider citing a few of the papers listed below in the main body of your paper

In addition to the list printed below, the program has created the file data/single_point_PO_M06-2x/70071/70071.bibtex that contains the list in bibtex format
You can import this file easily into all common literature databanks and citation aid programs


List of essential papers. We consider these as the minimum necessary citations

  1. Neese,F.
     Software update: the ORCA program system, version 5.0
     WIRES Comput. Molec. Sci., 2022 12(1)e1606
     doi.org/10.1002/wcms.1606

List of papers to cite with high priority. The work reported in these papers was absolutely
necessary for this run to complete.
Our perspective: the developers of density functionals and basis sets usually get cited in chemistry papers
Good! But without the algorithms to do something with them, the functionals or basis sets would not do anything.
Hence, in our opinion, the algorithm design and method developments papers are equally worthy of getting cited

  1. Neese,F.
     An improvement of the resolution of the identity approximation for the formation of the Coulomb matrix
     J. Comp. Chem., 2003 24(14)1740-1747
     doi.org/10.1002/jcc.10318
  2. Neese,F.; Wennmohs,F.; Hansen,A.; Becker,U.
     Efficient, approximate and parallel Hartree-Fock and hybrid DFT calculations. A 'chain-of-spheres' algorithm for the Hartree-Fock exchange
     Chem. Phys., 2009 356(1-3)98-109
     doi.org/10.1016/j.chemphys.2008.10.036
  3. Helmich-Paris,B.; de Souza,B.; Neese,F.; Izsák,R.
     An improved chain of spheres for exchange algorithm
     J. Chem. Phys., 2021 155 104109
     doi.org/doi: 10.1063/5.0058766.
  4. Neese,F.
     The SHARK Integral Generation and Digestion System
     J. Comp. Chem., 2022  1-16
     doi.org/10.1002/jcc.26942
  5. Grimme,S.; Antony,J.; Ehrlich,S.; Krieg,H.
     A consistent and accurate ab initio parametrization of density functional dispersion correction (DFT-D) for the 94 elements H-Pu
     J. Chem. Phys., 2010 132 154104-XXXX
     doi.org/10.1063/1.3382344

List of suggested additional citations. These are papers that are important in the 'surrounding' of 
of this run, or papers that preceded the highly important papers. If you like your results we are grateful for a citation.

  1. Izsak,R.; Neese,F.
     An overlap fitted chain of spheres exchange method
     J. Chem. Phys., 2011 135 144105
     doi.org/10.1063/1.3646921
  2. Izsak,R.; Hansen,A.; Neese,F.
     The resolution of identity and chain of spheres approximations for the LPNO-CCSD singles Fock term
     Molec. Phys., 2012 110 2413-2417
     doi.org/10.1080/00268976.2012.687466
  3. Neese,F.
     The ORCA program system
     WIRES Comput. Molec. Sci., 2012 2(1)73-78
     doi.org/10.1002/wcms.81
  4. Izsak,R.; Neese,F.; Klopper,W.
     Robust fitting techniques in the chain of spheres approximation to the Fock exchange: The role of the complementary space
     J. Chem. Phys., 2013 139 
     doi.org/10.1063/1.4819264
  5. Neese,F.
     Software update: the ORCA program system, version 4.0
     WIRES Comput. Molec. Sci., 2018 8(1)1-6
     doi.org/10.1002/wcms.1327
  6. Neese,F.; Wennmohs,F.; Becker,U.; Riplinger,C.
     The ORCA quantum chemistry program package
     J. Chem. Phys., 2020 152 Art. No. L224108
     doi.org/10.1063/5.0004608

List of optional additional citations

  1. Neese,F.
     Approximate second-order SCF convergence for spin unrestricted wavefunctions
     Chem. Phys. Lett., 2000 325(1-3)93-98
     doi.org/10.1016/s0009-2614(00)00662-x

Timings for individual modules:

Sum of individual times          ...      215.829 sec (=   3.597 min)
Startup calculation              ...        7.148 sec (=   0.119 min)   3.3 %
SCF iterations                   ...      208.237 sec (=   3.471 min)  96.5 %
Property calculations            ...        0.444 sec (=   0.007 min)   0.2 %
                             ****ORCA TERMINATED NORMALLY****
TOTAL RUN TIME: 0 days 0 hours 3 minutes 36 seconds 93 msec
