
                                 *****************
                                 * O   R   C   A *
                                 *****************

                                            #,                                       
                                            ###                                      
                                            ####                                     
                                            #####                                    
                                            ######                                   
                                           ########,                                 
                                     ,,################,,,,,                         
                               ,,#################################,,                 
                          ,,##########################################,,             
                       ,#########################################, ''#####,          
                    ,#############################################,,   '####,        
                  ,##################################################,,,,####,       
                ,###########''''           ''''###############################       
              ,#####''   ,,,,##########,,,,          '''####'''          '####       
            ,##' ,,,,###########################,,,                        '##       
           ' ,,###''''                  '''############,,,                           
         ,,##''                                '''############,,,,        ,,,,,,###''
      ,#''                                            '''#######################'''  
     '                                                          ''''####''''         
             ,#######,   #######,   ,#######,      ##                                
            ,#'     '#,  ##    ##  ,#'     '#,    #''#        ,####,   ,####,        
            ##       ##  ##   ,#'  ##            #'  '#       #'       #'  '#        
            ##       ##  #######   ##           ,######,      #####,   #    #        
            '#,     ,#'  ##    ##  '#,     ,#' ,#      #,     #,   #   #,  ,#        
             '#######'   ##     ##  '#######'  #'      '#     '####' # '####'        



                #########################################################
                #                        -***-                          #
                #          Department of theory and spectroscopy        #
                #                                                       #
                #                      Frank Neese                      #
                #                                                       #
                #     Directorship, Architecture, Infrastructure        #
                #                    SHARK, DRIVERS                     #
                #        Core code/Algorithms in most modules           #
                #                                                       #
                #        Max Planck Institute fuer Kohlenforschung      #
                #                Kaiser Wilhelm Platz 1                 #
                #                 D-45470 Muelheim/Ruhr                 #
                #                      Germany                          #
                #                                                       #
                #                  All rights reserved                  #
                #                        -***-                          #
                #########################################################


                         Program Version 6.0.0  -   RELEASE   -


 With contributions from (in alphabetic order):
   Daniel Aravena         : Magnetic Suceptibility
   Michael Atanasov       : Ab Initio Ligand Field Theory (pilot matlab implementation)
   Alexander A. Auer      : GIAO ZORA, VPT2 properties, NMR spectrum
   Ute Becker             : All parallelization in ORCA, NUMFREQ, NUMCALC
   Giovanni Bistoni       : ED, misc. LED, open-shell LED, HFLD
   Martin Brehm           : Molecular dynamics
   Dmytro Bykov           : pre 5.0 version of the SCF Hessian
   Marcos Casanova-Páez   : Triplet and SCS-CIS(D). UHF-(DLPNO)-IP/EA/STEOM-CCSD. UHF-CVS-IP/STEOM-CCSD
   Vijay G. Chilkuri      : MRCI spin determinant printing, contributions to CSF-ICE
   Pauline Colinet        : FMM embedding
   Dipayan Datta          : RHF DLPNO-CCSD density
   Achintya Kumar Dutta   : EOM-CC, STEOM-CC
   Nicolas Foglia         : Exact transition moments, OPA infrastructure, MCD improvements
   Dmitry Ganyushin       : Spin-Orbit,Spin-Spin,Magnetic field MRCI
   Miquel Garcia          : C-PCM and meta-GGA Hessian, CCSD/C-PCM, Gaussian charge scheme
   Tiago L. C. Gouveia    : GS-ROHF, GS-ROCIS
   Yang Guo               : DLPNO-NEVPT2, F12-NEVPT2, CIM, IAO-localization
   Andreas Hansen         : Spin unrestricted coupled pair/coupled cluster methods
   Ingolf Harden          : AUTO-CI MPn and infrastructure 
   Benjamin Helmich-Paris : MC-RPA, TRAH-(SCF,CASSCF), AVAS, COSX integrals, SCF dyn. polar.
   Lee Huntington         : MR-EOM, pCC
   Robert Izsak           : Overlap fitted RIJCOSX, COSX-SCS-MP3, EOM
   Riya Kayal             : Wick's Theorem for AUTO-CI, AUTO-CI UHF-CCSDT
   Emily Kempfer          : AUTO-CI, RHF CISDT and CCSDT
   Christian Kollmar      : KDIIS, OOCD, Brueckner-CCSD(T), CCSD density, CASPT2, CASPT2-K, improved NEVPT2
   Axel Koslowski         : Symmetry handling
   Simone Kossmann        : Meta GGA functionals, TD-DFT gradient, OOMP2, (MP2 Hessian; deprecated post 5.0)
   Lucas Lang             : DCDCAS
   Marvin Lechner         : AUTO-CI (C++ implementation), FIC-MRCC
   Spencer Leger          : CASSCF response
   Dagmar Lenk            : GEPOL surface, SMD, ORCA-2-JSON
   Dimitrios Liakos       : Extrapolation schemes; Compound Job, initial MDCI parallelization
   Dimitrios Manganas     : Further ROCIS development; embedding schemes. LFT, Crystal Embedding
   Dimitrios Pantazis     : SARC Basis sets
   Anastasios Papadopoulos: AUTO-CI, single reference methods and gradients
   Taras Petrenko         : pre 6.0 DFT Hessian and TD-DFT gradient, (ASA, deprecated), ECA, 1-Electron XAS/XES, NRVS
   Peter Pinski           : DLPNO-MP2, DLPNO-MP2 Gradient
   Christoph Reimann      : Effective Core Potentials
   Marius Retegan         : Local ZFS, SOC
   Christoph Riplinger    : Optimizer, TS searches, QM/MM, DLPNO-CCSD(T), (RO)-DLPNO pert. Triples
   Michael Roemelt        : Original ROCIS implementation
   Masaaki Saitow         : Open-shell DLPNO-CCSD energy and density
   Barbara Sandhoefer     : DKH picture change effects
   Kantharuban Sivalingam : CASSCF convergence/infrastructure, NEVPT2 and variants, FIC-MRCI
   Bernardo de Souza      : ESD, SOC TD-DFT
   Georgi Stoychev        : AutoAux, RI-MP2 NMR, DLPNO-MP2 response, X2C
   Van Anh Tran           : RI-MP2 g-tensors
   Willem Van den Heuvel  : Paramagnetic NMR
   Zikuan Wang            : NOTCH, Electric field optimization 
   Frank Wennmohs         : Technical directorship and infrastructure
   Hang Xu                : AUTO-CI-Response properties 


 We gratefully acknowledge several colleagues who have allowed us to
 interface, adapt or use parts of their codes:
   Stefan Grimme, W. Hujo, H. Kruse, P. Pracht,  : VdW corrections, initial TS optimization,
                  C. Bannwarth, S. Ehlert,         DFT functionals, gCP, sTDA/sTD-DF
                  L. Wittmann, M. Mueller
   Ed Valeev, F. Pavosevic, A. Kumar             : LibInt (2-el integral package), F12 methods
   Garnet Chan, S. Sharma, J. Yang, R. Olivares  : DMRG
   Ulf Ekstrom                                   : XCFun DFT Library
   Mihaly Kallay                                 : mrcc  (arbitrary order and MRCC methods)
   Frank Weinhold                                : gennbo (NPA and NBO analysis)
   Simon Mueller                                 : openCOSMO-RS
   Christopher J. Cramer and Donald G. Truhlar   : smd solvation model
   Lars Goerigk                                  : TD-DFT with DH, B97 family of functionals
   V. Asgeirsson, H. Jonsson                     : NEB implementation
   FAccTs GmbH                                   : IRC, NEB, NEB-TS, DLPNO-Multilevel, CI-OPT
                                                   MM, QMMM, 2- and 3-layer-ONIOM, Crystal-QMMM,
                                                   LR-CPCM, SF, NACMEs, symmetry and pop. for TD-DFT,
                                                   nearIR, NL-DFT gradient (VV10), updates on ESD,
                                                   ML-optimized integration grids, MBIS, APM,
                                                   GOAT, DOCKER, SOLVATOR, interface openCOSMO-RS
   S Lehtola, MJT Oliveira, MAL Marques          : LibXC Library
   Liviu Ungur et al                             : ANISO software


 Your calculation uses the libint2 library for the computation of 2-el integrals
 For citations please refer to: http://libint.valeyev.net

 Your ORCA version has been built with support for libXC version: 6.2.2
 For citations please refer to: https://libxc.gitlab.io

 This ORCA versions uses:
   CBLAS   interface :  Fast vector & matrix operations
   LAPACKE interface :  Fast linear algebra routines
   Shared memory     :  Shared parallel matrices


Your calculation utilizes the atom-pairwise dispersion correction
with the zero-damping scheme (D30)


XCFun DFT library Copyright 2009-2010 Ulf Ekstrom and contributors.
See http://admol.org/xcfun for more information.
This is free software; see the source code for copying conditions.
There is ABSOLUTELY NO WARRANTY; not even for MERCHANTABILITY or FITNESS FOR A PARTICULAR PURPOSE.
For details see the documentation.
Scientific users of this library should cite U. Ekstrom, L. Visscher, R. Bast, A. J. Thorvaldsen and K. Ruud;
J.Chem.Theor.Comp. 2010, DOI: 10.1021/ct100117s
XCFun Version 0.99 

Warning: RI is on but no J-basis has been assigned. Assigning Def2/J (nothing to worry about!)
================================================================================

----- Orbital basis set information -----
Your calculation utilizes the basis: def2-TZVP
   F. Weigend and R. Ahlrichs, Phys. Chem. Chem. Phys. 7, 3297 (2005).

----- AuxJ basis set information -----
Your calculation utilizes the auxiliary basis: def2/J
   F. Weigend, Phys. Chem. Chem. Phys. 8, 1057 (2006).

================================================================================
                                        WARNINGS
                       Please study these warnings very carefully!
================================================================================

WARNING: Functional chosen is sensitive to the integration grid.
         DEFGRID3 seems to be a minimum grid for robust results!

================================================================================
                                       INPUT FILE
================================================================================
NAME = data/single_point_P_M06-2x/140387/140387.inp
|  1> ! RIJCOSX M062X def2-TZVP D3ZERO NormalSCF
|  2> %pal
|  3> nprocs 6
|  4> end
|  5> 
|  6> * xyz 0 1
|  7>   C          -1.29021962962827      3.86457762320337      0.07100960299172
|  8>   C          -1.13071482794957      2.71572503086026     -0.71626043633471
|  9>   C          -0.18819415845123      1.72057143824686     -0.37151418125362
| 10>   C           0.61227275346705      1.91185069129894      0.77492423382250
| 11>   C           0.47393029157161      3.06352564703842      1.56524346179826
| 12>   C          -0.47948629268589      4.02422559557609      1.20389952336333
| 13>   F          -0.61683955585107      5.13166712765769      1.95911978784700
| 14>   P          -0.07943602975509      0.23664947278127     -1.47367493315270
| 15>   C           1.45905146865551     -0.56343656353345     -0.82629300158894
| 16>   C           2.68944475154520     -0.13371676250788     -1.37304362660560
| 17>   C           3.90564531481823     -0.66756713867178     -0.92517595757193
| 18>   C           3.88282250808393     -1.65811367942357      0.06705788932185
| 19>   C           2.67953732569224     -2.11774927905106      0.61780657969355
| 20>   C           1.47041392071665     -1.56361231763986      0.16905919655622
| 21>   F           5.04690162310628     -2.18300464229993      0.49752309079574
| 22>   C          -1.37851318899198     -0.85061319603276     -0.72736548665306
| 23>   C          -2.02502422071923     -0.58252091264572      0.49785315478463
| 24>   C          -2.99826998765502     -1.45824655558305      1.00435799796022
| 25>   C          -3.31717212849225     -2.61251310582331      0.27757862177937
| 26>   C          -2.69434877061743     -2.90695508819803     -0.94374487718498
| 27>   C          -1.73475641058864     -2.01591276690246     -1.44355107493766
| 28>   F          -4.24830167082063     -3.45862689181610      0.76042163807449
| 29>   H          -2.02253436600668      4.64394609701404     -0.18450395180171
| 30>   H          -1.75246664479732      2.58718867710019     -1.61689689722935
| 31>   H           1.35452329844884      1.15008254926774      1.05654087215965
| 32>   H           1.09355736754859      3.22655411895886      2.45900169282654
| 33>   H           2.69471896029037      0.63635947913386     -2.16121228324793
| 34>   H           4.86962318395326     -0.33809466642500     -1.33892282930055
| 35>   H           2.70319700508668     -2.89923509065677      1.39115682608256
| 36>   H           0.52209957482703     -1.91435742108512      0.60281482494344
| 37>   H          -1.76472706450938      0.32185659813066      1.06785701017611
| 38>   H          -3.51152136587306     -1.26032023369796      1.95660230053963
| 39>   H          -2.97670602702483     -3.81911774369395     -1.48894171938575
| 40>   H          -1.24850700739394     -2.23106909058052     -2.40872404926832
| 41> **                         ****END OF INPUT****
================================================================================

                       ****************************
                       * Single Point Calculation *
                       ****************************

---------------------------------
CARTESIAN COORDINATES (ANGSTROEM)
---------------------------------
  C     -1.290220    3.864578    0.071010
  C     -1.130715    2.715725   -0.716260
  C     -0.188194    1.720571   -0.371514
  C      0.612273    1.911851    0.774924
  C      0.473930    3.063526    1.565243
  C     -0.479486    4.024226    1.203900
  F     -0.616840    5.131667    1.959120
  P     -0.079436    0.236649   -1.473675
  C      1.459051   -0.563437   -0.826293
  C      2.689445   -0.133717   -1.373044
  C      3.905645   -0.667567   -0.925176
  C      3.882823   -1.658114    0.067058
  C      2.679537   -2.117749    0.617807
  C      1.470414   -1.563612    0.169059
  F      5.046902   -2.183005    0.497523
  C     -1.378513   -0.850613   -0.727365
  C     -2.025024   -0.582521    0.497853
  C     -2.998270   -1.458247    1.004358
  C     -3.317172   -2.612513    0.277579
  C     -2.694349   -2.906955   -0.943745
  C     -1.734756   -2.015913   -1.443551
  F     -4.248302   -3.458627    0.760422
  H     -2.022534    4.643946   -0.184504
  H     -1.752467    2.587189   -1.616897
  H      1.354523    1.150083    1.056541
  H      1.093557    3.226554    2.459002
  H      2.694719    0.636359   -2.161212
  H      4.869623   -0.338095   -1.338923
  H      2.703197   -2.899235    1.391157
  H      0.522100   -1.914357    0.602815
  H     -1.764727    0.321857    1.067857
  H     -3.511521   -1.260320    1.956602
  H     -2.976706   -3.819118   -1.488942
  H     -1.248507   -2.231069   -2.408724

----------------------------
CARTESIAN COORDINATES (A.U.)
----------------------------
  NO LB      ZA    FRAG     MASS         X           Y           Z
   0 C     6.0000    0    12.011   -2.438162    7.302993    0.134189
   1 C     6.0000    0    12.011   -2.136741    5.131977   -1.353536
   2 C     6.0000    0    12.011   -0.355635    3.251409   -0.702060
   3 C     6.0000    0    12.011    1.157028    3.612874    1.464395
   4 C     6.0000    0    12.011    0.895598    5.789224    2.957881
   5 C     6.0000    0    12.011   -0.906098    7.604684    2.275040
   6 F     9.0000    0    18.998   -1.165658    9.697445    3.702200
   7 P    15.0000    0    30.974   -0.150112    0.447203   -2.784842
   8 C     6.0000    0    12.011    2.757208   -1.064741   -1.561467
   9 C     6.0000    0    12.011    5.082314   -0.252688   -2.594676
  10 C     6.0000    0    12.011    7.380600   -1.261519   -1.748329
  11 C     6.0000    0    12.011    7.337471   -3.133381    0.126721
  12 C     6.0000    0    12.011    5.063592   -4.001966    1.167485
  13 C     6.0000    0    12.011    2.778680   -2.954799    0.319476
  14 F     9.0000    0    18.998    9.537262   -4.125281    0.940182
  15 C     6.0000    0    12.011   -2.605012   -1.607426   -1.374522
  16 C     6.0000    0    12.011   -3.826741   -1.100805    0.940806
  17 C     6.0000    0    12.011   -5.665909   -2.755687    1.897962
  18 C     6.0000    0    12.011   -6.268547   -4.936934    0.524548
  19 C     6.0000    0    12.011   -5.091581   -5.493349   -1.783419
  20 C     6.0000    0    12.011   -3.278215   -3.809523   -2.727916
  21 F     9.0000    0    18.998   -8.028127   -6.535858    1.436989
  22 H     1.0000    0     1.008   -3.822036    8.775786   -0.348662
  23 H     1.0000    0     1.008   -3.311682    4.889078   -3.055492
  24 H     1.0000    0     1.008    2.559678    2.173341    1.996573
  25 H     1.0000    0     1.008    2.066524    6.097304    4.646840
  26 H     1.0000    0     1.008    5.092281    1.202545   -4.084099
  27 H     1.0000    0     1.008    9.202254   -0.638906   -2.530197
  28 H     1.0000    0     1.008    5.108302   -5.478760    2.628905
  29 H     1.0000    0     1.008    0.986625   -3.617611    1.139155
  30 H     1.0000    0     1.008   -3.334851    0.608221    2.017957
  31 H     1.0000    0     1.008   -6.635814   -2.381660    3.697443
  32 H     1.0000    0     1.008   -5.625159   -7.217087   -2.813692
  33 H     1.0000    0     1.008   -2.359336   -4.216110   -4.551829

--------------------------------
INTERNAL COORDINATES (ANGSTROEM)
--------------------------------
 C      0   0   0     0.000000000000     0.00000000     0.00000000
 C      1   0   0     1.401819594496     0.00000000     0.00000000
 C      2   1   0     1.413338553113   121.06061263     0.00000000
 C      3   2   1     1.411260454093   118.74868643   358.98473302
 C      4   3   2     1.403601910283   120.84467151     0.33650962
 C      5   4   3     1.400898645906   118.98174121     0.32666901
 F      6   5   4     1.347460690992   119.23715995   179.98572775
 P      3   2   1     1.851650899380   117.27489637   179.26309645
 C      8   3   2     1.850995627652   100.78024256   169.40058788
 C      9   8   3     1.413316307105   117.18492771   273.13032037
 C     10   9   8     1.401686656568   121.06152647   178.84378399
 C     11  10   9     1.402223711404   118.75209549     1.00179790
 C     12  11  10     1.400886945672   121.59756739   359.79753249
 C     13  12  11     1.403716992251   118.99063492   359.54554262
 F     12  11  10     1.347549998561   119.15277698   179.58298077
 C      8   3   2     1.851140018092   100.92415512   272.82009550
 C     16   8   3     1.411031787694   124.05694894   350.43219748
 C     17  16   8     1.403798376091   120.82564330   180.27527725
 C     18  17  16     1.400799095544   118.99083636     0.32534439
 C     19  18  17     1.402225411702   121.58786120   359.59346945
 C     20  19  18     1.401634813736   118.76270835   359.74352976
 F     19  18  17     1.347608304304   119.25958290   179.83775440
 H      1   2   3     1.099539570807   121.74763916   180.23466415
 H      2   1   3     1.101926926200   119.36767566   179.87533449
 H      4   3   2     1.100242929869   119.78412502   180.26614612
 H      5   4   3     1.099690761747   121.58267524   180.21018398
 H     10   9   8     1.101932423759   119.56122212   359.10177032
 H     11  10   9     1.099541684528   121.75830182   180.30638267
 H     13  12  11     1.099704713894   119.41636564   179.73345240
 H     14  13  12     1.100211875671   119.37771446   180.46925851
 H     17  16   8     1.100253464748   119.84264899     0.14085089
 H     18  17  16     1.099714061896   121.58212001   180.14397320
 H     20  19  18     1.099548055827   119.47252207   180.45058940
 H     21  20  19     1.101948091384   119.36050516   180.77694940

---------------------------
INTERNAL COORDINATES (A.U.)
---------------------------
 C      0   0   0     0.000000000000     0.00000000     0.00000000
 C      1   0   0     2.649055122762     0.00000000     0.00000000
 C      2   1   0     2.670822799896   121.06061263     0.00000000
 C      3   2   1     2.666895761869   118.74868643   358.98473302
 C      4   3   2     2.652423211483   120.84467151     0.33650962
 C      5   4   3     2.647314782143   118.98174121     0.32666901
 F      6   5   4     2.546331682199   119.23715995   179.98572775
 P      3   2   1     3.499113095458   117.27489637   179.26309645
 C      8   3   2     3.497874811348   100.78024256   169.40058788
 C      9   8   3     2.670780761034   117.18492771   273.13032037
 C     10   9   8     2.648803906486   121.06152647   178.84378399
 C     11  10   9     2.649818793045   118.75209549     1.00179790
 C     12  11  10     2.647292671906   121.59756739   359.79753249
 C     13  12  11     2.652640684886   118.99063492   359.54554262
 F     12  11  10     2.546500449045   119.15277698   179.58298077
 C      8   3   2     3.498147669736   100.92415512   272.82009550
 C     16   8   3     2.666463644999   124.05694894   350.43219748
 C     17  16   8     2.652794478056   120.82564330   180.27527725
 C     18  17  16     2.647126659222   118.99083636     0.32534439
 C     19  18  17     2.649822006141   121.58786120   359.59346945
 C     20  19  18     2.648705937731   118.76270835   359.74352976
 F     19  18  17     2.546610630932   119.25958290   179.83775440
 H      1   2   3     2.077828662234   121.74763916   180.23466415
 H      2   1   3     2.082340110111   119.36767566   179.87533449
 H      4   3   2     2.079157818236   119.78412502   180.26614612
 H      5   4   3     2.078114371705   121.58267524   180.21018398
 H     10   9   8     2.082350498993   119.56122212   359.10177032
 H     11  10   9     2.077832656589   121.75830182   180.30638267
 H     13  12  11     2.078140737441   119.41636564   179.73345240
 H     14  13  12     2.079099134307   119.37771446   180.46925851
 H     17  16   8     2.079177726272   119.84264899     0.14085089
 H     18  17  16     2.078158402606   121.58212001   180.14397320
 H     20  19  18     2.077844696599   119.47252207   180.45058940
 H     21  20  19     2.082380106512   119.36050516   180.77694940

---------------------
BASIS SET INFORMATION
---------------------
There are 4 groups of distinct atoms

 Group   1 Type C   : 11s6p2d1f contracted to 5s3p2d1f pattern {62111/411/11/1}
 Group   2 Type F   : 11s6p2d1f contracted to 5s3p2d1f pattern {62111/411/11/1}
 Group   3 Type P   : 14s9p3d1f contracted to 5s5p2d1f pattern {73211/51111/21/1}
 Group   4 Type H   : 5s1p contracted to 3s1p pattern {311/1}

Atom   0C    basis set group =>   1
Atom   1C    basis set group =>   1
Atom   2C    basis set group =>   1
Atom   3C    basis set group =>   1
Atom   4C    basis set group =>   1
Atom   5C    basis set group =>   1
Atom   6F    basis set group =>   2
Atom   7P    basis set group =>   3
Atom   8C    basis set group =>   1
Atom   9C    basis set group =>   1
Atom  10C    basis set group =>   1
Atom  11C    basis set group =>   1
Atom  12C    basis set group =>   1
Atom  13C    basis set group =>   1
Atom  14F    basis set group =>   2
Atom  15C    basis set group =>   1
Atom  16C    basis set group =>   1
Atom  17C    basis set group =>   1
Atom  18C    basis set group =>   1
Atom  19C    basis set group =>   1
Atom  20C    basis set group =>   1
Atom  21F    basis set group =>   2
Atom  22H    basis set group =>   4
Atom  23H    basis set group =>   4
Atom  24H    basis set group =>   4
Atom  25H    basis set group =>   4
Atom  26H    basis set group =>   4
Atom  27H    basis set group =>   4
Atom  28H    basis set group =>   4
Atom  29H    basis set group =>   4
Atom  30H    basis set group =>   4
Atom  31H    basis set group =>   4
Atom  32H    basis set group =>   4
Atom  33H    basis set group =>   4
---------------------------------
AUXILIARY/J BASIS SET INFORMATION
---------------------------------
There are 4 groups of distinct atoms

 Group   1 Type C   : 12s5p4d2f1g contracted to 6s4p3d1f1g pattern {711111/2111/211/2/1}
 Group   2 Type F   : 12s5p4d2f1g contracted to 6s4p3d1f1g pattern {711111/2111/211/2/1}
 Group   3 Type P   : 14s5p5d2f1g contracted to 8s4p3d1f1g pattern {71111111/2111/311/2/1}
 Group   4 Type H   : 5s2p1d contracted to 3s1p1d pattern {311/2/1}

Atom   0C    basis set group =>   1
Atom   1C    basis set group =>   1
Atom   2C    basis set group =>   1
Atom   3C    basis set group =>   1
Atom   4C    basis set group =>   1
Atom   5C    basis set group =>   1
Atom   6F    basis set group =>   2
Atom   7P    basis set group =>   3
Atom   8C    basis set group =>   1
Atom   9C    basis set group =>   1
Atom  10C    basis set group =>   1
Atom  11C    basis set group =>   1
Atom  12C    basis set group =>   1
Atom  13C    basis set group =>   1
Atom  14F    basis set group =>   2
Atom  15C    basis set group =>   1
Atom  16C    basis set group =>   1
Atom  17C    basis set group =>   1
Atom  18C    basis set group =>   1
Atom  19C    basis set group =>   1
Atom  20C    basis set group =>   1
Atom  21F    basis set group =>   2
Atom  22H    basis set group =>   4
Atom  23H    basis set group =>   4
Atom  24H    basis set group =>   4
Atom  25H    basis set group =>   4
Atom  26H    basis set group =>   4
Atom  27H    basis set group =>   4
Atom  28H    basis set group =>   4
Atom  29H    basis set group =>   4
Atom  30H    basis set group =>   4
Atom  31H    basis set group =>   4
Atom  32H    basis set group =>   4
Atom  33H    basis set group =>   4


           ************************************************************
           *        Program running with 6 parallel MPI-processes     *
           *              working on a common directory               *
           ************************************************************
------------------------------------------------------------------------------
                             ORCA STARTUP CALCULATIONS
                           -- RI-GTO INTEGRALS CHOSEN --
------------------------------------------------------------------------------
------------------------------------------------------------------------------
                   ___                                                        
                  /   \      - P O W E R E D   B Y -                         
                 /     \                                                     
                 |  |  |   _    _      __       _____    __    __             
                 |  |  |  | |  | |    /  \     |  _  \  |  |  /  |          
                  \  \/   | |  | |   /    \    | | | |  |  | /  /          
                 / \  \   | |__| |  /  /\  \   | |_| |  |  |/  /          
                |  |  |   |  __  | /  /__\  \  |    /   |      \           
                |  |  |   | |  | | |   __   |  |    \   |  |\   \          
                \     /   | |  | | |  |  |  |  | |\  \  |  | \   \       
                 \___/    |_|  |_| |__|  |__|  |_| \__\ |__|  \__/        
                                                                              
                      - O R C A' S   B I G   F R I E N D -                    
                                      &                                       
                       - I N T E G R A L  F E E D E R -                       
                                                                              
 v1 FN, 2020, v2 2021, v3 2022-2024                                           
------------------------------------------------------------------------------


----------------------
SHARK INTEGRAL PACKAGE
----------------------

Number of atoms                             ...     34
Number of basis functions                   ...    760
Number of shells                            ...    292
Maximum angular momentum                    ...      3
Integral batch strategy                     ... SHARK/LIBINT Hybrid
RI-J (if used) integral strategy            ... SPLIT-RIJ (Revised 2003 algorithm where possible)
Printlevel                                  ...      1
Contraction scheme used                     ... SEGMENTED contraction
Prescreening option                         ... SCHWARTZ
   Thresh                                   ... 1.000e-10
   Tcut                                     ... 1.000e-11
   Tpresel                                  ... 1.000e-11 
Coulomb Range Separation                    ... NOT USED
Exchange Range Separation                   ... NOT USED
Multipole approximations                    ... NOT USED
Finite Nucleus Model                        ... NOT USED
CABS basis                                  ... NOT available
Auxiliary Coulomb fitting basis             ... AVAILABLE
   # of basis functions in Aux-J            ...   1212
   # of shells in Aux-J                     ...    392
   Maximum angular momentum in Aux-J        ...      4
Auxiliary J/K fitting basis                 ... NOT available
Auxiliary Correlation fitting basis         ... NOT available
Auxiliary 'external' fitting basis          ... NOT available

Checking pre-screening integrals            ... done (  0.0 sec) Dimension = 292
Check shell pair data                       ... done (  0.0 sec)
Shell pair information
Shell pair cut-off parameter TPreSel        ...   1.0e-11
Total number of shell pairs                 ...     42778
Shell pairs after pre-screening             ...     29380
Total number of primitive shell pairs       ...    135474
Primitive shell pairs kept                  ...     60726
          la=0 lb=0:   7047 shell pairs
          la=1 lb=0:   8442 shell pairs
          la=1 lb=1:   2547 shell pairs
          la=2 lb=0:   4203 shell pairs
          la=2 lb=1:   2558 shell pairs
          la=2 lb=2:    656 shell pairs
          la=3 lb=0:   1979 shell pairs
          la=3 lb=1:   1201 shell pairs
          la=3 lb=2:    596 shell pairs
          la=3 lb=3:    151 shell pairs

Calculating one electron integrals          ... done (  0.1 sec)
Calculating RI/J V-Matrix + Cholesky decomp.... done (  0.1 sec)
Calculating Nuclear repulsion               ... done (  0.0 sec) ENN=   1779.610483178948 Eh

Diagonalization of the overlap matrix:
Smallest eigenvalue                        ... 9.413e-06
Time for diagonalization                   ...    0.120 sec
Threshold for overlap eigenvalues          ... 1.000e-07
Number of eigenvalues below threshold      ... 0
Time for construction of square roots      ...    0.054 sec
Total time needed                          ...    0.180 sec

-------------------
DFT GRID GENERATION
-------------------

General Integration Accuracy     IntAcc      ... 4.388
Radial Grid Type                 RadialGrid  ... OptM3 with GC (2021)
Angular Grid (max. ang.)         AngularGrid ... 4 (Lebedev-302)
Angular grid pruning method      GridPruning ... 4 (adaptive)
Weight generation scheme         WeightScheme... mBecke (2022)
Basis function cutoff            BFCut       ... 1.0000e-10
Integration weight cutoff        WCut        ... 1.0000e-14
Partially contracted basis set               ... off
Rotationally invariant grid construction     ... off
Angular grids for H and He will be reduced by one unit

Total number of grid points                  ...   171352
Total number of batches                      ...     2691
Average number of points per batch           ...       63
Average number of grid points per atom       ...     5040

--------------------
COSX GRID GENERATION
--------------------

GRIDX 1
-------
General Integration Accuracy     IntAcc      ... 3.816
Radial Grid Type                 RadialGrid  ... OptM3 with GC (2021)
Angular Grid (max. ang.)         AngularGrid ... 1 (Lebedev-50)
Angular grid pruning method      GridPruning ... 4 (adaptive)
Weight generation scheme         WeightScheme... mBecke (2022)
Basis function cutoff            BFCut       ... 1.0000e-10
Integration weight cutoff        WCut        ... 1.0000e-14
Partially contracted basis set               ... on
Rotationally invariant grid construction     ... off
Angular grids for H and He will be reduced by one unit

Total number of grid points                  ...    22665
Total number of batches                      ...      190
Average number of points per batch           ...      119
Average number of grid points per atom       ...      667
UseSFitting                                  ... on

GRIDX 2
-------
General Integration Accuracy     IntAcc      ... 4.020
Radial Grid Type                 RadialGrid  ... OptM3 with GC (2021)
Angular Grid (max. ang.)         AngularGrid ... 2 (Lebedev-110)
Angular grid pruning method      GridPruning ... 4 (adaptive)
Weight generation scheme         WeightScheme... mBecke (2022)
Basis function cutoff            BFCut       ... 1.0000e-10
Integration weight cutoff        WCut        ... 1.0000e-14
Partially contracted basis set               ... on
Rotationally invariant grid construction     ... off
Angular grids for H and He will be reduced by one unit

Total number of grid points                  ...    47980
Total number of batches                      ...      394
Average number of points per batch           ...      121
Average number of grid points per atom       ...     1411
UseSFitting                                  ... on

GRIDX 3
-------
General Integration Accuracy     IntAcc      ... 4.338
Radial Grid Type                 RadialGrid  ... OptM3 with GC (2021)
Angular Grid (max. ang.)         AngularGrid ... 3 (Lebedev-194)
Angular grid pruning method      GridPruning ... 4 (adaptive)
Weight generation scheme         WeightScheme... mBecke (2022)
Basis function cutoff            BFCut       ... 1.0000e-10
Integration weight cutoff        WCut        ... 1.0000e-14
Partially contracted basis set               ... on
Rotationally invariant grid construction     ... off
Angular grids for H and He will be reduced by one unit

Total number of grid points                  ...   105614
Total number of batches                      ...      842
Average number of points per batch           ...      125
Average number of grid points per atom       ...     3106
UseSFitting                                  ... on
Initializing property integral containers    ... done (  0.0 sec)

SHARK setup successfully completed in   3.9 seconds

Maximum memory used throughout the entire STARTUP-calculation: 70.6 MB


           ************************************************************
           *        Program running with 6 parallel MPI-processes     *
           *              working on a common directory               *
           ************************************************************
-------------------------------------------------------------------------------
                                 ORCA GUESS
                   Start orbitals & Density for SCF / CASSCF
-------------------------------------------------------------------------------

------------
SCF SETTINGS
------------
Hamiltonian:
 Density Functional     Method          .... DFT(GTOs)
 Exchange Functional    Exchange        .... M062X
 Correlation Functional Correlation     .... M062X
 Gradients option       PostSCFGGA      .... off
 Hybrid DFT is turned on
   Fraction HF Exchange ScalHFX         ....  0.540000
   Scaling of DF-GGA-X  ScalDFX         ....  0.460000
   Scaling of DF-GGA-C  ScalDFC         ....  1.000000
   Scaling of DF-LDA-C  ScalLDAC        ....  1.000000
   Perturbative correction              ....  0.000000
 RI-approximation to the Coulomb term is turned on
   Number of AuxJ basis functions       .... 1212
   RIJ-COSX (HFX calculated with COS-X)).... on


General Settings:
 Integral files         IntName         .... data/single_point_P_M06-2x/140387/140387
 Hartree-Fock type      HFTyp           .... RHF
 Total Charge           Charge          ....    0
 Multiplicity           Mult            ....    1
 Number of Electrons    NEL             ....  162
 Basis Dimension        Dim             ....  760
 Nuclear Repulsion      ENuc            ....   1779.6104831789 Eh

Convergence Acceleration:
 AO-DIIS                CNVDIIS         .... on
   Start iteration      DIISMaxIt       ....    12
   Startup error        DIISStart       ....  0.200000
   # of expansion vecs  DIISMaxEq       ....     5
   Bias factor          DIISBfac        ....   1.050
   Max. coefficient     DIISMaxC        ....  10.000
 MO-DIIS                CNVKDIIS        .... off
 Trust-Rad. Augm. Hess. CNVTRAH         .... auto
   Auto Start mean grad. ratio tolernc. ....  1.125000
   Auto Start start iteration           ....    50
   Auto Start num. interpolation iter.  ....    10
   Max. Number of Micro iterations      ....    24
   Max. Number of Macro iterations      .... Maxiter - #DIIS iter
   Number of Davidson start vectors     ....     2
   Converg. threshold    (grad. norm)   ....   5.000e-05
   Grad. Scal. Fac. for Micro threshold ....   0.100
   Minimum threshold for Micro iter.    ....   1.000e-02
   NR start threshold (gradient norm)   ....   1.000e-04
   Initial trust radius                 ....   0.400
   Minimum AH scaling param. (alpha)    ....   1.000
   Maximum AH scaling param. (alpha)    .... 1000.000
   Quad. conv. algorithm                .... NR
   White noise on init. David. guess    .... on
   Maximum white noise                  ....   0.010
   Pseudo random numbers                .... off
   Inactive MOs                         .... canonical
   Orbital update algorithm             .... Taylor
   Preconditioner                       .... Diag
   Full preconditioner red. dimension   ....   250
 SOSCF                  CNVSOSCF        .... on
   Start iteration      SOSCFMaxIt      ....   150
   Startup grad/error   SOSCFStart      ....  0.003300
   Hessian update       SOSCFHessUp     .... L-BFGS
 Level Shifting         CNVShift        .... on
   Level shift para.    LevelShift      ....    0.2500
   Turn off err/grad.   ShiftErr        ....    0.0010
 Zerner damping         CNVZerner       .... off
 Static damping         CNVDamp         .... on
   Fraction old density DampFac         ....    0.7000
   Max. Damping (<1)    DampMax         ....    0.9800
   Min. Damping (>=0)   DampMin         ....    0.0000
   Turn off err/grad.   DampErr         ....    0.1000

SCF Procedure:
 Maximum # iterations   MaxIter         ....   125
 SCF integral mode      SCFMode         .... Direct
   Integral package                     .... SHARK and LIBINT hybrid scheme
 Reset frequency        DirectResetFreq ....    20
 Integral Threshold     Thresh          ....  1.000e-10 Eh
 Primitive CutOff       TCut            ....  1.000e-11 Eh

Convergence Tolerance:
 Convergence Check Mode ConvCheckMode   .... Total+1el-Energy
 Convergence forced     ConvForced      .... 0
 Energy Change          TolE            ....  1.000e-06 Eh
 1-El. energy change                    ....  1.000e-03 Eh
 Orbital Gradient       TolG            ....  5.000e-05
 Orbital Rotation angle TolX            ....  5.000e-05
 DIIS Error             TolErr          ....  1.000e-05

------------------------------
INITIAL GUESS: MODEL POTENTIAL
------------------------------
Loading Hartree-Fock densities                     ... done
Calculating cut-offs                               ... done
Initializing the effective Hamiltonian             ... done
Setting up the integral package (SHARK)            ... done
Starting the Coulomb interaction                   ... done (   0.5 sec)
Making the grid                                    ... done (   0.3 sec)
Mapping shells                                     ... done
Starting the XC term evaluation                    ... done (   0.4 sec)
  promolecular density results
     # of electrons  =    161.994240419
     EX              =   -148.024457422
     EC              =     -5.527666079
     EX+EC           =   -153.552123501
Transforming the Hamiltonian                       ... done (   0.1 sec)
Diagonalizing the Hamiltonian                      ... done (   0.1 sec)
Back transforming the eigenvectors                 ... done (   0.1 sec)
Now organizing SCF variables                       ... done
                      ------------------
                      INITIAL GUESS DONE (   1.5 sec)
                      ------------------
             **** ENERGY FILE WAS UPDATED (data/single_point_P_M06-2x/140387/140387.en.tmp) ****
Finished Guess after   1.8 sec
Maximum memory used throughout the entire GUESS-calculation: 53.8 MB


           ************************************************************
           *        Program running with 6 parallel MPI-processes     *
           *              working on a common directory               *
           ************************************************************

-------------------------------------------------------------------------------------------
                                      ORCA LEAN-SCF
                              memory conserving SCF solver
-------------------------------------------------------------------------------------------

----------------------------------------D-I-I-S--------------------------------------------
Iteration    Energy (Eh)           Delta-E    RMSDP     MaxDP     DIISErr   Damp  Time(sec)
-------------------------------------------------------------------------------------------
               ***  Starting incremental Fock matrix formation  ***
    1    -1333.5706219625853919     0.00e+00  1.05e-03  4.03e-02  1.20e-01  0.700  15.0
    2    -1333.7511926246993426    -1.81e-01  8.50e-04  2.80e-02  7.14e-02  0.700   8.6
                               ***Turning on AO-DIIS***
    3    -1333.8386557892122255    -8.75e-02  5.94e-04  1.96e-02  4.78e-02  0.700   8.1
    4    -1333.8903589268538781    -5.17e-02  1.39e-03  4.69e-02  3.37e-02  0.000   7.7
    5    -1334.0009778833650671    -1.11e-01  1.34e-04  1.44e-02  3.64e-03  0.000   8.2
                              *** Initializing SOSCF ***
---------------------------------------S-O-S-C-F--------------------------------------
Iteration    Energy (Eh)           Delta-E    RMSDP     MaxDP     MaxGrad    Time(sec)
--------------------------------------------------------------------------------------
    6    -1334.0012536170297608    -2.76e-04  3.73e-05  4.27e-03  1.39e-03     7.3
               *** Restarting incremental Fock matrix formation ***
    7    -1334.0012287883077988     2.48e-05  8.38e-05  3.72e-03  4.25e-04    14.7
    8    -1334.0012338244487182    -5.04e-06  3.17e-05  1.33e-03  3.25e-04    10.6
    9    -1334.0012383155885800    -4.49e-06  2.76e-05  1.22e-03  8.66e-05     9.8
   10    -1334.0012385233544592    -2.08e-07  4.63e-06  1.85e-04  3.55e-05     9.6
                 **** Energy Check signals convergence ****

               *****************************************************
               *                     SUCCESS                       *
               *           SCF CONVERGED AFTER  10 CYCLES          *
               *****************************************************

Recomputing exchange energy using gridx3       ... done (   22.008 sec)
Old exchange energy                            :    -81.139298633 Eh
New exchange energy                            :    -81.139265893 Eh
Exchange energy change after final integration :      0.000032740 Eh
Total energy after final integration           :  -1334.001205784 Eh
             **** ENERGY FILE WAS UPDATED (data/single_point_P_M06-2x/140387/140387.en.tmp) ****

----------------
TOTAL SCF ENERGY
----------------

Total Energy       :      -1334.00120578372753 Eh          -36300.01827 eV

Components:
Nuclear Repulsion  :       1779.61048317894847 Eh           48425.66316 eV
Electronic Energy  :      -3113.61172170230293 Eh          -84725.68232 eV
One Electron Energy:      -5364.37437362602850 Eh         -145972.04778 eV
Two Electron Energy:       2250.76265192372557 Eh           61246.36546 eV

Virial components:
Potential Energy   :      -2661.81297304185227 Eh          -72431.61335 eV
Kinetic Energy     :       1327.81176725812497 Eh           36131.59508 eV
Virial Ratio       :          2.00466138249278

DFT components:
N(Alpha)           :       81.000119219166 electrons
N(Beta)            :       81.000119219166 electrons
N(Total)           :      162.000238438332 electrons
E(XC)              :      -75.194640214945 Eh       

---------------
SCF CONVERGENCE
---------------

  Last Energy change         ...    2.0777e-07  Tolerance :   1.0000e-06
  Last MAX-Density change    ...    1.8522e-04  Tolerance :   1.0000e-05
  Last RMS-Density change    ...    4.6331e-06  Tolerance :   1.0000e-06
  Last DIIS Error            ...    1.3905e-03  Tolerance :   1.0000e-05
  Last Orbital Gradient      ...    3.5536e-05  Tolerance :   5.0000e-05
  Last Orbital Rotation      ...    2.9577e-05  Tolerance :   5.0000e-05


----------------
ORBITAL ENERGIES
----------------

  NO   OCC          E(Eh)            E(eV) 
   0   2.0000     -78.044353     -2123.6948 
   1   2.0000     -25.265884      -687.5197 
   2   2.0000     -25.265872      -687.5193 
   3   2.0000     -25.265749      -687.5160 
   4   2.0000     -10.644188      -289.6431 
   5   2.0000     -10.644183      -289.6430 
   6   2.0000     -10.644102      -289.6407 
   7   2.0000     -10.570954      -287.6503 
   8   2.0000     -10.570896      -287.6487 
   9   2.0000     -10.570881      -287.6483 
  10   2.0000     -10.569179      -287.6020 
  11   2.0000     -10.569116      -287.6003 
  12   2.0000     -10.569114      -287.6002 
  13   2.0000     -10.566502      -287.5291 
  14   2.0000     -10.566479      -287.5285 
  15   2.0000     -10.566462      -287.5281 
  16   2.0000     -10.566427      -287.5271 
  17   2.0000     -10.566404      -287.5265 
  18   2.0000     -10.566393      -287.5262 
  19   2.0000     -10.565846      -287.5113 
  20   2.0000     -10.565820      -287.5106 
  21   2.0000     -10.565775      -287.5094 
  22   2.0000      -6.860224      -186.6762 
  23   2.0000      -4.974855      -135.3727 
  24   2.0000      -4.974426      -135.3610 
  25   2.0000      -4.974422      -135.3609 
  26   2.0000      -1.379694       -37.5434 
  27   2.0000      -1.379676       -37.5429 
  28   2.0000      -1.379592       -37.5406 
  29   2.0000      -0.980093       -26.6697 
  30   2.0000      -0.972427       -26.4611 
  31   2.0000      -0.972378       -26.4598 
  32   2.0000      -0.881213       -23.9790 
  33   2.0000      -0.862893       -23.4805 
  34   2.0000      -0.862853       -23.4794 
  35   2.0000      -0.862505       -23.4699 
  36   2.0000      -0.849548       -23.1174 
  37   2.0000      -0.849491       -23.1158 
  38   2.0000      -0.750188       -20.4136 
  39   2.0000      -0.719736       -19.5850 
  40   2.0000      -0.719651       -19.5827 
  41   2.0000      -0.719480       -19.5781 
  42   2.0000      -0.703757       -19.1502 
  43   2.0000      -0.703734       -19.1496 
  44   2.0000      -0.653773       -17.7901 
  45   2.0000      -0.635000       -17.2792 
  46   2.0000      -0.634974       -17.2785 
  47   2.0000      -0.634384       -17.2625 
  48   2.0000      -0.586161       -15.9502 
  49   2.0000      -0.586112       -15.9489 
  50   2.0000      -0.585977       -15.9452 
  51   2.0000      -0.576579       -15.6895 
  52   2.0000      -0.576540       -15.6885 
  53   2.0000      -0.576463       -15.6864 
  54   2.0000      -0.557915       -15.1816 
  55   2.0000      -0.557848       -15.1798 
  56   2.0000      -0.529367       -14.4048 
  57   2.0000      -0.523469       -14.2443 
  58   2.0000      -0.523435       -14.2434 
  59   2.0000      -0.507820       -13.8185 
  60   2.0000      -0.506487       -13.7822 
  61   2.0000      -0.506467       -13.7817 
  62   2.0000      -0.497950       -13.5499 
  63   2.0000      -0.493254       -13.4221 
  64   2.0000      -0.493213       -13.4210 
  65   2.0000      -0.489236       -13.3128 
  66   2.0000      -0.448805       -12.2126 
  67   2.0000      -0.448678       -12.2091 
  68   2.0000      -0.444626       -12.0989 
  69   2.0000      -0.418486       -11.3876 
  70   2.0000      -0.418432       -11.3861 
  71   2.0000      -0.417385       -11.3576 
  72   2.0000      -0.400089       -10.8870 
  73   2.0000      -0.400020       -10.8851 
  74   2.0000      -0.341679        -9.2976 
  75   2.0000      -0.333735        -9.0814 
  76   2.0000      -0.327339        -8.9073 
  77   2.0000      -0.327323        -8.9069 
  78   2.0000      -0.315411        -8.5828 
  79   2.0000      -0.315192        -8.5768 
  80   2.0000      -0.275985        -7.5099 
  81   0.0000      -0.017468        -0.4753 
  82   0.0000      -0.007767        -0.2113 
  83   0.0000      -0.007570        -0.2060 
  84   0.0000       0.005640         0.1535 
  85   0.0000       0.005688         0.1548 
  86   0.0000       0.010686         0.2908 
  87   0.0000       0.065012         1.7691 
  88   0.0000       0.065400         1.7796 
  89   0.0000       0.073056         1.9879 
  90   0.0000       0.086530         2.3546 
  91   0.0000       0.086640         2.3576 
*Only the first 10 virtual orbitals were printed.

                    ********************************
                    * MULLIKEN POPULATION ANALYSIS *
                    ********************************

-----------------------
MULLIKEN ATOMIC CHARGES
-----------------------
   0 C :   -0.217964
   1 C :   -0.128104
   2 C :   -0.111698
   3 C :   -0.122016
   4 C :   -0.236541
   5 C :    0.300304
   6 F :   -0.200030
   7 P :    0.121790
   8 C :   -0.111747
   9 C :   -0.125454
  10 C :   -0.219041
  11 C :    0.298323
  12 C :   -0.234620
  13 C :   -0.122552
  14 F :   -0.199875
  15 C :   -0.109624
  16 C :   -0.121971
  17 C :   -0.235004
  18 C :    0.299534
  19 C :   -0.218109
  20 C :   -0.128277
  21 F :   -0.200044
  22 H :    0.160608
  23 H :    0.163716
  24 H :    0.190626
  25 H :    0.160662
  26 H :    0.163270
  27 H :    0.160452
  28 H :    0.160586
  29 H :    0.189892
  30 H :    0.188743
  31 H :    0.160167
  32 H :    0.160348
  33 H :    0.163651
Sum of atomic charges:   -0.0000000

--------------------------------
MULLIKEN REDUCED ORBITAL CHARGES
--------------------------------
  0 C s       :     3.255011  s :     3.255011
      pz      :     0.925362  p :     2.901768
      px      :     0.993674
      py      :     0.982732
      dz2     :     0.019032  d :     0.054790
      dxz     :     0.012322
      dyz     :     0.003306
      dx2y2   :     0.007033
      dxy     :     0.013096
      f0      :     0.000909  f :     0.006396
      f+1     :     0.000744
      f-1     :     0.001194
      f+2     :     0.000864
      f-2     :     0.001352
      f+3     :     0.000767
      f-3     :     0.000565

  1 C s       :     3.192791  s :     3.192791
      pz      :     1.006493  p :     2.864369
      px      :     0.956120
      py      :     0.901756
      dz2     :     0.010615  d :     0.064359
      dxz     :     0.012922
      dyz     :     0.010890
      dx2y2   :     0.016834
      dxy     :     0.013097
      f0      :     0.000477  f :     0.006585
      f+1     :     0.000796
      f-1     :     0.001152
      f+2     :     0.000704
      f-2     :     0.001296
      f+3     :     0.001110
      f-3     :     0.001050

  2 C s       :     3.245388  s :     3.245388
      pz      :     0.895874  p :     2.782825
      px      :     0.962568
      py      :     0.924383
      dz2     :     0.020264  d :     0.076519
      dxz     :     0.007557
      dyz     :     0.018401
      dx2y2   :     0.018475
      dxy     :     0.011821
      f0      :     0.001055  f :     0.006965
      f+1     :     0.000888
      f-1     :     0.000965
      f+2     :     0.000819
      f-2     :     0.001443
      f+3     :     0.000895
      f-3     :     0.000900

  3 C s       :     3.178546  s :     3.178546
      pz      :     0.886324  p :     2.871903
      px      :     0.981990
      py      :     1.003589
      dz2     :     0.018918  d :     0.065053
      dxz     :     0.010926
      dyz     :     0.012179
      dx2y2   :     0.007754
      dxy     :     0.015277
      f0      :     0.000938  f :     0.006514
      f+1     :     0.000666
      f-1     :     0.001242
      f+2     :     0.000956
      f-2     :     0.001375
      f+3     :     0.000743
      f-3     :     0.000594

  4 C s       :     3.265739  s :     3.265739
      pz      :     1.013436  p :     2.909375
      px      :     0.966019
      py      :     0.929920
      dz2     :     0.009730  d :     0.055066
      dxz     :     0.008813
      dyz     :     0.009839
      dx2y2   :     0.012198
      dxy     :     0.014487
      f0      :     0.000407  f :     0.006362
      f+1     :     0.000813
      f-1     :     0.001136
      f+2     :     0.000672
      f-2     :     0.001237
      f+3     :     0.001133
      f-3     :     0.000964

  5 C s       :     3.062724  s :     3.062724
      pz      :     0.817891  p :     2.443294
      px      :     0.909819
      py      :     0.715584
      dz2     :     0.045124  d :     0.176831
      dxz     :     0.023835
      dyz     :     0.034279
      dx2y2   :     0.033838
      dxy     :     0.039756
      f0      :     0.001649  f :     0.016847
      f+1     :     0.001038
      f-1     :     0.004209
      f+2     :     0.001886
      f-2     :     0.003506
      f+3     :     0.002733
      f-3     :     0.001826

  6 F s       :     3.920583  s :     3.920583
      pz      :     1.764690  p :     5.263753
      px      :     1.904227
      py      :     1.594836
      dz2     :     0.002212  d :     0.014990
      dxz     :     0.001220
      dyz     :     0.005593
      dx2y2   :     0.003578
      dxy     :     0.002387
      f0      :     0.000078  f :     0.000704
      f+1     :     0.000007
      f-1     :     0.000146
      f+2     :     0.000214
      f-2     :     0.000090
      f+3     :     0.000069
      f-3     :     0.000099

  7 P s       :     5.758510  s :     5.758510
      pz      :     3.342660  p :     8.834776
      px      :     2.738779
      py      :     2.753336
      dz2     :     0.026421  d :     0.259223
      dxz     :     0.046817
      dyz     :     0.057926
      dx2y2   :     0.059342
      dxy     :     0.068717
      f0      :     0.002444  f :     0.025701
      f+1     :     0.002515
      f-1     :     0.003272
      f+2     :     0.004816
      f-2     :     0.005242
      f+3     :     0.003846
      f-3     :     0.003566

  8 C s       :     3.243135  s :     3.243135
      pz      :     0.910348  p :     2.784840
      px      :     0.919512
      py      :     0.954980
      dz2     :     0.020300  d :     0.076803
      dxz     :     0.017572
      dyz     :     0.006178
      dx2y2   :     0.014245
      dxy     :     0.018507
      f0      :     0.000741  f :     0.006970
      f+1     :     0.000915
      f-1     :     0.001190
      f+2     :     0.001106
      f-2     :     0.001297
      f+3     :     0.001005
      f-3     :     0.000715

  9 C s       :     3.189959  s :     3.189959
      pz      :     0.985988  p :     2.864474
      px      :     0.905676
      py      :     0.972809
      dz2     :     0.007230  d :     0.064443
      dxz     :     0.017659
      dyz     :     0.009169
      dx2y2   :     0.012561
      dxy     :     0.017824
      f0      :     0.000406  f :     0.006579
      f+1     :     0.001215
      f-1     :     0.000734
      f+2     :     0.001123
      f-2     :     0.000836
      f+3     :     0.001379
      f-3     :     0.000887

 10 C s       :     3.256246  s :     3.256246
      pz      :     0.950878  p :     2.901679
      px      :     0.995746
      py      :     0.955055
      dz2     :     0.015501  d :     0.054723
      dxz     :     0.007245
      dyz     :     0.009883
      dx2y2   :     0.016068
      dxy     :     0.006025
      f0      :     0.000813  f :     0.006393
      f+1     :     0.000590
      f-1     :     0.001133
      f+2     :     0.001095
      f-2     :     0.001142
      f+3     :     0.000966
      f-3     :     0.000654

 11 C s       :     3.063703  s :     3.063703
      pz      :     0.885245  p :     2.444001
      px      :     0.685939
      py      :     0.872816
      dz2     :     0.032676  d :     0.177113
      dxz     :     0.042547
      dyz     :     0.016238
      dx2y2   :     0.045103
      dxy     :     0.040549
      f0      :     0.001378  f :     0.016860
      f+1     :     0.003159
      f-1     :     0.001470
      f+2     :     0.002013
      f-2     :     0.002882
      f+3     :     0.004145
      f-3     :     0.001814

 12 C s       :     3.261785  s :     3.261785
      pz      :     1.010551  p :     2.911627
      px      :     0.899311
      py      :     1.001765
      dz2     :     0.005972  d :     0.054864
      dxz     :     0.016447
      dyz     :     0.007518
      dx2y2   :     0.009126
      dxy     :     0.015801
      f0      :     0.000468  f :     0.006343
      f+1     :     0.001067
      f-1     :     0.000776
      f+2     :     0.001180
      f-2     :     0.000746
      f+3     :     0.001296
      f-3     :     0.000811

 13 C s       :     3.178470  s :     3.178470
      pz      :     0.905504  p :     2.872264
      px      :     1.036426
      py      :     0.930333
      dz2     :     0.014917  d :     0.065302
      dxz     :     0.015938
      dyz     :     0.007174
      dx2y2   :     0.013644
      dxy     :     0.013629
      f0      :     0.000804  f :     0.006516
      f+1     :     0.000598
      f-1     :     0.001030
      f+2     :     0.001028
      f-2     :     0.001329
      f+3     :     0.001010
      f-3     :     0.000716

 14 F s       :     3.920500  s :     3.920500
      pz      :     1.859231  p :     5.263681
      px      :     1.568740
      py      :     1.835709
      dz2     :     0.001928  d :     0.014990
      dxz     :     0.003819
      dyz     :     0.000979
      dx2y2   :     0.003888
      dxy     :     0.004377
      f0      :     0.000076  f :     0.000704
      f+1     :     0.000098
      f-1     :     0.000023
      f+2     :     0.000096
      f-2     :     0.000105
      f+3     :     0.000118
      f-3     :     0.000189

 15 C s       :     3.239251  s :     3.239251
      pz      :     0.877170  p :     2.786473
      px      :     0.955817
      py      :     0.953486
      dz2     :     0.020051  d :     0.076935
      dxz     :     0.013659
      dyz     :     0.015197
      dx2y2   :     0.013751
      dxy     :     0.014276
      f0      :     0.001024  f :     0.006965
      f+1     :     0.000873
      f-1     :     0.001283
      f+2     :     0.000977
      f-2     :     0.001248
      f+3     :     0.000778
      f-3     :     0.000782

 16 C s       :     3.178629  s :     3.178629
      pz      :     0.902038  p :     2.871220
      px      :     0.943810
      py      :     1.025371
      dz2     :     0.013879  d :     0.065610
      dxz     :     0.011145
      dyz     :     0.017020
      dx2y2   :     0.015909
      dxy     :     0.007656
      f0      :     0.001022  f :     0.006513
      f+1     :     0.000967
      f-1     :     0.000765
      f+2     :     0.001042
      f-2     :     0.001111
      f+3     :     0.000865
      f-3     :     0.000742

 17 C s       :     3.261838  s :     3.261838
      pz      :     1.005801  p :     2.911670
      px      :     0.985182
      py      :     0.920688
      dz2     :     0.007373  d :     0.055149
      dxz     :     0.011673
      dyz     :     0.011498
      dx2y2   :     0.018758
      dxy     :     0.005846
      f0      :     0.000355  f :     0.006347
      f+1     :     0.000927
      f-1     :     0.001030
      f+2     :     0.000783
      f-2     :     0.001124
      f+3     :     0.001122
      f-3     :     0.001005

 18 C s       :     3.063747  s :     3.063747
      pz      :     0.865125  p :     2.442489
      px      :     0.783839
      py      :     0.793524
      dz2     :     0.037319  d :     0.177371
      dxz     :     0.034516
      dyz     :     0.031440
      dx2y2   :     0.045754
      dxy     :     0.028342
      f0      :     0.001476  f :     0.016859
      f+1     :     0.002229
      f-1     :     0.002885
      f+2     :     0.002195
      f-2     :     0.002588
      f+3     :     0.003135
      f-3     :     0.002349

 19 C s       :     3.253524  s :     3.253524
      pz      :     0.928983  p :     2.903086
      px      :     0.961984
      py      :     1.012118
      dz2     :     0.016737  d :     0.055112
      dxz     :     0.009176
      dyz     :     0.009473
      dx2y2   :     0.011847
      dxy     :     0.007878
      f0      :     0.001032  f :     0.006388
      f+1     :     0.001052
      f-1     :     0.000682
      f+2     :     0.000978
      f-2     :     0.001067
      f+3     :     0.000870
      f-3     :     0.000707

 20 C s       :     3.192037  s :     3.192037
      pz      :     1.001091  p :     2.864837
      px      :     0.936115
      py      :     0.927631
      dz2     :     0.010907  d :     0.064816
      dxz     :     0.011173
      dyz     :     0.012055
      dx2y2   :     0.020641
      dxy     :     0.010039
      f0      :     0.000334  f :     0.006587
      f+1     :     0.000899
      f-1     :     0.001209
      f+2     :     0.000821
      f-2     :     0.001062
      f+3     :     0.001171
      f-3     :     0.001091

 21 F s       :     3.920531  s :     3.920531
      pz      :     1.856258  p :     5.263818
      px      :     1.679411
      py      :     1.728149
      dz2     :     0.001910  d :     0.014990
      dxz     :     0.002591
      dyz     :     0.002453
      dx2y2   :     0.003139
      dxy     :     0.004897
      f0      :     0.000080  f :     0.000704
      f+1     :     0.000064
      f-1     :     0.000053
      f+2     :     0.000044
      f-2     :     0.000178
      f+3     :     0.000130
      f-3     :     0.000155

 22 H s       :     0.819425  s :     0.819425
      pz      :     0.003479  p :     0.019967
      px      :     0.008038
      py      :     0.008451

 23 H s       :     0.816258  s :     0.816258
      pz      :     0.010302  p :     0.020026
      px      :     0.006568
      py      :     0.003155

 24 H s       :     0.788677  s :     0.788677
      pz      :     0.003615  p :     0.020697
      px      :     0.008318
      py      :     0.008765

 25 H s       :     0.819382  s :     0.819382
      pz      :     0.010248  p :     0.019956
      px      :     0.006625
      py      :     0.003083

 26 H s       :     0.816689  s :     0.816689
      pz      :     0.008784  p :     0.020041
      px      :     0.002726
      py      :     0.008530

 27 H s       :     0.819564  s :     0.819564
      pz      :     0.004708  p :     0.019985
      px      :     0.011109
      py      :     0.004168

 28 H s       :     0.819441  s :     0.819441
      pz      :     0.008664  p :     0.019973
      px      :     0.002506
      py      :     0.008803

 29 H s       :     0.789424  s :     0.789424
      pz      :     0.004744  p :     0.020683
      px      :     0.011648
      py      :     0.004291

 30 H s       :     0.790552  s :     0.790552
      pz      :     0.005686  p :     0.020705
      px      :     0.004044
      py      :     0.010975

 31 H s       :     0.819830  s :     0.819830
      pz      :     0.011121  p :     0.020003
      px      :     0.005703
      py      :     0.003180

 32 H s       :     0.819649  s :     0.819649
      pz      :     0.005458  p :     0.020003
      px      :     0.004005
      py      :     0.010540

 33 H s       :     0.816304  s :     0.816304
      pz      :     0.011317  p :     0.020045
      px      :     0.005412
      py      :     0.003316



                     *******************************
                     * LOEWDIN POPULATION ANALYSIS *
                     *******************************

----------------------
LOEWDIN ATOMIC CHARGES
----------------------
   0 C :   -0.120319
   1 C :   -0.133085
   2 C :   -0.283989
   3 C :   -0.129768
   4 C :   -0.120187
   5 C :   -0.249207
   6 F :    0.175888
   7 P :    0.698260
   8 C :   -0.284297
   9 C :   -0.132917
  10 C :   -0.120241
  11 C :   -0.249203
  12 C :   -0.120257
  13 C :   -0.129980
  14 F :    0.175826
  15 C :   -0.284177
  16 C :   -0.129893
  17 C :   -0.120176
  18 C :   -0.249220
  19 C :   -0.120346
  20 C :   -0.132972
  21 F :    0.175719
  22 H :    0.156946
  23 H :    0.153948
  24 H :    0.160355
  25 H :    0.156977
  26 H :    0.153958
  27 H :    0.157001
  28 H :    0.156969
  29 H :    0.160267
  30 H :    0.160162
  31 H :    0.156944
  32 H :    0.156979
  33 H :    0.154033

-------------------------------
LOEWDIN REDUCED ORBITAL CHARGES
-------------------------------
  0 C s       :     2.775834  s :     2.775834
      pz      :     0.998462  p :     2.952576
      px      :     0.955710
      py      :     0.998404
      dz2     :     0.093801  d :     0.351691
      dxz     :     0.061457
      dyz     :     0.075927
      dx2y2   :     0.041037
      dxy     :     0.079469
      f0      :     0.005193  f :     0.040218
      f+1     :     0.005519
      f-1     :     0.008227
      f+2     :     0.006560
      f-2     :     0.006286
      f+3     :     0.004967
      f-3     :     0.003465

  1 C s       :     2.776419  s :     2.776419
      pz      :     0.964690  p :     2.929313
      px      :     0.948425
      py      :     1.016198
      dz2     :     0.065306  d :     0.386419
      dxz     :     0.072284
      dyz     :     0.074199
      dx2y2   :     0.093150
      dxy     :     0.081480
      f0      :     0.003502  f :     0.040934
      f+1     :     0.003614
      f-1     :     0.008633
      f+2     :     0.005206
      f-2     :     0.006977
      f+3     :     0.007912
      f-3     :     0.005090

  2 C s       :     2.778766  s :     2.778766
      pz      :     1.023119  p :     3.008315
      px      :     0.979506
      py      :     1.005691
      dz2     :     0.093759  d :     0.452159
      dxz     :     0.076954
      dyz     :     0.120166
      dx2y2   :     0.089582
      dxy     :     0.071698
      f0      :     0.006675  f :     0.044749
      f+1     :     0.005398
      f-1     :     0.008269
      f+2     :     0.004689
      f-2     :     0.007943
      f+3     :     0.006157
      f-3     :     0.005619

  3 C s       :     2.775649  s :     2.775649
      pz      :     0.992421  p :     2.927966
      px      :     0.946159
      py      :     0.989385
      dz2     :     0.098353  d :     0.385280
      dxz     :     0.061454
      dyz     :     0.095272
      dx2y2   :     0.043339
      dxy     :     0.086861
      f0      :     0.005242  f :     0.040873
      f+1     :     0.004885
      f-1     :     0.008705
      f+2     :     0.006346
      f-2     :     0.006955
      f+3     :     0.004993
      f-3     :     0.003747

  4 C s       :     2.775993  s :     2.775993
      pz      :     0.972619  p :     2.951847
      px      :     0.961257
      py      :     1.017971
      dz2     :     0.060221  d :     0.352194
      dxz     :     0.061571
      dyz     :     0.070693
      dx2y2   :     0.077873
      dxy     :     0.081836
      f0      :     0.003382  f :     0.040153
      f+1     :     0.003599
      f-1     :     0.008152
      f+2     :     0.005013
      f-2     :     0.006831
      f+3     :     0.007881
      f-3     :     0.005294

  5 C s       :     2.737018  s :     2.737018
      pz      :     0.916525  p :     2.717138
      px      :     0.984842
      py      :     0.815771
      dz2     :     0.136205  d :     0.684852
      dxz     :     0.103646
      dyz     :     0.173771
      dx2y2   :     0.143639
      dxy     :     0.127590
      f0      :     0.012239  f :     0.110199
      f+1     :     0.006721
      f-1     :     0.025332
      f+2     :     0.017924
      f-2     :     0.018971
      f+3     :     0.016162
      f-3     :     0.012850

  6 F s       :     3.594173  s :     3.594173
      pz      :     1.739077  p :     5.198327
      px      :     1.830465
      py      :     1.628785
      dz2     :     0.005054  d :     0.030193
      dxz     :     0.002634
      dyz     :     0.010327
      dx2y2   :     0.006777
      dxy     :     0.005401
      f0      :     0.000136  f :     0.001418
      f+1     :     0.000013
      f-1     :     0.000354
      f+2     :     0.000337
      f-2     :     0.000222
      f+3     :     0.000176
      f-3     :     0.000180

  7 P s       :     4.928804  s :     4.928804
      pz      :     3.293274  p :     8.779346
      px      :     2.736482
      py      :     2.749590
      dz2     :     0.072057  d :     0.497441
      dxz     :     0.077109
      dyz     :     0.099530
      dx2y2   :     0.116112
      dxy     :     0.132633
      f0      :     0.007545  f :     0.096149
      f+1     :     0.007922
      f-1     :     0.012055
      f+2     :     0.017166
      f-2     :     0.020540
      f+3     :     0.014972
      f-3     :     0.015950

  8 C s       :     2.778591  s :     2.778591
      pz      :     0.989469  p :     3.008503
      px      :     1.039900
      py      :     0.979135
      dz2     :     0.079550  d :     0.452425
      dxz     :     0.116396
      dyz     :     0.063544
      dx2y2   :     0.089463
      dxy     :     0.103471
      f0      :     0.004927  f :     0.044778
      f+1     :     0.007008
      f-1     :     0.004768
      f+2     :     0.005469
      f-2     :     0.009245
      f+3     :     0.008079
      f-3     :     0.005282

  9 C s       :     2.776300  s :     2.776300
      pz      :     0.937336  p :     2.929205
      px      :     1.061508
      py      :     0.930361
      dz2     :     0.044896  d :     0.386463
      dxz     :     0.090893
      dyz     :     0.051391
      dx2y2   :     0.108222
      dxy     :     0.091061
      f0      :     0.002753  f :     0.040949
      f+1     :     0.009175
      f-1     :     0.001942
      f+2     :     0.004434
      f-2     :     0.007266
      f+3     :     0.010102
      f-3     :     0.005276

 10 C s       :     2.775805  s :     2.775805
      pz      :     0.967207  p :     2.952455
      px      :     1.015595
      py      :     0.969653
      dz2     :     0.063996  d :     0.351749
      dxz     :     0.076216
      dyz     :     0.053892
      dx2y2   :     0.087085
      dxy     :     0.070561
      f0      :     0.005317  f :     0.040232
      f+1     :     0.004910
      f-1     :     0.005181
      f+2     :     0.005221
      f-2     :     0.007270
      f+3     :     0.007272
      f-3     :     0.005061

 11 C s       :     2.737021  s :     2.737021
      pz      :     0.946578  p :     2.717229
      px      :     0.840550
      py      :     0.930101
      dz2     :     0.114152  d :     0.684782
      dxz     :     0.163840
      dyz     :     0.075569
      dx2y2   :     0.162001
      dxy     :     0.169219
      f0      :     0.010220  f :     0.110171
      f+1     :     0.020101
      f-1     :     0.006041
      f+2     :     0.011448
      f-2     :     0.020264
      f+3     :     0.025198
      f-3     :     0.016899

 12 C s       :     2.775967  s :     2.775967
      pz      :     0.952168  p :     2.951950
      px      :     1.046011
      py      :     0.953771
      dz2     :     0.038714  d :     0.352195
      dxz     :     0.085831
      dyz     :     0.047318
      dx2y2   :     0.094301
      dxy     :     0.086032
      f0      :     0.003022  f :     0.040145
      f+1     :     0.008521
      f-1     :     0.001936
      f+2     :     0.004580
      f-2     :     0.006928
      f+3     :     0.009611
      f-3     :     0.005547

 13 C s       :     2.775645  s :     2.775645
      pz      :     0.952058  p :     2.928177
      px      :     1.013425
      py      :     0.962693
      dz2     :     0.065628  d :     0.385278
      dxz     :     0.093829
      dyz     :     0.052288
      dx2y2   :     0.084337
      dxy     :     0.089196
      f0      :     0.005279  f :     0.040880
      f+1     :     0.005082
      f-1     :     0.004666
      f+2     :     0.004780
      f-2     :     0.008137
      f+3     :     0.007763
      f-3     :     0.005173

 14 F s       :     3.594234  s :     3.594234
      pz      :     1.801183  p :     5.198330
      px      :     1.611077
      py      :     1.786069
      dz2     :     0.003904  d :     0.030192
      dxz     :     0.007660
      dyz     :     0.002118
      dx2y2   :     0.008005
      dxy     :     0.008506
      f0      :     0.000130  f :     0.001417
      f+1     :     0.000230
      f-1     :     0.000052
      f+2     :     0.000182
      f-2     :     0.000210
      f+3     :     0.000302
      f-3     :     0.000311

 15 C s       :     2.778639  s :     2.778639
      pz      :     1.037165  p :     3.008450
      px      :     0.966939
      py      :     1.004346
      dz2     :     0.102749  d :     0.452328
      dxz     :     0.087815
      dyz     :     0.120946
      dx2y2   :     0.059722
      dxy     :     0.081097
      f0      :     0.005931  f :     0.044760
      f+1     :     0.006313
      f-1     :     0.010327
      f+2     :     0.006833
      f-2     :     0.006060
      f+3     :     0.005212
      f-3     :     0.004084

 16 C s       :     2.775586  s :     2.775586
      pz      :     0.994599  p :     2.928191
      px      :     0.962479
      py      :     0.971113
      dz2     :     0.077595  d :     0.385240
      dxz     :     0.082894
      dyz     :     0.099830
      dx2y2   :     0.074689
      dxy     :     0.050232
      f0      :     0.006525  f :     0.040876
      f+1     :     0.006686
      f-1     :     0.006800
      f+2     :     0.005317
      f-2     :     0.005593
      f+3     :     0.005518
      f-3     :     0.004436

 17 C s       :     2.775949  s :     2.775949
      pz      :     0.973578  p :     2.951823
      px      :     0.971376
      py      :     1.006869
      dz2     :     0.064834  d :     0.352255
      dxz     :     0.063968
      dyz     :     0.070547
      dx2y2   :     0.082821
      dxy     :     0.070086
      f0      :     0.002681  f :     0.040150
      f+1     :     0.004790
      f-1     :     0.007983
      f+2     :     0.006528
      f-2     :     0.005932
      f+3     :     0.007507
      f-3     :     0.004730

 18 C s       :     2.736966  s :     2.736966
      pz      :     0.997032  p :     2.717336
      px      :     0.817053
      py      :     0.903251
      dz2     :     0.138631  d :     0.684764
      dxz     :     0.122901
      dyz     :     0.146832
      dx2y2   :     0.133822
      dxy     :     0.142577
      f0      :     0.011254  f :     0.110155
      f+1     :     0.013253
      f-1     :     0.019910
      f+2     :     0.013799
      f-2     :     0.017276
      f+3     :     0.019189
      f-3     :     0.015474

 19 C s       :     2.775749  s :     2.775749
      pz      :     0.994753  p :     2.952501
      px      :     0.976976
      py      :     0.980773
      dz2     :     0.078804  d :     0.351858
      dxz     :     0.074966
      dyz     :     0.082711
      dx2y2   :     0.064366
      dxy     :     0.051010
      f0      :     0.006759  f :     0.040237
      f+1     :     0.006978
      f-1     :     0.006318
      f+2     :     0.004788
      f-2     :     0.005703
      f+3     :     0.005434
      f-3     :     0.004257

 20 C s       :     2.776269  s :     2.776269
      pz      :     0.969430  p :     2.929268
      px      :     0.948076
      py      :     1.011762
      dz2     :     0.078418  d :     0.386482
      dxz     :     0.062544
      dyz     :     0.073730
      dx2y2   :     0.086771
      dxy     :     0.085020
      f0      :     0.002580  f :     0.040953
      f+1     :     0.004843
      f-1     :     0.008856
      f+2     :     0.006381
      f-2     :     0.005971
      f+3     :     0.007709
      f-3     :     0.004613

 21 F s       :     3.594297  s :     3.594297
      pz      :     1.798392  p :     5.198376
      px      :     1.684590
      py      :     1.715394
      dz2     :     0.004007  d :     0.030191
      dxz     :     0.005384
      dyz     :     0.004825
      dx2y2   :     0.006917
      dxy     :     0.009057
      f0      :     0.000129  f :     0.001417
      f+1     :     0.000161
      f-1     :     0.000135
      f+2     :     0.000112
      f-2     :     0.000309
      f+3     :     0.000284
      f-3     :     0.000286

 22 H s       :     0.785843  s :     0.785843
      pz      :     0.011833  p :     0.057212
      px      :     0.022297
      py      :     0.023081

 23 H s       :     0.789801  s :     0.789801
      pz      :     0.027034  p :     0.056251
      px      :     0.018748
      py      :     0.010468

 24 H s       :     0.781159  s :     0.781159
      pz      :     0.011761  p :     0.058486
      px      :     0.022718
      py      :     0.024007

 25 H s       :     0.785819  s :     0.785819
      pz      :     0.027376  p :     0.057203
      px      :     0.019079
      py      :     0.010748

 26 H s       :     0.789785  s :     0.789785
      pz      :     0.023468  p :     0.056257
      px      :     0.009503
      py      :     0.023286

 27 H s       :     0.785797  s :     0.785797
      pz      :     0.014641  p :     0.057202
      px      :     0.029252
      py      :     0.013309

 28 H s       :     0.785825  s :     0.785825
      pz      :     0.023702  p :     0.057207
      px      :     0.009538
      py      :     0.023967

 29 H s       :     0.781284  s :     0.781284
      pz      :     0.014523  p :     0.058449
      px      :     0.030630
      py      :     0.013296

 30 H s       :     0.781395  s :     0.781395
      pz      :     0.016800  p :     0.058443
      px      :     0.012789
      py      :     0.028854

 31 H s       :     0.785862  s :     0.785862
      pz      :     0.029442  p :     0.057194
      px      :     0.016642
      py      :     0.011110

 32 H s       :     0.785821  s :     0.785821
      pz      :     0.016513  p :     0.057200
      px      :     0.012751
      py      :     0.027935

 33 H s       :     0.789723  s :     0.789723
      pz      :     0.029418  p :     0.056244
      px      :     0.015832
      py      :     0.010994



                      *****************************
                      * MAYER POPULATION ANALYSIS *
                      *****************************

  NA   - Mulliken gross atomic population
  ZA   - Total nuclear charge
  QA   - Mulliken gross atomic charge
  VA   - Mayer's total valence
  BVA  - Mayer's bonded valence
  FA   - Mayer's free valence

  ATOM       NA         ZA         QA         VA         BVA        FA
  0 C      6.2180     6.0000    -0.2180     3.9076     3.9076     0.0000
  1 C      6.1281     6.0000    -0.1281     3.8622     3.8622     0.0000
  2 C      6.1117     6.0000    -0.1117     3.8384     3.8384    -0.0000
  3 C      6.1220     6.0000    -0.1220     3.7450     3.7450    -0.0000
  4 C      6.2365     6.0000    -0.2365     3.9345     3.9345    -0.0000
  5 C      5.6997     6.0000     0.3003     3.9813     3.9813     0.0000
  6 F      9.2000     9.0000    -0.2000     1.0574     1.0574    -0.0000
  7 P     14.8782    15.0000     0.1218     3.0799     3.0799    -0.0000
  8 C      6.1117     6.0000    -0.1117     3.8401     3.8401    -0.0000
  9 C      6.1255     6.0000    -0.1255     3.8620     3.8620    -0.0000
 10 C      6.2190     6.0000    -0.2190     3.9080     3.9080     0.0000
 11 C      5.7017     6.0000     0.2983     3.9832     3.9832    -0.0000
 12 C      6.2346     6.0000    -0.2346     3.9371     3.9371    -0.0000
 13 C      6.1226     6.0000    -0.1226     3.7456     3.7456     0.0000
 14 F      9.1999     9.0000    -0.1999     1.0578     1.0578    -0.0000
 15 C      6.1096     6.0000    -0.1096     3.8408     3.8408    -0.0000
 16 C      6.1220     6.0000    -0.1220     3.7510     3.7510     0.0000
 17 C      6.2350     6.0000    -0.2350     3.9349     3.9349    -0.0000
 18 C      5.7005     6.0000     0.2995     3.9810     3.9810    -0.0000
 19 C      6.2181     6.0000    -0.2181     3.9090     3.9090    -0.0000
 20 C      6.1283     6.0000    -0.1283     3.8629     3.8629    -0.0000
 21 F      9.2000     9.0000    -0.2000     1.0578     1.0578    -0.0000
 22 H      0.8394     1.0000     0.1606     0.9672     0.9672     0.0000
 23 H      0.8363     1.0000     0.1637     0.9666     0.9666    -0.0000
 24 H      0.8094     1.0000     0.1906     0.9466     0.9466    -0.0000
 25 H      0.8393     1.0000     0.1607     0.9682     0.9682    -0.0000
 26 H      0.8367     1.0000     0.1633     0.9670     0.9670    -0.0000
 27 H      0.8395     1.0000     0.1605     0.9671     0.9671    -0.0000
 28 H      0.8394     1.0000     0.1606     0.9682     0.9682    -0.0000
 29 H      0.8101     1.0000     0.1899     0.9471     0.9471     0.0000
 30 H      0.8113     1.0000     0.1887     0.9473     0.9473     0.0000
 31 H      0.8398     1.0000     0.1602     0.9682     0.9682     0.0000
 32 H      0.8397     1.0000     0.1603     0.9671     0.9671     0.0000
 33 H      0.8363     1.0000     0.1637     0.9666     0.9666     0.0000

  Mayer bond orders larger than 0.100000
B(  0-C ,  1-C ) :   1.4027 B(  0-C ,  5-C ) :   1.4278 B(  0-C , 22-H ) :   0.9483 
B(  1-C ,  2-C ) :   1.3976 B(  1-C , 23-H ) :   0.9261 B(  2-C ,  3-C ) :   1.3275 
B(  2-C ,  7-P ) :   0.9290 B(  3-C ,  4-C ) :   1.4006 B(  3-C , 24-H ) :   0.9191 
B(  4-C ,  5-C ) :   1.4365 B(  4-C , 25-H ) :   0.9456 B(  5-C ,  6-F ) :   0.9981 
B(  7-P ,  8-C ) :   0.9281 B(  7-P , 15-C ) :   0.9283 B(  8-C ,  9-C ) :   1.3994 
B(  8-C , 13-C ) :   1.3274 B(  9-C , 10-C ) :   1.4027 B(  9-C , 26-H ) :   0.9257 
B( 10-C , 11-C ) :   1.4269 B( 10-C , 27-H ) :   0.9489 B( 11-C , 12-C ) :   1.4394 
B( 11-C , 14-F ) :   0.9987 B( 12-C , 13-C ) :   1.4012 B( 12-C , 28-H ) :   0.9449 
B( 13-C , 29-H ) :   0.9197 B( 15-C , 16-C ) :   1.3317 B( 15-C , 20-C ) :   1.3971 
B( 16-C , 17-C ) :   1.4003 B( 16-C , 30-H ) :   0.9203 B( 17-C , 18-C ) :   1.4374 
B( 17-C , 31-H ) :   0.9458 B( 18-C , 19-C ) :   1.4271 B( 18-C , 21-F ) :   0.9983 
B( 19-C , 20-C ) :   1.4035 B( 19-C , 32-H ) :   0.9486 B( 20-C , 33-H ) :   0.9264 


-------
TIMINGS
-------

Total SCF time: 0 days 0 hours 2 min 2 sec 

Total time                  ....     122.347 sec
Sum of individual times     ....     122.411 sec  (100.1%)

SCF preparation             ....       0.271 sec  (  0.2%)
Fock matrix formation       ....     118.058 sec  ( 96.5%)
  Startup                   ....       0.141 sec  (  0.1% of F)
  Split-RI-J                ....       8.754 sec  (  7.4% of F)
  Chain of spheres X        ....      84.385 sec  ( 71.5% of F)
  XC integration            ....      24.430 sec  ( 20.7% of F)
    Basis function eval.    ....       3.407 sec  ( 13.9% of XC)
    Density eval.           ....       9.816 sec  ( 40.2% of XC)
    XC-Functional eval.     ....       0.438 sec  (  1.8% of XC)
    XC-Potential eval.      ....       9.139 sec  ( 37.4% of XC)
Diagonalization             ....       0.000 sec  (  0.0%)
Density matrix formation    ....       0.373 sec  (  0.3%)
Total Energy calculation    ....       0.126 sec  (  0.1%)
Population analysis         ....       0.211 sec  (  0.2%)
Orbital Transformation      ....       0.476 sec  (  0.4%)
Orbital Orthonormalization  ....       0.000 sec  (  0.0%)
DIIS solution               ....       2.005 sec  (  1.6%)
SOSCF solution              ....       0.891 sec  (  0.7%)
Finished LeanSCF after 122.4 sec

Maximum memory used throughout the entire LEANSCF-calculation: 104.0 MB


-------------------------------------------------------------------------------
                          DFT DISPERSION CORRECTION                            
                                                                               
                              DFTD3 V3.1  Rev 1                                
                              USING zero damping                               
-------------------------------------------------------------------------------
The M062X functional is recognized
Active option DFTDOPT                   ...         3   

molecular C6(AA) [au] = 17161.873869 


            DFT-D V3
 parameters
 s6 scaling factor         :     1.0000 
 rs6 scaling factor        :     1.6190 
 s8 scaling factor         :     0.0000 
 rs8 scaling factor        :     1.0000 
 Damping factor alpha6     :    14.0000 
 Damping factor alpha8     :    16.0000 
 ad hoc parameters k1-k3   :    16.0000     1.3333    -4.0000 

 Edisp/kcal,au: -1.305487147503  -0.002080425973 
 E6   /kcal   :  -1.305487148 
 E8   /kcal   :  -0.000000000 
 % E8         :   0.000000000 

-------------------------   ----------------
Dispersion correction           -0.002080426
-------------------------   ----------------


-------------------------   --------------------
FINAL SINGLE POINT ENERGY     -1334.003286209701
-------------------------   --------------------



           ************************************************************
           *        Program running with 6 parallel MPI-processes     *
           *              working on a common directory               *
           ************************************************************

------------------------------------------------------------------------------
                              ORCA PROPERTY CALCULATIONS
------------------------------------------------------------------------------

GBWName                                 ... data/single_point_P_M06-2x/140387/140387.gbw
Number of atoms                         ...     34
Number of basis functions               ...    760
Max core memory                         ...   1024 MB

Electric properties:
Dipole moment                           ... YES
Quadrupole moment                       ...  NO
Static polarizability (Dipole/Dipole)   ...  NO
Static polarizability (Dipole/Quad.)    ...  NO
Static polarizability (Quad./Quad.)     ...  NO
Static polarizability (Velocity)        ...  NO

Atomic electric properties:
Dipole moment                           ...  NO
Quadrupole moment                       ...  NO
Static polarizability                   ...  NO

Choice of electric origin               ... Center of mass
Position of electric origin             ...     0.001135    -0.001300     0.011065

General magnetic properties:
Magnetizability                         ...  NO

EPR properties:
g-Tensor (aka g-matrix)                 ...  NO
Zero-Field splitting spin-orbit         ...  NO
Zero-field splitting spin-spin          ...  NO
Hyperfine couplings                     ...  NO (   0 nuclei)
Quadrupole couplings                    ...  NO (   0 nuclei)
Contact density                         ...  NO (   0 nuclei)

NMR properties:
Chemical shifts                         ...  NO (   0 nuclei)
Spin-rotation constants                 ...  NO (   0 nuclei)
Spin-spin couplings                     ...  NO (   0 nuclei,    0 pairs)

Choice of magnetic origin               ... GIAO
Position of magnetic origin             ...     0.000000     0.000000     0.000000

Properties with geometric perturbations:
SCF Hessian                             ...  NO
IR spectrum                             ...  NO
VCD spectrum                            ...  NO
X-ray spectroscopy properties:
SCF XES/XAS/RIXS spectra                ...  NO


-------------
DIPOLE MOMENT
-------------

Method             : SCF
Type of density    : Electron Density
Multiplicity       :   1
Irrep              :   0
Energy             : -1334.0012057837275279 Eh
Relativity type    : 
Basis              : AO
                                X                 Y                 Z
Electronic contribution:      0.128135872      -0.333556419       2.139045275
Nuclear contribution   :     -0.138333940       0.363649834      -2.332514991
                        -----------------------------------------
Total Dipole Moment    :     -0.010198068       0.030093416      -0.193469715
                        -----------------------------------------
Magnitude (a.u.)       :      0.196061585
Magnitude (Debye)      :      0.498348944



--------------------
Rotational spectrum 
--------------------
 
Rotational constants in cm-1:             0.007373             0.007331             0.004245 
Rotational constants in MHz :           221.042361           219.767445           127.259250 

Dipole components along the rotational axes: 
x,y,z [a.u.] :    -0.001137    -0.000273    -0.196058 
x,y,z [Debye]:    -0.002890    -0.000693    -0.498340 

 

Dipole moment calculation done in   0.0 sec 

Maximum memory used throughout the entire PROP-calculation: 56.9 MB

--------------------------------
SUGGESTED CITATIONS FOR THIS RUN
--------------------------------

Below you find a list of papers that are relevant to this ORCA run
We neither can nor want to force you to cite these papers, but we appreciate if you do
You receive ORCA, which is the product of decades of hard work by many enthusiastic individuals, for free
The only thing we kindly ask in return is that you cite our papers,
We deeply appreciate it, if you show your appreciation for ORCA by not just citing the generic ORCA reference.

Please note that relegating all ORCA citations to the supporting information does *not* help us.
SI sections are not indexed - citations you put there will not count into any citation statistics
But we need these citations in order to attract the funding resources that allow us to do what we are doing

Therefore, if you are a happy ORCA user, please consider citing a few of the papers listed below in the main body of your paper

In addition to the list printed below, the program has created the file data/single_point_P_M06-2x/140387/140387.bibtex that contains the list in bibtex format
You can import this file easily into all common literature databanks and citation aid programs


List of essential papers. We consider these as the minimum necessary citations

  1. Neese,F.
     Software update: the ORCA program system, version 5.0
     WIRES Comput. Molec. Sci., 2022 12(1)e1606
     doi.org/10.1002/wcms.1606

List of papers to cite with high priority. The work reported in these papers was absolutely
necessary for this run to complete.
Our perspective: the developers of density functionals and basis sets usually get cited in chemistry papers
Good! But without the algorithms to do something with them, the functionals or basis sets would not do anything.
Hence, in our opinion, the algorithm design and method developments papers are equally worthy of getting cited

  1. Neese,F.
     An improvement of the resolution of the identity approximation for the formation of the Coulomb matrix
     J. Comp. Chem., 2003 24(14)1740-1747
     doi.org/10.1002/jcc.10318
  2. Neese,F.; Wennmohs,F.; Hansen,A.; Becker,U.
     Efficient, approximate and parallel Hartree-Fock and hybrid DFT calculations. A 'chain-of-spheres' algorithm for the Hartree-Fock exchange
     Chem. Phys., 2009 356(1-3)98-109
     doi.org/10.1016/j.chemphys.2008.10.036
  3. Helmich-Paris,B.; de Souza,B.; Neese,F.; Izsák,R.
     An improved chain of spheres for exchange algorithm
     J. Chem. Phys., 2021 155 104109
     doi.org/doi: 10.1063/5.0058766.
  4. Neese,F.
     The SHARK Integral Generation and Digestion System
     J. Comp. Chem., 2022  1-16
     doi.org/10.1002/jcc.26942
  5. Grimme,S.; Antony,J.; Ehrlich,S.; Krieg,H.
     A consistent and accurate ab initio parametrization of density functional dispersion correction (DFT-D) for the 94 elements H-Pu
     J. Chem. Phys., 2010 132 154104-XXXX
     doi.org/10.1063/1.3382344

List of suggested additional citations. These are papers that are important in the 'surrounding' of 
of this run, or papers that preceded the highly important papers. If you like your results we are grateful for a citation.

  1. Izsak,R.; Neese,F.
     An overlap fitted chain of spheres exchange method
     J. Chem. Phys., 2011 135 144105
     doi.org/10.1063/1.3646921
  2. Izsak,R.; Hansen,A.; Neese,F.
     The resolution of identity and chain of spheres approximations for the LPNO-CCSD singles Fock term
     Molec. Phys., 2012 110 2413-2417
     doi.org/10.1080/00268976.2012.687466
  3. Neese,F.
     The ORCA program system
     WIRES Comput. Molec. Sci., 2012 2(1)73-78
     doi.org/10.1002/wcms.81
  4. Izsak,R.; Neese,F.; Klopper,W.
     Robust fitting techniques in the chain of spheres approximation to the Fock exchange: The role of the complementary space
     J. Chem. Phys., 2013 139 
     doi.org/10.1063/1.4819264
  5. Neese,F.
     Software update: the ORCA program system, version 4.0
     WIRES Comput. Molec. Sci., 2018 8(1)1-6
     doi.org/10.1002/wcms.1327
  6. Neese,F.; Wennmohs,F.; Becker,U.; Riplinger,C.
     The ORCA quantum chemistry program package
     J. Chem. Phys., 2020 152 Art. No. L224108
     doi.org/10.1063/5.0004608

List of optional additional citations

  1. Neese,F.
     Approximate second-order SCF convergence for spin unrestricted wavefunctions
     Chem. Phys. Lett., 2000 325(1-3)93-98
     doi.org/10.1016/s0009-2614(00)00662-x

Timings for individual modules:

Sum of individual times          ...      128.706 sec (=   2.145 min)
Startup calculation              ...        4.029 sec (=   0.067 min)   3.1 %
SCF iterations                   ...      124.366 sec (=   2.073 min)  96.6 %
Property calculations            ...        0.311 sec (=   0.005 min)   0.2 %
                             ****ORCA TERMINATED NORMALLY****
TOTAL RUN TIME: 0 days 0 hours 2 minutes 8 seconds 980 msec
