
                                 *****************
                                 * O   R   C   A *
                                 *****************

                                            #,                                       
                                            ###                                      
                                            ####                                     
                                            #####                                    
                                            ######                                   
                                           ########,                                 
                                     ,,################,,,,,                         
                               ,,#################################,,                 
                          ,,##########################################,,             
                       ,#########################################, ''#####,          
                    ,#############################################,,   '####,        
                  ,##################################################,,,,####,       
                ,###########''''           ''''###############################       
              ,#####''   ,,,,##########,,,,          '''####'''          '####       
            ,##' ,,,,###########################,,,                        '##       
           ' ,,###''''                  '''############,,,                           
         ,,##''                                '''############,,,,        ,,,,,,###''
      ,#''                                            '''#######################'''  
     '                                                          ''''####''''         
             ,#######,   #######,   ,#######,      ##                                
            ,#'     '#,  ##    ##  ,#'     '#,    #''#        ,####,   ,####,        
            ##       ##  ##   ,#'  ##            #'  '#       #'       #'  '#        
            ##       ##  #######   ##           ,######,      #####,   #    #        
            '#,     ,#'  ##    ##  '#,     ,#' ,#      #,     #,   #   #,  ,#        
             '#######'   ##     ##  '#######'  #'      '#     '####' # '####'        



                #########################################################
                #                        -***-                          #
                #          Department of theory and spectroscopy        #
                #                                                       #
                #                      Frank Neese                      #
                #                                                       #
                #     Directorship, Architecture, Infrastructure        #
                #                    SHARK, DRIVERS                     #
                #        Core code/Algorithms in most modules           #
                #                                                       #
                #        Max Planck Institute fuer Kohlenforschung      #
                #                Kaiser Wilhelm Platz 1                 #
                #                 D-45470 Muelheim/Ruhr                 #
                #                      Germany                          #
                #                                                       #
                #                  All rights reserved                  #
                #                        -***-                          #
                #########################################################


                         Program Version 6.0.0  -   RELEASE   -


 With contributions from (in alphabetic order):
   Daniel Aravena         : Magnetic Suceptibility
   Michael Atanasov       : Ab Initio Ligand Field Theory (pilot matlab implementation)
   Alexander A. Auer      : GIAO ZORA, VPT2 properties, NMR spectrum
   Ute Becker             : All parallelization in ORCA, NUMFREQ, NUMCALC
   Giovanni Bistoni       : ED, misc. LED, open-shell LED, HFLD
   Martin Brehm           : Molecular dynamics
   Dmytro Bykov           : pre 5.0 version of the SCF Hessian
   Marcos Casanova-Páez   : Triplet and SCS-CIS(D). UHF-(DLPNO)-IP/EA/STEOM-CCSD. UHF-CVS-IP/STEOM-CCSD
   Vijay G. Chilkuri      : MRCI spin determinant printing, contributions to CSF-ICE
   Pauline Colinet        : FMM embedding
   Dipayan Datta          : RHF DLPNO-CCSD density
   Achintya Kumar Dutta   : EOM-CC, STEOM-CC
   Nicolas Foglia         : Exact transition moments, OPA infrastructure, MCD improvements
   Dmitry Ganyushin       : Spin-Orbit,Spin-Spin,Magnetic field MRCI
   Miquel Garcia          : C-PCM and meta-GGA Hessian, CCSD/C-PCM, Gaussian charge scheme
   Tiago L. C. Gouveia    : GS-ROHF, GS-ROCIS
   Yang Guo               : DLPNO-NEVPT2, F12-NEVPT2, CIM, IAO-localization
   Andreas Hansen         : Spin unrestricted coupled pair/coupled cluster methods
   Ingolf Harden          : AUTO-CI MPn and infrastructure 
   Benjamin Helmich-Paris : MC-RPA, TRAH-(SCF,CASSCF), AVAS, COSX integrals, SCF dyn. polar.
   Lee Huntington         : MR-EOM, pCC
   Robert Izsak           : Overlap fitted RIJCOSX, COSX-SCS-MP3, EOM
   Riya Kayal             : Wick's Theorem for AUTO-CI, AUTO-CI UHF-CCSDT
   Emily Kempfer          : AUTO-CI, RHF CISDT and CCSDT
   Christian Kollmar      : KDIIS, OOCD, Brueckner-CCSD(T), CCSD density, CASPT2, CASPT2-K, improved NEVPT2
   Axel Koslowski         : Symmetry handling
   Simone Kossmann        : Meta GGA functionals, TD-DFT gradient, OOMP2, (MP2 Hessian; deprecated post 5.0)
   Lucas Lang             : DCDCAS
   Marvin Lechner         : AUTO-CI (C++ implementation), FIC-MRCC
   Spencer Leger          : CASSCF response
   Dagmar Lenk            : GEPOL surface, SMD, ORCA-2-JSON
   Dimitrios Liakos       : Extrapolation schemes; Compound Job, initial MDCI parallelization
   Dimitrios Manganas     : Further ROCIS development; embedding schemes. LFT, Crystal Embedding
   Dimitrios Pantazis     : SARC Basis sets
   Anastasios Papadopoulos: AUTO-CI, single reference methods and gradients
   Taras Petrenko         : pre 6.0 DFT Hessian and TD-DFT gradient, (ASA, deprecated), ECA, 1-Electron XAS/XES, NRVS
   Peter Pinski           : DLPNO-MP2, DLPNO-MP2 Gradient
   Christoph Reimann      : Effective Core Potentials
   Marius Retegan         : Local ZFS, SOC
   Christoph Riplinger    : Optimizer, TS searches, QM/MM, DLPNO-CCSD(T), (RO)-DLPNO pert. Triples
   Michael Roemelt        : Original ROCIS implementation
   Masaaki Saitow         : Open-shell DLPNO-CCSD energy and density
   Barbara Sandhoefer     : DKH picture change effects
   Kantharuban Sivalingam : CASSCF convergence/infrastructure, NEVPT2 and variants, FIC-MRCI
   Bernardo de Souza      : ESD, SOC TD-DFT
   Georgi Stoychev        : AutoAux, RI-MP2 NMR, DLPNO-MP2 response, X2C
   Van Anh Tran           : RI-MP2 g-tensors
   Willem Van den Heuvel  : Paramagnetic NMR
   Zikuan Wang            : NOTCH, Electric field optimization 
   Frank Wennmohs         : Technical directorship and infrastructure
   Hang Xu                : AUTO-CI-Response properties 


 We gratefully acknowledge several colleagues who have allowed us to
 interface, adapt or use parts of their codes:
   Stefan Grimme, W. Hujo, H. Kruse, P. Pracht,  : VdW corrections, initial TS optimization,
                  C. Bannwarth, S. Ehlert,         DFT functionals, gCP, sTDA/sTD-DF
                  L. Wittmann, M. Mueller
   Ed Valeev, F. Pavosevic, A. Kumar             : LibInt (2-el integral package), F12 methods
   Garnet Chan, S. Sharma, J. Yang, R. Olivares  : DMRG
   Ulf Ekstrom                                   : XCFun DFT Library
   Mihaly Kallay                                 : mrcc  (arbitrary order and MRCC methods)
   Frank Weinhold                                : gennbo (NPA and NBO analysis)
   Simon Mueller                                 : openCOSMO-RS
   Christopher J. Cramer and Donald G. Truhlar   : smd solvation model
   Lars Goerigk                                  : TD-DFT with DH, B97 family of functionals
   V. Asgeirsson, H. Jonsson                     : NEB implementation
   FAccTs GmbH                                   : IRC, NEB, NEB-TS, DLPNO-Multilevel, CI-OPT
                                                   MM, QMMM, 2- and 3-layer-ONIOM, Crystal-QMMM,
                                                   LR-CPCM, SF, NACMEs, symmetry and pop. for TD-DFT,
                                                   nearIR, NL-DFT gradient (VV10), updates on ESD,
                                                   ML-optimized integration grids, MBIS, APM,
                                                   GOAT, DOCKER, SOLVATOR, interface openCOSMO-RS
   S Lehtola, MJT Oliveira, MAL Marques          : LibXC Library
   Liviu Ungur et al                             : ANISO software


 Your calculation uses the libint2 library for the computation of 2-el integrals
 For citations please refer to: http://libint.valeyev.net

 Your ORCA version has been built with support for libXC version: 6.2.2
 For citations please refer to: https://libxc.gitlab.io

 This ORCA versions uses:
   CBLAS   interface :  Fast vector & matrix operations
   LAPACKE interface :  Fast linear algebra routines
   Shared memory     :  Shared parallel matrices


Your calculation utilizes the atom-pairwise dispersion correction
with the zero-damping scheme (D30)


XCFun DFT library Copyright 2009-2010 Ulf Ekstrom and contributors.
See http://admol.org/xcfun for more information.
This is free software; see the source code for copying conditions.
There is ABSOLUTELY NO WARRANTY; not even for MERCHANTABILITY or FITNESS FOR A PARTICULAR PURPOSE.
For details see the documentation.
Scientific users of this library should cite U. Ekstrom, L. Visscher, R. Bast, A. J. Thorvaldsen and K. Ruud;
J.Chem.Theor.Comp. 2010, DOI: 10.1021/ct100117s
XCFun Version 0.99 

Warning: RI is on but no J-basis has been assigned. Assigning Def2/J (nothing to worry about!)
================================================================================

----- Orbital basis set information -----
Your calculation utilizes the basis: def2-TZVP
   F. Weigend and R. Ahlrichs, Phys. Chem. Chem. Phys. 7, 3297 (2005).

----- AuxJ basis set information -----
Your calculation utilizes the auxiliary basis: def2/J
   F. Weigend, Phys. Chem. Chem. Phys. 8, 1057 (2006).

================================================================================
                                        WARNINGS
                       Please study these warnings very carefully!
================================================================================

WARNING: Functional chosen is sensitive to the integration grid.
         DEFGRID3 seems to be a minimum grid for robust results!

================================================================================
                                       INPUT FILE
================================================================================
NAME = data/single_point_P_M06-2x/82101/82101.inp
|  1> ! RIJCOSX M062X def2-TZVP D3ZERO NormalSCF
|  2> %pal
|  3> nprocs 6
|  4> end
|  5> 
|  6> * xyz 0 1
|  7>   C          -1.32073542761707      4.94239528981315      1.33482249559325
|  8>   C          -0.51670436494956      4.14812092275357      2.17087967143384
|  9>   C           0.18596613444604      3.05435835533748      1.64423792693734
| 10>   C           0.10457079469106      2.73544203456762      0.27018736057566
| 11>   C          -0.70938632971792      3.53783904875992     -0.55700288161374
| 12>   C          -1.41455984920988      4.63310134734449     -0.03175898771199
| 13>   C           0.81453550567132      1.52526865002764     -0.27748618412041
| 14>   P          -0.02332432256119     -0.05241183320855      0.32877161923391
| 15>   C           0.88239252953244     -1.30185531718600     -0.75693761274326
| 16>   C           2.32393324992678     -1.41135205354954     -0.33480301961359
| 17>   C           2.66734967442857     -2.01881440521485      0.89376825846501
| 18>   C           4.00291217058803     -2.07604636238921      1.31848013632214
| 19>   C           5.02263440359418     -1.52124209251999      0.52557509188013
| 20>   C           4.69425275123504     -0.90980473445249     -0.69524620405725
| 21>   C           3.35625489394863     -0.85433062528638     -1.11879289164475
| 22>   C          -1.63167600519185      0.07472636435149     -0.65065841656245
| 23>   C          -2.40506028546884     -1.21404247362510     -0.55356991698438
| 24>   C          -2.48020466714884     -2.10105696757819     -1.64822015411385
| 25>   C          -3.15392768807517     -3.32842083348854     -1.53754177943442
| 26>   C          -3.76214022676579     -3.69219060657160     -0.32519175972942
| 27>   C          -3.69094910910296     -2.81931294424373      0.77450057375260
| 28>   C          -3.01664364483782     -1.59448614836292      0.66193978371508
| 29>   H          -1.87217834436115      5.80059430267734      1.74826335619280
| 30>   H          -0.43686234923511      4.38284808237646      3.24363555366891
| 31>   H           0.80681994741487      2.42854475973321      2.30473747425390
| 32>   H          -0.78566918514993      3.29976784964900     -1.63009954561297
| 33>   H          -2.04062658911933      5.24898338372879     -0.69578805237601
| 34>   H           0.83934681601153      1.54115449602134     -1.38805659042551
| 35>   H           1.86396934045857      1.47221702103554      0.08143086889385
| 36>   H           0.79658827775314     -1.01234299795459     -1.82611812066093
| 37>   H           0.34648649312391     -2.26561545102544     -0.62738976445749
| 38>   H           1.87003846246493     -2.44564008202569      1.52260937898997
| 39>   H           4.25070850067521     -2.55764645501701      2.27708382031641
| 40>   H           6.07067229976542     -1.56628001641792      0.85889554955962
| 41>   H           5.48496174970379     -0.47295797680119     -1.32466467188929
| 42>   H           3.10398022107354     -0.37431124646284     -2.07799512696164
| 43>   H          -2.19513823659738      0.92271264328301     -0.20768555438298
| 44>   H          -1.41283491005612      0.33312414005490     -1.70873187452113
| 45>   H          -2.00534235511227     -1.81994606085633     -2.60191127824346
| 46>   H          -3.20462325177545     -4.00397225550557     -2.40546606920971
| 47>   H          -4.29121554267985     -4.65331304055890     -0.23673979338259
| 48>   H          -4.16480618393159     -3.09585088505566      1.72909267822905
| 49>   H          -2.95376434784193     -0.91795482615672      1.52894465243977
| 50> **                         ****END OF INPUT****
================================================================================

                       ****************************
                       * Single Point Calculation *
                       ****************************

---------------------------------
CARTESIAN COORDINATES (ANGSTROEM)
---------------------------------
  C     -1.320735    4.942395    1.334822
  C     -0.516704    4.148121    2.170880
  C      0.185966    3.054358    1.644238
  C      0.104571    2.735442    0.270187
  C     -0.709386    3.537839   -0.557003
  C     -1.414560    4.633101   -0.031759
  C      0.814536    1.525269   -0.277486
  P     -0.023324   -0.052412    0.328772
  C      0.882393   -1.301855   -0.756938
  C      2.323933   -1.411352   -0.334803
  C      2.667350   -2.018814    0.893768
  C      4.002912   -2.076046    1.318480
  C      5.022634   -1.521242    0.525575
  C      4.694253   -0.909805   -0.695246
  C      3.356255   -0.854331   -1.118793
  C     -1.631676    0.074726   -0.650658
  C     -2.405060   -1.214042   -0.553570
  C     -2.480205   -2.101057   -1.648220
  C     -3.153928   -3.328421   -1.537542
  C     -3.762140   -3.692191   -0.325192
  C     -3.690949   -2.819313    0.774501
  C     -3.016644   -1.594486    0.661940
  H     -1.872178    5.800594    1.748263
  H     -0.436862    4.382848    3.243636
  H      0.806820    2.428545    2.304737
  H     -0.785669    3.299768   -1.630100
  H     -2.040627    5.248983   -0.695788
  H      0.839347    1.541154   -1.388057
  H      1.863969    1.472217    0.081431
  H      0.796588   -1.012343   -1.826118
  H      0.346486   -2.265615   -0.627390
  H      1.870038   -2.445640    1.522609
  H      4.250709   -2.557646    2.277084
  H      6.070672   -1.566280    0.858896
  H      5.484962   -0.472958   -1.324665
  H      3.103980   -0.374311   -2.077995
  H     -2.195138    0.922713   -0.207686
  H     -1.412835    0.333124   -1.708732
  H     -2.005342   -1.819946   -2.601911
  H     -3.204623   -4.003972   -2.405466
  H     -4.291216   -4.653313   -0.236740
  H     -4.164806   -3.095851    1.729093
  H     -2.953764   -0.917955    1.528945

----------------------------
CARTESIAN COORDINATES (A.U.)
----------------------------
  NO LB      ZA    FRAG     MASS         X           Y           Z
   0 C     6.0000    0    12.011   -2.495828    9.339774    2.522449
   1 C     6.0000    0    12.011   -0.976430    7.838813    4.102368
   2 C     6.0000    0    12.011    0.351425    5.771901    3.107159
   3 C     6.0000    0    12.011    0.197610    5.169236    0.510580
   4 C     6.0000    0    12.011   -1.340546    6.685547   -1.052583
   5 C     6.0000    0    12.011   -2.673131    8.755293   -0.060016
   6 C     6.0000    0    12.011    1.539249    2.882340   -0.524373
   7 P    15.0000    0    30.974   -0.044077   -0.099044    0.621288
   8 C     6.0000    0    12.011    1.667480   -2.460150   -1.430405
   9 C     6.0000    0    12.011    4.391597   -2.667069   -0.632686
  10 C     6.0000    0    12.011    5.040560   -3.815006    1.688977
  11 C     6.0000    0    12.011    7.564408   -3.923159    2.491566
  12 C     6.0000    0    12.011    9.491403   -2.874731    0.993193
  13 C     6.0000    0    12.011    8.870852   -1.719282   -1.313825
  14 C     6.0000    0    12.011    6.342403   -1.614451   -2.114212
  15 C     6.0000    0    12.011   -3.083421    0.141212   -1.229566
  16 C     6.0000    0    12.011   -4.544905   -2.294208   -1.046096
  17 C     6.0000    0    12.011   -4.686908   -3.970422   -3.114685
  18 C     6.0000    0    12.011   -5.960060   -6.289804   -2.905533
  19 C     6.0000    0    12.011   -7.109415   -6.977229   -0.614523
  20 C     6.0000    0    12.011   -6.974883   -5.327729    1.463594
  21 C     6.0000    0    12.011   -5.700630   -3.013142    1.250885
  22 H     1.0000    0     1.008   -3.537904   10.961535    3.303739
  23 H     1.0000    0     1.008   -0.825550    8.282383    6.129583
  24 H     1.0000    0     1.008    1.524669    4.589284    4.355323
  25 H     1.0000    0     1.008   -1.484700    6.235658   -3.080442
  26 H     1.0000    0     1.008   -3.856225    9.919141   -1.314849
  27 H     1.0000    0     1.008    1.586136    2.912360   -2.623047
  28 H     1.0000    0     1.008    3.522392    2.782087    0.153882
  29 H     1.0000    0     1.008    1.505334   -1.913051   -3.450863
  30 H     1.0000    0     1.008    0.654765   -4.281393   -1.185595
  31 H     1.0000    0     1.008    3.533861   -4.621590    2.877315
  32 H     1.0000    0     1.008    8.032675   -4.833251    4.303065
  33 H     1.0000    0     1.008   11.471908   -2.959840    1.623077
  34 H     1.0000    0     1.008   10.365076   -0.893761   -2.503253
  35 H     1.0000    0     1.008    5.865673   -0.707346   -3.926842
  36 H     1.0000    0     1.008   -4.148210    1.743674   -0.392469
  37 H     1.0000    0     1.008   -2.669871    0.629513   -3.229035
  38 H     1.0000    0     1.008   -3.789548   -3.439200   -4.916900
  39 H     1.0000    0     1.008   -6.055860   -7.566411   -4.545672
  40 H     1.0000    0     1.008   -8.109222   -8.793487   -0.447373
  41 H     1.0000    0     1.008   -7.870343   -5.850310    3.267512
  42 H     1.0000    0     1.008   -5.581806   -1.734683    2.889287

--------------------------------
INTERNAL COORDINATES (ANGSTROEM)
--------------------------------
 C      0   0   0     0.000000000000     0.00000000     0.00000000
 C      1   0   0     1.405819803950     0.00000000     0.00000000
 C      2   1   0     1.402645326391   120.25130517     0.00000000
 C      3   2   1     1.412921717543   120.81602601     0.29427844
 C      4   3   2     1.410890096901   118.36112473   359.49967845
 C      1   2   3     1.404282989802   119.50621943   359.96205849
 C      4   3   2     1.506159295376   120.51882838   182.62295559
 P      7   4   3     1.886434022986   110.22791857    70.20392409
 C      8   7   4     1.886848317227    98.95638987   170.33409399
 C      9   8   7     1.506063344799   110.26196889    69.26066392
 C     10   9   8     1.412916393361   120.50544852    70.12668581
 C     11  10   9     1.402634256413   120.81481386   182.59686478
 C     12  11  10     1.405823466817   120.25081502     0.28647060
 C     13  12  11     1.404312924195   119.50716432   359.97058126
 C     14  13  12     1.404531038980   120.13987614     0.00000000
 C      8   7   4     1.887390381272    98.93854149    69.74944171
 C     16   8   7     1.506145590396   110.27211025   169.30622113
 C     17  16   8     1.410921873184   121.01606145   253.59050233
 C     18  17  16     1.404483702608   120.91752265   177.26385736
 C     19  18  17     1.404294666481   120.14337447   359.80222716
 C     20  19  18     1.405811799973   119.50854978     0.00000000
 C     21  20  19     1.402696856238   120.24799418   359.95759422
 H      1   2   3     1.100694408690   120.24287390   179.99245660
 H      2   1   3     1.101034409003   120.03056397   180.03478894
 H      3   2   1     1.101527015341   120.01604390   180.61444655
 H      5   4   3     1.101831847500   119.21307087   180.19759127
 H      6   1   2     1.101001745812   120.11314237   180.05495608
 H      7   4   3     1.110961110293   111.25582852   192.59729713
 H      7   4   3     1.110381601018   111.49088299   312.74438685
 H      9   8   7     1.111002570259   110.12805889   306.10159001
 H      9   8   7     1.110320458441   106.01910290   190.06314978
 H     11  10   9     1.101510999478   119.14813786     2.26907822
 H     12  11  10     1.101028016624   119.72068828   180.26797923
 H     13  12  11     1.100688136534   120.24582004   180.00551777
 H     14  13  12     1.101010180506   120.11886149   180.06140622
 H     15  14  13     1.101875693015   119.85600711   180.05895890
 H     16   8   7     1.110313186495   106.07316403   290.22362427
 H     16   8   7     1.110936666892   110.00144611    46.30672760
 H     18  17  16     1.101836792594   119.22095036   357.01811860
 H     19  18  17     1.101014230948   119.74633352   179.72212042
 H     20  19  18     1.100681958321   120.24905615   179.95498973
 H     21  20  19     1.101026723564   120.03083258   179.99599382
 H     22  21  20     1.101519803866   120.03827078   180.65222627

---------------------------
INTERNAL COORDINATES (A.U.)
---------------------------
 C      0   0   0     0.000000000000     0.00000000     0.00000000
 C      1   0   0     2.656614423107     0.00000000     0.00000000
 C      2   1   0     2.650615529904   120.25130517     0.00000000
 C      3   2   1     2.670035094827   120.81602601     0.29427844
 C      4   3   2     2.666195888205   118.36112473   359.49967845
 C      1   2   3     2.653710265250   119.50621943   359.96205849
 C      4   3   2     2.846228582320   120.51882838   182.62295559
 P      7   4   3     3.564843673154   110.22791857    70.20392409
 C      8   7   4     3.565626575808    98.95638987   170.33409399
 C      9   8   7     2.846047262007   110.26196889    69.26066392
 C     10   9   8     2.670025033580   120.50544852    70.12668581
 C     11  10   9     2.650594610676   120.81481386   182.59686478
 C     12  11  10     2.656621344924   120.25081502     0.28647060
 C     13  12  11     2.653766833055   119.50716432   359.97058126
 C     14  13  12     2.654179010263   120.13987614     0.00000000
 C      8   7   4     3.566650928402    98.93854149    69.74944171
 C     16   8   7     2.846202683662   110.27211025   169.30622113
 C     17  16   8     2.666255936677   121.01606145   253.59050233
 C     18  17  16     2.654089557484   120.91752265   177.26385736
 C     19  18  17     2.653732330976   120.14337447   359.80222716
 C     20  19  18     2.656599297784   119.50854978     0.00000000
 C     21  20  19     2.650712907202   120.24799418   359.95759422
 H      1   2   3     2.080010989563   120.24287390   179.99245660
 H      2   1   3     2.080653497039   120.03056397   180.03478894
 H      3   2   1     2.081584388111   120.01604390   180.61444655
 H      5   4   3     2.082160437407   119.21307087   180.19759127
 H      6   1   2     2.080591772553   120.11314237   180.05495608
 H      7   4   3     2.099412243892   111.25582852   192.59729713
 H      7   4   3     2.098317130069   111.49088299   312.74438685
 H      9   8   7     2.099490591871   110.12805889   306.10159001
 H      9   8   7     2.098201587344   106.01910290   190.06314978
 H     11  10   9     2.081554122515   119.14813786     2.26907822
 H     12  11  10     2.080641417194   119.72068828   180.26797923
 H     13  12  11     2.079999136906   120.24582004   180.00551777
 H     14  13  12     2.080607711816   120.11886149   180.06140622
 H     15  14  13     2.082243293423   119.85600711   180.05895890
 H     16   8   7     2.098187845356   106.07316403   290.22362427
 H     16   8   7     2.099366052557   110.00144611    46.30672760
 H     18  17  16     2.082169782281   119.22095036   357.01811860
 H     19  18  17     2.080615366042   119.74633352   179.72212042
 H     20  19  18     2.079987461775   120.24905615   179.95498973
 H     21  20  19     2.080638973665   120.03083258   179.99599382
 H     22  21  20     2.081570760397   120.03827078   180.65222627

---------------------
BASIS SET INFORMATION
---------------------
There are 3 groups of distinct atoms

 Group   1 Type C   : 11s6p2d1f contracted to 5s3p2d1f pattern {62111/411/11/1}
 Group   2 Type P   : 14s9p3d1f contracted to 5s5p2d1f pattern {73211/51111/21/1}
 Group   3 Type H   : 5s1p contracted to 3s1p pattern {311/1}

Atom   0C    basis set group =>   1
Atom   1C    basis set group =>   1
Atom   2C    basis set group =>   1
Atom   3C    basis set group =>   1
Atom   4C    basis set group =>   1
Atom   5C    basis set group =>   1
Atom   6C    basis set group =>   1
Atom   7P    basis set group =>   2
Atom   8C    basis set group =>   1
Atom   9C    basis set group =>   1
Atom  10C    basis set group =>   1
Atom  11C    basis set group =>   1
Atom  12C    basis set group =>   1
Atom  13C    basis set group =>   1
Atom  14C    basis set group =>   1
Atom  15C    basis set group =>   1
Atom  16C    basis set group =>   1
Atom  17C    basis set group =>   1
Atom  18C    basis set group =>   1
Atom  19C    basis set group =>   1
Atom  20C    basis set group =>   1
Atom  21C    basis set group =>   1
Atom  22H    basis set group =>   3
Atom  23H    basis set group =>   3
Atom  24H    basis set group =>   3
Atom  25H    basis set group =>   3
Atom  26H    basis set group =>   3
Atom  27H    basis set group =>   3
Atom  28H    basis set group =>   3
Atom  29H    basis set group =>   3
Atom  30H    basis set group =>   3
Atom  31H    basis set group =>   3
Atom  32H    basis set group =>   3
Atom  33H    basis set group =>   3
Atom  34H    basis set group =>   3
Atom  35H    basis set group =>   3
Atom  36H    basis set group =>   3
Atom  37H    basis set group =>   3
Atom  38H    basis set group =>   3
Atom  39H    basis set group =>   3
Atom  40H    basis set group =>   3
Atom  41H    basis set group =>   3
Atom  42H    basis set group =>   3
---------------------------------
AUXILIARY/J BASIS SET INFORMATION
---------------------------------
There are 3 groups of distinct atoms

 Group   1 Type C   : 12s5p4d2f1g contracted to 6s4p3d1f1g pattern {711111/2111/211/2/1}
 Group   2 Type P   : 14s5p5d2f1g contracted to 8s4p3d1f1g pattern {71111111/2111/311/2/1}
 Group   3 Type H   : 5s2p1d contracted to 3s1p1d pattern {311/2/1}

Atom   0C    basis set group =>   1
Atom   1C    basis set group =>   1
Atom   2C    basis set group =>   1
Atom   3C    basis set group =>   1
Atom   4C    basis set group =>   1
Atom   5C    basis set group =>   1
Atom   6C    basis set group =>   1
Atom   7P    basis set group =>   2
Atom   8C    basis set group =>   1
Atom   9C    basis set group =>   1
Atom  10C    basis set group =>   1
Atom  11C    basis set group =>   1
Atom  12C    basis set group =>   1
Atom  13C    basis set group =>   1
Atom  14C    basis set group =>   1
Atom  15C    basis set group =>   1
Atom  16C    basis set group =>   1
Atom  17C    basis set group =>   1
Atom  18C    basis set group =>   1
Atom  19C    basis set group =>   1
Atom  20C    basis set group =>   1
Atom  21C    basis set group =>   1
Atom  22H    basis set group =>   3
Atom  23H    basis set group =>   3
Atom  24H    basis set group =>   3
Atom  25H    basis set group =>   3
Atom  26H    basis set group =>   3
Atom  27H    basis set group =>   3
Atom  28H    basis set group =>   3
Atom  29H    basis set group =>   3
Atom  30H    basis set group =>   3
Atom  31H    basis set group =>   3
Atom  32H    basis set group =>   3
Atom  33H    basis set group =>   3
Atom  34H    basis set group =>   3
Atom  35H    basis set group =>   3
Atom  36H    basis set group =>   3
Atom  37H    basis set group =>   3
Atom  38H    basis set group =>   3
Atom  39H    basis set group =>   3
Atom  40H    basis set group =>   3
Atom  41H    basis set group =>   3
Atom  42H    basis set group =>   3


           ************************************************************
           *        Program running with 6 parallel MPI-processes     *
           *              working on a common directory               *
           ************************************************************
------------------------------------------------------------------------------
                             ORCA STARTUP CALCULATIONS
                           -- RI-GTO INTEGRALS CHOSEN --
------------------------------------------------------------------------------
------------------------------------------------------------------------------
                   ___                                                        
                  /   \      - P O W E R E D   B Y -                         
                 /     \                                                     
                 |  |  |   _    _      __       _____    __    __             
                 |  |  |  | |  | |    /  \     |  _  \  |  |  /  |          
                  \  \/   | |  | |   /    \    | | | |  |  | /  /          
                 / \  \   | |__| |  /  /\  \   | |_| |  |  |/  /          
                |  |  |   |  __  | /  /__\  \  |    /   |      \           
                |  |  |   | |  | | |   __   |  |    \   |  |\   \          
                \     /   | |  | | |  |  |  |  | |\  \  |  | \   \       
                 \___/    |_|  |_| |__|  |__|  |_| \__\ |__|  \__/        
                                                                              
                      - O R C A' S   B I G   F R I E N D -                    
                                      &                                       
                       - I N T E G R A L  F E E D E R -                       
                                                                              
 v1 FN, 2020, v2 2021, v3 2022-2024                                           
------------------------------------------------------------------------------


----------------------
SHARK INTEGRAL PACKAGE
----------------------

Number of atoms                             ...     43
Number of basis functions                   ...    814
Number of shells                            ...    328
Maximum angular momentum                    ...      3
Integral batch strategy                     ... SHARK/LIBINT Hybrid
RI-J (if used) integral strategy            ... SPLIT-RIJ (Revised 2003 algorithm where possible)
Printlevel                                  ...      1
Contraction scheme used                     ... SEGMENTED contraction
Prescreening option                         ... SCHWARTZ
   Thresh                                   ... 1.000e-10
   Tcut                                     ... 1.000e-11
   Tpresel                                  ... 1.000e-11 
Coulomb Range Separation                    ... NOT USED
Exchange Range Separation                   ... NOT USED
Multipole approximations                    ... NOT USED
Finite Nucleus Model                        ... NOT USED
CABS basis                                  ... NOT available
Auxiliary Coulomb fitting basis             ... AVAILABLE
   # of basis functions in Aux-J            ...   1311
   # of shells in Aux-J                     ...    437
   Maximum angular momentum in Aux-J        ...      4
Auxiliary J/K fitting basis                 ... NOT available
Auxiliary Correlation fitting basis         ... NOT available
Auxiliary 'external' fitting basis          ... NOT available

Checking pre-screening integrals            ... done (  0.0 sec) Dimension = 328
Check shell pair data                       ... done (  0.0 sec)
Shell pair information
Shell pair cut-off parameter TPreSel        ...   1.0e-11
Total number of shell pairs                 ...     53956
Shell pairs after pre-screening             ...     35614
Total number of primitive shell pairs       ...    165012
Primitive shell pairs kept                  ...     71659
          la=0 lb=0:   9720 shell pairs
          la=1 lb=0:  10664 shell pairs
          la=1 lb=1:   2963 shell pairs
          la=2 lb=0:   4790 shell pairs
          la=2 lb=1:   2685 shell pairs
          la=2 lb=2:    610 shell pairs
          la=3 lb=0:   2264 shell pairs
          la=3 lb=1:   1260 shell pairs
          la=3 lb=2:    529 shell pairs
          la=3 lb=3:    129 shell pairs

Calculating one electron integrals          ... done (  0.1 sec)
Calculating RI/J V-Matrix + Cholesky decomp.... done (  0.1 sec)
Calculating Nuclear repulsion               ... done (  0.0 sec) ENN=   1742.998308953235 Eh

Diagonalization of the overlap matrix:
Smallest eigenvalue                        ... 9.232e-06
Time for diagonalization                   ...    0.153 sec
Threshold for overlap eigenvalues          ... 1.000e-07
Number of eigenvalues below threshold      ... 0
Time for construction of square roots      ...    0.068 sec
Total time needed                          ...    0.228 sec

-------------------
DFT GRID GENERATION
-------------------

General Integration Accuracy     IntAcc      ... 4.388
Radial Grid Type                 RadialGrid  ... OptM3 with GC (2021)
Angular Grid (max. ang.)         AngularGrid ... 4 (Lebedev-302)
Angular grid pruning method      GridPruning ... 4 (adaptive)
Weight generation scheme         WeightScheme... mBecke (2022)
Basis function cutoff            BFCut       ... 1.0000e-10
Integration weight cutoff        WCut        ... 1.0000e-14
Partially contracted basis set               ... off
Rotationally invariant grid construction     ... off
Angular grids for H and He will be reduced by one unit

Total number of grid points                  ...   199497
Total number of batches                      ...     3140
Average number of points per batch           ...       63
Average number of grid points per atom       ...     4639

--------------------
COSX GRID GENERATION
--------------------

GRIDX 1
-------
General Integration Accuracy     IntAcc      ... 3.816
Radial Grid Type                 RadialGrid  ... OptM3 with GC (2021)
Angular Grid (max. ang.)         AngularGrid ... 1 (Lebedev-50)
Angular grid pruning method      GridPruning ... 4 (adaptive)
Weight generation scheme         WeightScheme... mBecke (2022)
Basis function cutoff            BFCut       ... 1.0000e-10
Integration weight cutoff        WCut        ... 1.0000e-14
Partially contracted basis set               ... on
Rotationally invariant grid construction     ... off
Angular grids for H and He will be reduced by one unit

Total number of grid points                  ...    26324
Total number of batches                      ...      225
Average number of points per batch           ...      116
Average number of grid points per atom       ...      612
UseSFitting                                  ... on

GRIDX 2
-------
General Integration Accuracy     IntAcc      ... 4.020
Radial Grid Type                 RadialGrid  ... OptM3 with GC (2021)
Angular Grid (max. ang.)         AngularGrid ... 2 (Lebedev-110)
Angular grid pruning method      GridPruning ... 4 (adaptive)
Weight generation scheme         WeightScheme... mBecke (2022)
Basis function cutoff            BFCut       ... 1.0000e-10
Integration weight cutoff        WCut        ... 1.0000e-14
Partially contracted basis set               ... on
Rotationally invariant grid construction     ... off
Angular grids for H and He will be reduced by one unit

Total number of grid points                  ...    54231
Total number of batches                      ...      447
Average number of points per batch           ...      121
Average number of grid points per atom       ...     1261
UseSFitting                                  ... on

GRIDX 3
-------
General Integration Accuracy     IntAcc      ... 4.338
Radial Grid Type                 RadialGrid  ... OptM3 with GC (2021)
Angular Grid (max. ang.)         AngularGrid ... 3 (Lebedev-194)
Angular grid pruning method      GridPruning ... 4 (adaptive)
Weight generation scheme         WeightScheme... mBecke (2022)
Basis function cutoff            BFCut       ... 1.0000e-10
Integration weight cutoff        WCut        ... 1.0000e-14
Partially contracted basis set               ... on
Rotationally invariant grid construction     ... off
Angular grids for H and He will be reduced by one unit

Total number of grid points                  ...   118725
Total number of batches                      ...      945
Average number of points per batch           ...      125
Average number of grid points per atom       ...     2761
UseSFitting                                  ... on
Initializing property integral containers    ... done (  0.1 sec)

SHARK setup successfully completed in   6.0 seconds

Maximum memory used throughout the entire STARTUP-calculation: 80.2 MB


           ************************************************************
           *        Program running with 6 parallel MPI-processes     *
           *              working on a common directory               *
           ************************************************************
-------------------------------------------------------------------------------
                                 ORCA GUESS
                   Start orbitals & Density for SCF / CASSCF
-------------------------------------------------------------------------------

------------
SCF SETTINGS
------------
Hamiltonian:
 Density Functional     Method          .... DFT(GTOs)
 Exchange Functional    Exchange        .... M062X
 Correlation Functional Correlation     .... M062X
 Gradients option       PostSCFGGA      .... off
 Hybrid DFT is turned on
   Fraction HF Exchange ScalHFX         ....  0.540000
   Scaling of DF-GGA-X  ScalDFX         ....  0.460000
   Scaling of DF-GGA-C  ScalDFC         ....  1.000000
   Scaling of DF-LDA-C  ScalLDAC        ....  1.000000
   Perturbative correction              ....  0.000000
 RI-approximation to the Coulomb term is turned on
   Number of AuxJ basis functions       .... 1311
   RIJ-COSX (HFX calculated with COS-X)).... on


General Settings:
 Integral files         IntName         .... data/single_point_P_M06-2x/82101/82101
 Hartree-Fock type      HFTyp           .... RHF
 Total Charge           Charge          ....    0
 Multiplicity           Mult            ....    1
 Number of Electrons    NEL             ....  162
 Basis Dimension        Dim             ....  814
 Nuclear Repulsion      ENuc            ....   1742.9983089532 Eh

Convergence Acceleration:
 AO-DIIS                CNVDIIS         .... on
   Start iteration      DIISMaxIt       ....    12
   Startup error        DIISStart       ....  0.200000
   # of expansion vecs  DIISMaxEq       ....     5
   Bias factor          DIISBfac        ....   1.050
   Max. coefficient     DIISMaxC        ....  10.000
 MO-DIIS                CNVKDIIS        .... off
 Trust-Rad. Augm. Hess. CNVTRAH         .... auto
   Auto Start mean grad. ratio tolernc. ....  1.125000
   Auto Start start iteration           ....    50
   Auto Start num. interpolation iter.  ....    10
   Max. Number of Micro iterations      ....    24
   Max. Number of Macro iterations      .... Maxiter - #DIIS iter
   Number of Davidson start vectors     ....     2
   Converg. threshold    (grad. norm)   ....   5.000e-05
   Grad. Scal. Fac. for Micro threshold ....   0.100
   Minimum threshold for Micro iter.    ....   1.000e-02
   NR start threshold (gradient norm)   ....   1.000e-04
   Initial trust radius                 ....   0.400
   Minimum AH scaling param. (alpha)    ....   1.000
   Maximum AH scaling param. (alpha)    .... 1000.000
   Quad. conv. algorithm                .... NR
   White noise on init. David. guess    .... on
   Maximum white noise                  ....   0.010
   Pseudo random numbers                .... off
   Inactive MOs                         .... canonical
   Orbital update algorithm             .... Taylor
   Preconditioner                       .... Diag
   Full preconditioner red. dimension   ....   250
 SOSCF                  CNVSOSCF        .... on
   Start iteration      SOSCFMaxIt      ....   150
   Startup grad/error   SOSCFStart      ....  0.003300
   Hessian update       SOSCFHessUp     .... L-BFGS
 Level Shifting         CNVShift        .... on
   Level shift para.    LevelShift      ....    0.2500
   Turn off err/grad.   ShiftErr        ....    0.0010
 Zerner damping         CNVZerner       .... off
 Static damping         CNVDamp         .... on
   Fraction old density DampFac         ....    0.7000
   Max. Damping (<1)    DampMax         ....    0.9800
   Min. Damping (>=0)   DampMin         ....    0.0000
   Turn off err/grad.   DampErr         ....    0.1000

SCF Procedure:
 Maximum # iterations   MaxIter         ....   125
 SCF integral mode      SCFMode         .... Direct
   Integral package                     .... SHARK and LIBINT hybrid scheme
 Reset frequency        DirectResetFreq ....    20
 Integral Threshold     Thresh          ....  1.000e-10 Eh
 Primitive CutOff       TCut            ....  1.000e-11 Eh

Convergence Tolerance:
 Convergence Check Mode ConvCheckMode   .... Total+1el-Energy
 Convergence forced     ConvForced      .... 0
 Energy Change          TolE            ....  1.000e-06 Eh
 1-El. energy change                    ....  1.000e-03 Eh
 Orbital Gradient       TolG            ....  5.000e-05
 Orbital Rotation angle TolX            ....  5.000e-05
 DIIS Error             TolErr          ....  1.000e-05

------------------------------
INITIAL GUESS: MODEL POTENTIAL
------------------------------
Loading Hartree-Fock densities                     ... done
Calculating cut-offs                               ... done
Initializing the effective Hamiltonian             ... done
Setting up the integral package (SHARK)            ... done
Starting the Coulomb interaction                   ... done (   0.7 sec)
Making the grid                                    ... done (   0.4 sec)
Mapping shells                                     ... done
Starting the XC term evaluation                    ... done (   0.5 sec)
  promolecular density results
     # of electrons  =    161.982925559
     EX              =   -135.981988124
     EC              =     -5.430084297
     EX+EC           =   -141.412072421
Transforming the Hamiltonian                       ... done (   0.1 sec)
Diagonalizing the Hamiltonian                      ... done (   0.1 sec)
Back transforming the eigenvectors                 ... done (   0.1 sec)
Now organizing SCF variables                       ... done
                      ------------------
                      INITIAL GUESS DONE (   1.9 sec)
                      ------------------
             **** ENERGY FILE WAS UPDATED (data/single_point_P_M06-2x/82101/82101.en.tmp) ****
Finished Guess after   2.2 sec
Maximum memory used throughout the entire GUESS-calculation: 61.6 MB


           ************************************************************
           *        Program running with 6 parallel MPI-processes     *
           *              working on a common directory               *
           ************************************************************

-------------------------------------------------------------------------------------------
                                      ORCA LEAN-SCF
                              memory conserving SCF solver
-------------------------------------------------------------------------------------------

----------------------------------------D-I-I-S--------------------------------------------
Iteration    Energy (Eh)           Delta-E    RMSDP     MaxDP     DIISErr   Damp  Time(sec)
-------------------------------------------------------------------------------------------
               ***  Starting incremental Fock matrix formation  ***
    1    -1153.6271918534723682     0.00e+00  1.03e-03  2.82e-02  1.52e-01  0.700  19.1
    2    -1153.8529781489203287    -2.26e-01  8.23e-04  2.51e-02  8.78e-02  0.700  11.5
                               ***Turning on AO-DIIS***
    3    -1153.9657757612737896    -1.13e-01  5.67e-04  2.03e-02  4.16e-02  0.700  10.6
    4    -1154.0314659061830298    -6.57e-02  1.34e-03  4.79e-02  2.48e-02  0.000  10.0
                              *** Initializing SOSCF ***
---------------------------------------S-O-S-C-F--------------------------------------
Iteration    Energy (Eh)           Delta-E    RMSDP     MaxDP     MaxGrad    Time(sec)
--------------------------------------------------------------------------------------
    5    -1154.1701572319154820    -1.39e-01  1.09e-04  1.81e-02  2.83e-03    11.7
               *** Restarting incremental Fock matrix formation ***
    6    -1154.1704329897881962    -2.76e-04  1.76e-04  1.11e-02  7.39e-04    19.2
    7    -1154.1704572647902296    -2.43e-05  5.57e-05  5.06e-03  2.94e-04    14.5
    8    -1154.1704601926992382    -2.93e-06  4.16e-05  2.73e-03  9.88e-05    12.1
    9    -1154.1704615591722813    -1.37e-06  5.58e-06  3.50e-04  3.17e-05    12.2
   10    -1154.1704618209530508    -2.62e-07  3.32e-06  2.17e-04  3.21e-05     9.7
                 **** Energy Check signals convergence ****

               *****************************************************
               *                     SUCCESS                       *
               *           SCF CONVERGED AFTER  10 CYCLES          *
               *****************************************************

Recomputing exchange energy using gridx3       ... done (   27.496 sec)
Old exchange energy                            :    -74.948455451 Eh
New exchange energy                            :    -74.948458797 Eh
Exchange energy change after final integration :     -0.000003346 Eh
Total energy after final integration           :  -1154.170465167 Eh
             **** ENERGY FILE WAS UPDATED (data/single_point_P_M06-2x/82101/82101.en.tmp) ****

----------------
TOTAL SCF ENERGY
----------------

Total Energy       :      -1154.17046516695450 Eh          -31406.57504 eV

Components:
Nuclear Repulsion  :       1742.99830895323498 Eh           47429.39525 eV
Electronic Energy  :      -2897.16877077418803 Eh          -78835.97020 eV
One Electron Energy:      -5033.08126482975331 Eh         -136957.10398 eV
Two Electron Energy:       2135.91249405556528 Eh           58121.13378 eV

Virial components:
Potential Energy   :      -2302.28615456248826 Eh          -62648.39125 eV
Kinetic Energy     :       1148.11568939553399 Eh           31241.81621 eV
Virial Ratio       :          2.00527366347080

DFT components:
N(Alpha)           :       81.000177897491 electrons
N(Beta)            :       81.000177897491 electrons
N(Total)           :      162.000355794982 electrons
E(XC)              :      -69.627172794433 Eh       

---------------
SCF CONVERGENCE
---------------

  Last Energy change         ...    2.6178e-07  Tolerance :   1.0000e-06
  Last MAX-Density change    ...    2.1668e-04  Tolerance :   1.0000e-05
  Last RMS-Density change    ...    3.3186e-06  Tolerance :   1.0000e-06
  Last DIIS Error            ...    2.8290e-03  Tolerance :   1.0000e-05
  Last Orbital Gradient      ...    3.2074e-05  Tolerance :   5.0000e-05
  Last Orbital Rotation      ...    5.0274e-05  Tolerance :   5.0000e-05


----------------
ORBITAL ENERGIES
----------------

  NO   OCC          E(Eh)            E(eV) 
   0   2.0000     -78.027661     -2123.2406 
   1   2.0000     -10.558697      -287.3168 
   2   2.0000     -10.558616      -287.3145 
   3   2.0000     -10.558541      -287.3125 
   4   2.0000     -10.548327      -287.0346 
   5   2.0000     -10.548253      -287.0326 
   6   2.0000     -10.548225      -287.0318 
   7   2.0000     -10.547825      -287.0209 
   8   2.0000     -10.547757      -287.0191 
   9   2.0000     -10.547694      -287.0174 
  10   2.0000     -10.547596      -287.0147 
  11   2.0000     -10.547528      -287.0128 
  12   2.0000     -10.547465      -287.0111 
  13   2.0000     -10.546946      -286.9970 
  14   2.0000     -10.546887      -286.9954 
  15   2.0000     -10.546839      -286.9941 
  16   2.0000     -10.545542      -286.9588 
  17   2.0000     -10.545483      -286.9572 
  18   2.0000     -10.545418      -286.9554 
  19   2.0000     -10.545081      -286.9462 
  20   2.0000     -10.544992      -286.9438 
  21   2.0000     -10.544955      -286.9428 
  22   2.0000      -6.843258      -186.2145 
  23   2.0000      -4.957232      -134.8932 
  24   2.0000      -4.957204      -134.8924 
  25   2.0000      -4.957201      -134.8923 
  26   2.0000      -0.959932       -26.1211 
  27   2.0000      -0.957013       -26.0417 
  28   2.0000      -0.956940       -26.0396 
  29   2.0000      -0.888345       -24.1731 
  30   2.0000      -0.866014       -23.5654 
  31   2.0000      -0.865959       -23.5639 
  32   2.0000      -0.837953       -22.8019 
  33   2.0000      -0.837862       -22.7994 
  34   2.0000      -0.837816       -22.7981 
  35   2.0000      -0.802745       -21.8438 
  36   2.0000      -0.765394       -20.8274 
  37   2.0000      -0.765342       -20.8260 
  38   2.0000      -0.686990       -18.6939 
  39   2.0000      -0.685804       -18.6617 
  40   2.0000      -0.685744       -18.6601 
  41   2.0000      -0.675557       -18.3828 
  42   2.0000      -0.660049       -17.9608 
  43   2.0000      -0.659966       -17.9586 
  44   2.0000      -0.610353       -16.6086 
  45   2.0000      -0.582145       -15.8410 
  46   2.0000      -0.582049       -15.8384 
  47   2.0000      -0.574810       -15.6414 
  48   2.0000      -0.535948       -14.5839 
  49   2.0000      -0.529758       -14.4154 
  50   2.0000      -0.529744       -14.4151 
  51   2.0000      -0.526050       -14.3145 
  52   2.0000      -0.526010       -14.3135 
  53   2.0000      -0.521018       -14.1776 
  54   2.0000      -0.489481       -13.3195 
  55   2.0000      -0.489445       -13.3185 
  56   2.0000      -0.485134       -13.2012 
  57   2.0000      -0.483361       -13.1529 
  58   2.0000      -0.483305       -13.1514 
  59   2.0000      -0.475984       -12.9522 
  60   2.0000      -0.463415       -12.6101 
  61   2.0000      -0.455633       -12.3984 
  62   2.0000      -0.455475       -12.3941 
  63   2.0000      -0.441830       -12.0228 
  64   2.0000      -0.441663       -12.0183 
  65   2.0000      -0.434779       -11.8309 
  66   2.0000      -0.410662       -11.1747 
  67   2.0000      -0.410597       -11.1729 
  68   2.0000      -0.403261       -10.9733 
  69   2.0000      -0.398707       -10.8494 
  70   2.0000      -0.396156       -10.7800 
  71   2.0000      -0.396127       -10.7792 
  72   2.0000      -0.380887       -10.3645 
  73   2.0000      -0.380837       -10.3631 
  74   2.0000      -0.314545        -8.5592 
  75   2.0000      -0.307584        -8.3698 
  76   2.0000      -0.307489        -8.3672 
  77   2.0000      -0.305811        -8.3215 
  78   2.0000      -0.285056        -7.7568 
  79   2.0000      -0.284947        -7.7538 
  80   2.0000      -0.280160        -7.6235 
  81   0.0000       0.010968         0.2984 
  82   0.0000       0.011019         0.2998 
  83   0.0000       0.011140         0.3031 
  84   0.0000       0.019544         0.5318 
  85   0.0000       0.021482         0.5846 
  86   0.0000       0.021595         0.5876 
  87   0.0000       0.057924         1.5762 
  88   0.0000       0.066138         1.7997 
  89   0.0000       0.066188         1.8011 
  90   0.0000       0.083937         2.2841 
  91   0.0000       0.084025         2.2864 
*Only the first 10 virtual orbitals were printed.

                    ********************************
                    * MULLIKEN POPULATION ANALYSIS *
                    ********************************

-----------------------
MULLIKEN ATOMIC CHARGES
-----------------------
   0 C :   -0.157903
   1 C :   -0.139210
   2 C :   -0.195433
   3 C :    0.174044
   4 C :   -0.215924
   5 C :   -0.137157
   6 C :   -0.536349
   7 P :    0.240192
   8 C :   -0.535697
   9 C :    0.173896
  10 C :   -0.197885
  11 C :   -0.139167
  12 C :   -0.156992
  13 C :   -0.137198
  14 C :   -0.216280
  15 C :   -0.533616
  16 C :    0.173292
  17 C :   -0.217205
  18 C :   -0.137584
  19 C :   -0.157429
  20 C :   -0.139518
  21 C :   -0.195371
  22 H :    0.143519
  23 H :    0.143762
  24 H :    0.162416
  25 H :    0.153671
  26 H :    0.143154
  27 H :    0.174498
  28 H :    0.207172
  29 H :    0.174624
  30 H :    0.207522
  31 H :    0.162390
  32 H :    0.143859
  33 H :    0.143577
  34 H :    0.143312
  35 H :    0.153651
  36 H :    0.206474
  37 H :    0.174107
  38 H :    0.153943
  39 H :    0.143227
  40 H :    0.143622
  41 H :    0.143897
  42 H :    0.162097
Sum of atomic charges:   -0.0000000

--------------------------------
MULLIKEN REDUCED ORBITAL CHARGES
--------------------------------
  0 C s       :     3.225940  s :     3.225940
      pz      :     0.900337  p :     2.864385
      px      :     0.970162
      py      :     0.993887
      dz2     :     0.013122  d :     0.061256
      dxz     :     0.015396
      dyz     :     0.017018
      dx2y2   :     0.008108
      dxy     :     0.007613
      f0      :     0.001013  f :     0.006321
      f+1     :     0.001303
      f-1     :     0.001171
      f+2     :     0.000677
      f-2     :     0.000761
      f+3     :     0.000824
      f-3     :     0.000572

  1 C s       :     3.220757  s :     3.220757
      pz      :     0.996281  p :     2.849420
      px      :     0.935527
      py      :     0.917612
      dz2     :     0.013076  d :     0.062689
      dxz     :     0.008302
      dyz     :     0.012221
      dx2y2   :     0.021337
      dxy     :     0.007753
      f0      :     0.000748  f :     0.006344
      f+1     :     0.000675
      f-1     :     0.000996
      f+2     :     0.000924
      f-2     :     0.000902
      f+3     :     0.000866
      f-3     :     0.001233

  2 C s       :     3.219712  s :     3.219712
      pz      :     0.933690  p :     2.910541
      px      :     0.998746
      py      :     0.978105
      dz2     :     0.013430  d :     0.058752
      dxz     :     0.014337
      dyz     :     0.012076
      dx2y2   :     0.009997
      dxy     :     0.008912
      f0      :     0.000960  f :     0.006428
      f+1     :     0.001120
      f-1     :     0.001272
      f+2     :     0.000400
      f-2     :     0.000955
      f+3     :     0.000693
      f-3     :     0.001028

  3 C s       :     3.182938  s :     3.182938
      pz      :     0.836142  p :     2.544529
      px      :     0.886298
      py      :     0.822090
      dz2     :     0.020255  d :     0.090112
      dxz     :     0.016431
      dyz     :     0.018674
      dx2y2   :     0.023476
      dxy     :     0.011277
      f0      :     0.001102  f :     0.008377
      f+1     :     0.001587
      f-1     :     0.001746
      f+2     :     0.000891
      f-2     :     0.000924
      f+3     :     0.000968
      f-3     :     0.001159

  4 C s       :     3.218208  s :     3.218208
      pz      :     1.029232  p :     2.930679
      px      :     0.956158
      py      :     0.945289
      dz2     :     0.012616  d :     0.060577
      dxz     :     0.008143
      dyz     :     0.012405
      dx2y2   :     0.019687
      dxy     :     0.007726
      f0      :     0.000745  f :     0.006460
      f+1     :     0.000654
      f-1     :     0.001029
      f+2     :     0.000849
      f-2     :     0.000930
      f+3     :     0.000961
      f-3     :     0.001291

  5 C s       :     3.216220  s :     3.216220
      pz      :     0.932261  p :     2.851695
      px      :     0.981407
      py      :     0.938027
      dz2     :     0.012554  d :     0.062885
      dxz     :     0.016986
      dyz     :     0.013321
      dx2y2   :     0.010490
      dxy     :     0.009534
      f0      :     0.000949  f :     0.006357
      f+1     :     0.001180
      f-1     :     0.001270
      f+2     :     0.000345
      f-2     :     0.000927
      f+3     :     0.000658
      f-3     :     0.001028

  6 C s       :     3.343965  s :     3.343965
      pz      :     1.077428  p :     3.119759
      px      :     1.060315
      py      :     0.982016
      dz2     :     0.018165  d :     0.069091
      dxz     :     0.006807
      dyz     :     0.012079
      dx2y2   :     0.019956
      dxy     :     0.012085
      f0      :     0.000792  f :     0.003533
      f+1     :     0.000196
      f-1     :     0.000502
      f+2     :     0.000302
      f-2     :     0.000432
      f+3     :     0.000684
      f-3     :     0.000625

  7 P s       :     5.708749  s :     5.708749
      pz      :     3.297339  p :     8.787638
      px      :     2.737621
      py      :     2.752678
      dz2     :     0.027387  d :     0.237616
      dxz     :     0.051937
      dyz     :     0.043024
      dx2y2   :     0.056293
      dxy     :     0.058975
      f0      :     0.002688  f :     0.025805
      f+1     :     0.003578
      f-1     :     0.003022
      f+2     :     0.004658
      f-2     :     0.004760
      f+3     :     0.002193
      f-3     :     0.004905

  8 C s       :     3.343318  s :     3.343318
      pz      :     1.044295  p :     3.119821
      px      :     0.991924
      py      :     1.083602
      dz2     :     0.019732  d :     0.069023
      dxz     :     0.013365
      dyz     :     0.004687
      dx2y2   :     0.010698
      dxy     :     0.020541
      f0      :     0.000574  f :     0.003535
      f+1     :     0.000462
      f-1     :     0.000420
      f+2     :     0.000441
      f-2     :     0.000264
      f+3     :     0.000748
      f-3     :     0.000627

  9 C s       :     3.182336  s :     3.182336
      pz      :     0.863403  p :     2.545461
      px      :     0.767372
      py      :     0.914686
      dz2     :     0.022610  d :     0.089932
      dxz     :     0.018960
      dyz     :     0.010161
      dx2y2   :     0.013856
      dxy     :     0.024345
      f0      :     0.001230  f :     0.008375
      f+1     :     0.001576
      f-1     :     0.000888
      f+2     :     0.001529
      f-2     :     0.001004
      f+3     :     0.001013
      f-3     :     0.001135

 10 C s       :     3.222364  s :     3.222364
      pz      :     0.951088  p :     2.910138
      px      :     0.991863
      py      :     0.967187
      dz2     :     0.013886  d :     0.058948
      dxz     :     0.013158
      dyz     :     0.009953
      dx2y2   :     0.007808
      dxy     :     0.014143
      f0      :     0.001045  f :     0.006435
      f+1     :     0.000957
      f-1     :     0.000699
      f+2     :     0.001185
      f-2     :     0.000880
      f+3     :     0.000561
      f-3     :     0.001108

 11 C s       :     3.220207  s :     3.220207
      pz      :     0.989440  p :     2.849810
      px      :     0.895420
      py      :     0.964951
      dz2     :     0.010135  d :     0.062808
      dxz     :     0.016585
      dyz     :     0.006910
      dx2y2   :     0.009448
      dxy     :     0.019730
      f0      :     0.000420  f :     0.006342
      f+1     :     0.001173
      f-1     :     0.000768
      f+2     :     0.001172
      f-2     :     0.000770
      f+3     :     0.000894
      f-3     :     0.001145

 12 C s       :     3.225663  s :     3.225663
      pz      :     0.911670  p :     2.863733
      px      :     0.996631
      py      :     0.955432
      dz2     :     0.016769  d :     0.061279
      dxz     :     0.013877
      dyz     :     0.010495
      dx2y2   :     0.012511
      dxy     :     0.007627
      f0      :     0.001038  f :     0.006317
      f+1     :     0.001026
      f-1     :     0.000833
      f+2     :     0.001244
      f-2     :     0.000856
      f+3     :     0.000885
      f-3     :     0.000436

 13 C s       :     3.216607  s :     3.216607
      pz      :     0.938533  p :     2.851310
      px      :     0.942192
      py      :     0.970585
      dz2     :     0.014840  d :     0.062921
      dxz     :     0.014538
      dyz     :     0.009959
      dx2y2   :     0.009190
      dxy     :     0.014394
      f0      :     0.001102  f :     0.006360
      f+1     :     0.000931
      f-1     :     0.000725
      f+2     :     0.001138
      f-2     :     0.000842
      f+3     :     0.000539
      f-3     :     0.001083

 14 C s       :     3.218449  s :     3.218449
      pz      :     1.022856  p :     2.930721
      px      :     0.927669
      py      :     0.980196
      dz2     :     0.009130  d :     0.060654
      dxz     :     0.017519
      dyz     :     0.006913
      dx2y2   :     0.008154
      dxy     :     0.018938
      f0      :     0.000418  f :     0.006456
      f+1     :     0.001201
      f-1     :     0.000753
      f+2     :     0.001179
      f-2     :     0.000749
      f+3     :     0.000961
      f-3     :     0.001195

 15 C s       :     3.343658  s :     3.343658
      pz      :     1.088403  p :     3.117563
      px      :     1.021122
      py      :     1.008037
      dz2     :     0.015173  d :     0.068862
      dxz     :     0.008313
      dyz     :     0.012998
      dx2y2   :     0.017008
      dxy     :     0.015371
      f0      :     0.000653  f :     0.003533
      f+1     :     0.000433
      f-1     :     0.000303
      f+2     :     0.000267
      f-2     :     0.000465
      f+3     :     0.000681
      f-3     :     0.000730

 16 C s       :     3.182468  s :     3.182468
      pz      :     0.863918  p :     2.545702
      px      :     0.882062
      py      :     0.799722
      dz2     :     0.014624  d :     0.090156
      dxz     :     0.019752
      dyz     :     0.021459
      dx2y2   :     0.019266
      dxy     :     0.015055
      f0      :     0.001790  f :     0.008382
      f+1     :     0.000892
      f-1     :     0.001137
      f+2     :     0.001027
      f-2     :     0.001560
      f+3     :     0.000876
      f-3     :     0.001098

 17 C s       :     3.219677  s :     3.219677
      pz      :     0.986073  p :     2.930344
      px      :     0.989732
      py      :     0.954539
      dz2     :     0.011083  d :     0.060721
      dxz     :     0.010914
      dyz     :     0.013683
      dx2y2   :     0.013367
      dxy     :     0.011674
      f0      :     0.000997  f :     0.006463
      f+1     :     0.000743
      f-1     :     0.000753
      f+2     :     0.000649
      f-2     :     0.001236
      f+3     :     0.000781
      f-3     :     0.001304

 18 C s       :     3.215937  s :     3.215937
      pz      :     0.961073  p :     2.852426
      px      :     0.938887
      py      :     0.952466
      dz2     :     0.012570  d :     0.062871
      dxz     :     0.008519
      dyz     :     0.016871
      dx2y2   :     0.016397
      dxy     :     0.008515
      f0      :     0.001150  f :     0.006350
      f+1     :     0.000671
      f-1     :     0.000938
      f+2     :     0.000835
      f-2     :     0.000865
      f+3     :     0.000653
      f-3     :     0.001239

 19 C s       :     3.225315  s :     3.225315
      pz      :     0.888782  p :     2.864499
      px      :     0.982047
      py      :     0.993669
      dz2     :     0.015263  d :     0.061295
      dxz     :     0.016465
      dyz     :     0.014066
      dx2y2   :     0.006743
      dxy     :     0.008758
      f0      :     0.001341  f :     0.006320
      f+1     :     0.000819
      f-1     :     0.001005
      f+2     :     0.000906
      f-2     :     0.001105
      f+3     :     0.000781
      f-3     :     0.000362

 20 C s       :     3.221050  s :     3.221050
      pz      :     0.977074  p :     2.849359
      px      :     0.959621
      py      :     0.912664
      dz2     :     0.012196  d :     0.062764
      dxz     :     0.011252
      dyz     :     0.012238
      dx2y2   :     0.013723
      dxy     :     0.013355
      f0      :     0.001029  f :     0.006345
      f+1     :     0.000783
      f-1     :     0.000727
      f+2     :     0.000613
      f-2     :     0.001206
      f+3     :     0.000713
      f-3     :     0.001273

 21 C s       :     3.220372  s :     3.220372
      pz      :     0.979543  p :     2.909664
      px      :     0.943936
      py      :     0.986184
      dz2     :     0.011155  d :     0.058911
      dxz     :     0.009012
      dyz     :     0.016315
      dx2y2   :     0.015219
      dxy     :     0.007210
      f0      :     0.001101  f :     0.006424
      f+1     :     0.000647
      f-1     :     0.000908
      f+2     :     0.000850
      f-2     :     0.000946
      f+3     :     0.000703
      f-3     :     0.001269

 22 H s       :     0.836832  s :     0.836832
      pz      :     0.004165  p :     0.019648
      px      :     0.006043
      py      :     0.009440

 23 H s       :     0.836614  s :     0.836614
      pz      :     0.012652  p :     0.019625
      px      :     0.003417
      py      :     0.003556

 24 H s       :     0.817904  s :     0.817904
      pz      :     0.006469  p :     0.019681
      px      :     0.006661
      py      :     0.006551

 25 H s       :     0.826771  s :     0.826771
      pz      :     0.012491  p :     0.019558
      px      :     0.003447
      py      :     0.003621

 26 H s       :     0.837243  s :     0.837243
      pz      :     0.006494  p :     0.019603
      px      :     0.006754
      py      :     0.006355

 27 H s       :     0.806015  s :     0.806015
      pz      :     0.011930  p :     0.019487
      px      :     0.003614
      py      :     0.003943

 28 H s       :     0.773086  s :     0.773086
      pz      :     0.004125  p :     0.019741
      px      :     0.011601
      py      :     0.004015

 29 H s       :     0.805908  s :     0.805908
      pz      :     0.011540  p :     0.019468
      px      :     0.003595
      py      :     0.004333

 30 H s       :     0.772733  s :     0.772733
      pz      :     0.003628  p :     0.019745
      px      :     0.005977
      py      :     0.010140

 31 H s       :     0.817919  s :     0.817919
      pz      :     0.006321  p :     0.019691
      px      :     0.008248
      py      :     0.005122

 32 H s       :     0.836510  s :     0.836510
      pz      :     0.010858  p :     0.019632
      px      :     0.003230
      py      :     0.005543

 33 H s       :     0.836773  s :     0.836773
      pz      :     0.003886  p :     0.019650
      px      :     0.012118
      py      :     0.003646

 34 H s       :     0.837065  s :     0.837065
      pz      :     0.006311  p :     0.019623
      px      :     0.008100
      py      :     0.005213

 35 H s       :     0.826772  s :     0.826772
      pz      :     0.010809  p :     0.019577
      px      :     0.003230
      py      :     0.005539

 36 H s       :     0.773807  s :     0.773807
      pz      :     0.004809  p :     0.019719
      px      :     0.005963
      py      :     0.008947

 37 H s       :     0.806431  s :     0.806431
      pz      :     0.011141  p :     0.019462
      px      :     0.004369
      py      :     0.003952

 38 H s       :     0.826491  s :     0.826491
      pz      :     0.010538  p :     0.019565
      px      :     0.005475
      py      :     0.003553

 39 H s       :     0.837153  s :     0.837153
      pz      :     0.009232  p :     0.019620
      px      :     0.003540
      py      :     0.006849

 40 H s       :     0.836732  s :     0.836732
      pz      :     0.002824  p :     0.019646
      px      :     0.005990
      py      :     0.010832

 41 H s       :     0.836473  s :     0.836473
      pz      :     0.010642  p :     0.019630
      px      :     0.005435
      py      :     0.003554

 42 H s       :     0.818214  s :     0.818214
      pz      :     0.009278  p :     0.019688
      px      :     0.003580
      py      :     0.006831



                     *******************************
                     * LOEWDIN POPULATION ANALYSIS *
                     *******************************

----------------------
LOEWDIN ATOMIC CHARGES
----------------------
   0 C :   -0.150800
   1 C :   -0.142731
   2 C :   -0.119458
   3 C :   -0.180888
   4 C :   -0.127186
   5 C :   -0.145668
   6 C :   -0.361907
   7 P :    0.597999
   8 C :   -0.361929
   9 C :   -0.180952
  10 C :   -0.119587
  11 C :   -0.142719
  12 C :   -0.150726
  13 C :   -0.145717
  14 C :   -0.127228
  15 C :   -0.361791
  16 C :   -0.180917
  17 C :   -0.127217
  18 C :   -0.145653
  19 C :   -0.150708
  20 C :   -0.142703
  21 C :   -0.119522
  22 H :    0.146046
  23 H :    0.147402
  24 H :    0.152434
  25 H :    0.148145
  26 H :    0.146976
  27 H :    0.136748
  28 H :    0.151584
  29 H :    0.136812
  30 H :    0.151654
  31 H :    0.152412
  32 H :    0.147404
  33 H :    0.146071
  34 H :    0.146966
  35 H :    0.148192
  36 H :    0.151295
  37 H :    0.136809
  38 H :    0.148162
  39 H :    0.146982
  40 H :    0.146072
  41 H :    0.147415
  42 H :    0.152424

-------------------------------
LOEWDIN REDUCED ORBITAL CHARGES
-------------------------------
  0 C s       :     2.777770  s :     2.777770
      pz      :     1.051611  p :     2.958479
      px      :     0.944576
      py      :     0.962292
      dz2     :     0.108238  d :     0.373916
      dxz     :     0.091144
      dyz     :     0.100704
      dx2y2   :     0.029893
      dxy     :     0.043937
      f0      :     0.007307  f :     0.040635
      f+1     :     0.008879
      f-1     :     0.008909
      f+2     :     0.004779
      f-2     :     0.004784
      f+3     :     0.003721
      f-3     :     0.002256

  1 C s       :     2.777697  s :     2.777697
      pz      :     0.990214  p :     2.946762
      px      :     0.955874
      py      :     1.000675
      dz2     :     0.109743  d :     0.377589
      dxz     :     0.045446
      dyz     :     0.074529
      dx2y2   :     0.078438
      dxy     :     0.069434
      f0      :     0.004268  f :     0.040684
      f+1     :     0.005465
      f-1     :     0.007851
      f+2     :     0.007123
      f-2     :     0.006156
      f+3     :     0.005347
      f-3     :     0.004474

  2 C s       :     2.771061  s :     2.771061
      pz      :     1.015983  p :     2.938771
      px      :     0.938748
      py      :     0.984040
      dz2     :     0.083988  d :     0.369648
      dxz     :     0.086030
      dyz     :     0.114789
      dx2y2   :     0.036716
      dxy     :     0.048126
      f0      :     0.007174  f :     0.039978
      f+1     :     0.007536
      f-1     :     0.009594
      f+2     :     0.002857
      f-2     :     0.004541
      f+3     :     0.004019
      f-3     :     0.004257

  3 C s       :     2.723727  s :     2.723727
      pz      :     1.037427  p :     2.881635
      px      :     0.905207
      py      :     0.939001
      dz2     :     0.132341  d :     0.520385
      dxz     :     0.105726
      dyz     :     0.128688
      dx2y2   :     0.084175
      dxy     :     0.069456
      f0      :     0.007869  f :     0.055141
      f+1     :     0.010774
      f-1     :     0.012765
      f+2     :     0.006897
      f-2     :     0.005910
      f+3     :     0.005059
      f-3     :     0.005866

  4 C s       :     2.771467  s :     2.771467
      pz      :     0.984893  p :     2.943429
      px      :     0.960017
      py      :     0.998519
      dz2     :     0.109805  d :     0.372372
      dxz     :     0.045036
      dyz     :     0.075005
      dx2y2   :     0.073592
      dxy     :     0.068934
      f0      :     0.004150  f :     0.039919
      f+1     :     0.005321
      f-1     :     0.007839
      f+2     :     0.006757
      f-2     :     0.006149
      f+3     :     0.005232
      f-3     :     0.004472

  5 C s       :     2.777732  s :     2.777732
      pz      :     1.036293  p :     2.949602
      px      :     0.932842
      py      :     0.980467
      dz2     :     0.084403  d :     0.377669
      dxz     :     0.090464
      dyz     :     0.116749
      dx2y2   :     0.039166
      dxy     :     0.046888
      f0      :     0.007254  f :     0.040667
      f+1     :     0.007864
      f-1     :     0.009889
      f+2     :     0.002858
      f-2     :     0.004483
      f+3     :     0.003994
      f-3     :     0.004324

  6 C s       :     2.834582  s :     2.834582
      pz      :     1.053921  p :     3.171133
      px      :     1.056545
      py      :     1.060666
      dz2     :     0.084609  d :     0.328448
      dxz     :     0.030684
      dyz     :     0.064550
      dx2y2   :     0.087571
      dxy     :     0.061033
      f0      :     0.004546  f :     0.027745
      f+1     :     0.001413
      f-1     :     0.003537
      f+2     :     0.004635
      f-2     :     0.004944
      f+3     :     0.004562
      f-3     :     0.004109

  7 P s       :     4.999422  s :     4.999422
      pz      :     3.309613  p :     8.817475
      px      :     2.746401
      py      :     2.761462
      dz2     :     0.078914  d :     0.489030
      dxz     :     0.094210
      dyz     :     0.084175
      dx2y2   :     0.112888
      dxy     :     0.118842
      f0      :     0.008688  f :     0.096073
      f+1     :     0.012699
      f-1     :     0.010409
      f+2     :     0.017195
      f-2     :     0.018267
      f+3     :     0.013261
      f-3     :     0.015555

  8 C s       :     2.834542  s :     2.834542
      pz      :     1.066293  p :     3.171218
      px      :     1.031364
      py      :     1.073561
      dz2     :     0.086278  d :     0.328421
      dxz     :     0.064289
      dyz     :     0.035659
      dx2y2   :     0.054793
      dxy     :     0.087402
      f0      :     0.003331  f :     0.027747
      f+1     :     0.004258
      f-1     :     0.003023
      f+2     :     0.004453
      f-2     :     0.003377
      f+3     :     0.005026
      f-3     :     0.004280

  9 C s       :     2.723693  s :     2.723693
      pz      :     1.001032  p :     2.881670
      px      :     0.993753
      py      :     0.886886
      dz2     :     0.117991  d :     0.520438
      dxz     :     0.142710
      dyz     :     0.070215
      dx2y2   :     0.091172
      dxy     :     0.098351
      f0      :     0.007238  f :     0.055150
      f+1     :     0.012794
      f-1     :     0.006007
      f+2     :     0.007705
      f-2     :     0.007694
      f+3     :     0.006227
      f-3     :     0.007485

 10 C s       :     2.771052  s :     2.771052
      pz      :     0.991489  p :     2.938913
      px      :     1.026606
      py      :     0.920818
      dz2     :     0.071412  d :     0.369645
      dxz     :     0.132063
      dyz     :     0.046351
      dx2y2   :     0.051628
      dxy     :     0.068191
      f0      :     0.006706  f :     0.039977
      f+1     :     0.007790
      f-1     :     0.004963
      f+2     :     0.006068
      f-2     :     0.004453
      f+3     :     0.004182
      f-3     :     0.005815

 11 C s       :     2.777694  s :     2.777694
      pz      :     0.970804  p :     2.946748
      px      :     1.062874
      py      :     0.913070
      dz2     :     0.076465  d :     0.377595
      dxz     :     0.100708
      dyz     :     0.037131
      dx2y2   :     0.078039
      dxy     :     0.085253
      f0      :     0.003226  f :     0.040683
      f+1     :     0.009826
      f-1     :     0.003282
      f+2     :     0.006399
      f-2     :     0.005962
      f+3     :     0.006080
      f-3     :     0.005908

 12 C s       :     2.777768  s :     2.777768
      pz      :     1.023680  p :     2.958405
      px      :     0.997694
      py      :     0.937031
      dz2     :     0.099327  d :     0.373918
      dxz     :     0.099462
      dyz     :     0.064796
      dx2y2   :     0.072899
      dxy     :     0.037435
      f0      :     0.005851  f :     0.040634
      f+1     :     0.008871
      f-1     :     0.005860
      f+2     :     0.005889
      f-2     :     0.006474
      f+3     :     0.004680
      f-3     :     0.003009

 13 C s       :     2.777751  s :     2.777751
      pz      :     1.005455  p :     2.949655
      px      :     1.026235
[...]
      f-3     :     0.005388

 22 H s       :     0.798013  s :     0.798013
      pz      :     0.013321  p :     0.055941
      px      :     0.017358
      py      :     0.025262

 23 H s       :     0.796968  s :     0.796968
      pz      :     0.032690  p :     0.055631
      px      :     0.011268
      py      :     0.011673

 24 H s       :     0.791385  s :     0.791385
      pz      :     0.018626  p :     0.056181
      px      :     0.018904
      py      :     0.018651

 25 H s       :     0.795996  s :     0.795996
      pz      :     0.032424  p :     0.055859
      px      :     0.011513
      py      :     0.011923

 26 H s       :     0.797373  s :     0.797373
      pz      :     0.018656  p :     0.055651
      px      :     0.018897
      py      :     0.018099

 27 H s       :     0.804682  s :     0.804682
      pz      :     0.034266  p :     0.058570
      px      :     0.012077
      py      :     0.012226

 28 H s       :     0.788386  s :     0.788386
      pz      :     0.014225  p :     0.060030
      px      :     0.032804
      py      :     0.013001

 29 H s       :     0.804624  s :     0.804624
      pz      :     0.033301  p :     0.058564
      px      :     0.011053
      py      :     0.014210

 30 H s       :     0.788310  s :     0.788310
      pz      :     0.012496  p :     0.060037
      px      :     0.017110
      py      :     0.030430

 31 H s       :     0.791376  s :     0.791376
      pz      :     0.018305  p :     0.056212
      px      :     0.022644
      py      :     0.015264

 32 H s       :     0.796956  s :     0.796956
      pz      :     0.028497  p :     0.055639
      px      :     0.011091
      py      :     0.016051

 33 H s       :     0.797995  s :     0.797995
      pz      :     0.012589  p :     0.055934
      px      :     0.031565
      py      :     0.011779

 34 H s       :     0.797358  s :     0.797358
      pz      :     0.018171  p :     0.055676
      px      :     0.022215
      py      :     0.015290

 35 H s       :     0.795947  s :     0.795947
      pz      :     0.028410  p :     0.055861
      px      :     0.010985
      py      :     0.016466

 36 H s       :     0.788714  s :     0.788714
      pz      :     0.015931  p :     0.059991
      px      :     0.019342
      py      :     0.024717

 37 H s       :     0.804632  s :     0.804632
      pz      :     0.032945  p :     0.058559
      px      :     0.013581
      py      :     0.012032

 38 H s       :     0.795971  s :     0.795971
      pz      :     0.027840  p :     0.055867
      px      :     0.016313
      py      :     0.011714

 39 H s       :     0.797353  s :     0.797353
      pz      :     0.024911  p :     0.055665
      px      :     0.011479
      py      :     0.019275

 40 H s       :     0.797994  s :     0.797994
      pz      :     0.010227  p :     0.055934
      px      :     0.017155
      py      :     0.028552

 41 H s       :     0.796944  s :     0.796944
      pz      :     0.028101  p :     0.055641
      px      :     0.015784
      py      :     0.011756

 42 H s       :     0.791374  s :     0.791374
      pz      :     0.025175  p :     0.056201
      px      :     0.011670
      py      :     0.019356



                      *****************************
                      * MAYER POPULATION ANALYSIS *
                      *****************************

  NA   - Mulliken gross atomic population
  ZA   - Total nuclear charge
  QA   - Mulliken gross atomic charge
  VA   - Mayer's total valence
  BVA  - Mayer's bonded valence
  FA   - Mayer's free valence

  ATOM       NA         ZA         QA         VA         BVA        FA
  0 C      6.1579     6.0000    -0.1579     3.9480     3.9480    -0.0000
  1 C      6.1392     6.0000    -0.1392     3.9519     3.9519    -0.0000
  2 C      6.1954     6.0000    -0.1954     3.9568     3.9568    -0.0000
  3 C      5.8260     6.0000     0.1740     3.6701     3.6701     0.0000
  4 C      6.2159     6.0000    -0.2159     3.9370     3.9370     0.0000
  5 C      6.1372     6.0000    -0.1372     3.9731     3.9731    -0.0000
  6 C      6.5363     6.0000    -0.5363     3.7989     3.7989    -0.0000
  7 P     14.7598    15.0000     0.2402     2.9606     2.9606    -0.0000
  8 C      6.5357     6.0000    -0.5357     3.7960     3.7960    -0.0000
  9 C      5.8261     6.0000     0.1739     3.6697     3.6697    -0.0000
 10 C      6.1979     6.0000    -0.1979     3.9566     3.9566    -0.0000
 11 C      6.1392     6.0000    -0.1392     3.9515     3.9515    -0.0000
 12 C      6.1570     6.0000    -0.1570     3.9475     3.9475    -0.0000
 13 C      6.1372     6.0000    -0.1372     3.9717     3.9717    -0.0000
 14 C      6.2163     6.0000    -0.2163     3.9369     3.9369    -0.0000
 15 C      6.5336     6.0000    -0.5336     3.7974     3.7974    -0.0000
 16 C      5.8267     6.0000     0.1733     3.6696     3.6696    -0.0000
 17 C      6.2172     6.0000    -0.2172     3.9386     3.9386    -0.0000
 18 C      6.1376     6.0000    -0.1376     3.9733     3.9733    -0.0000
 19 C      6.1574     6.0000    -0.1574     3.9488     3.9488    -0.0000
 20 C      6.1395     6.0000    -0.1395     3.9521     3.9521    -0.0000
 21 C      6.1954     6.0000    -0.1954     3.9550     3.9550    -0.0000
 22 H      0.8565     1.0000     0.1435     0.9646     0.9646    -0.0000
 23 H      0.8562     1.0000     0.1438     0.9649     0.9649    -0.0000
 24 H      0.8376     1.0000     0.1624     0.9685     0.9685    -0.0000
 25 H      0.8463     1.0000     0.1537     0.9631     0.9631     0.0000
 26 H      0.8568     1.0000     0.1432     0.9646     0.9646    -0.0000
 27 H      0.8255     1.0000     0.1745     0.9531     0.9531     0.0000
 28 H      0.7928     1.0000     0.2072     0.9347     0.9347    -0.0000
 29 H      0.8254     1.0000     0.1746     0.9532     0.9532    -0.0000
 30 H      0.7925     1.0000     0.2075     0.9345     0.9345    -0.0000
 31 H      0.8376     1.0000     0.1624     0.9686     0.9686    -0.0000
 32 H      0.8561     1.0000     0.1439     0.9648     0.9648    -0.0000
 33 H      0.8564     1.0000     0.1436     0.9645     0.9645    -0.0000
 34 H      0.8567     1.0000     0.1433     0.9646     0.9646     0.0000
 35 H      0.8463     1.0000     0.1537     0.9631     0.9631    -0.0000
 36 H      0.7935     1.0000     0.2065     0.9351     0.9351    -0.0000
 37 H      0.8259     1.0000     0.1741     0.9532     0.9532    -0.0000
 38 H      0.8461     1.0000     0.1539     0.9630     0.9630    -0.0000
 39 H      0.8568     1.0000     0.1432     0.9647     0.9647    -0.0000
 40 H      0.8564     1.0000     0.1436     0.9646     0.9646    -0.0000
 41 H      0.8561     1.0000     0.1439     0.9648     0.9648     0.0000
 42 H      0.8379     1.0000     0.1621     0.9688     0.9688     0.0000

  Mayer bond orders larger than 0.100000
B(  0-C ,  1-C ) :   1.4308 B(  0-C ,  5-C ) :   1.4474 B(  0-C , 22-H ) :   0.9467 
B(  1-C ,  2-C ) :   1.4762 B(  1-C , 23-H ) :   0.9487 B(  2-C ,  3-C ) :   1.3897 
B(  2-C , 24-H ) :   0.9276 B(  3-C ,  4-C ) :   1.3625 B(  3-C ,  6-C ) :   0.8894 
B(  4-C ,  5-C ) :   1.4712 B(  4-C , 25-H ) :   0.9417 B(  5-C , 26-H ) :   0.9482 
B(  6-C ,  7-P ) :   0.9359 B(  6-C , 27-H ) :   0.9693 B(  6-C , 28-H ) :   0.9341 
B(  7-P ,  8-C ) :   0.9359 B(  7-P , 15-C ) :   0.9360 B(  8-C ,  9-C ) :   0.8886 
B(  8-C , 29-H ) :   0.9688 B(  8-C , 30-H ) :   0.9341 B(  9-C , 10-C ) :   1.3886 
B(  9-C , 14-C ) :   1.3635 B( 10-C , 11-C ) :   1.4759 B( 10-C , 31-H ) :   0.9283 
B( 11-C , 12-C ) :   1.4307 B( 11-C , 32-H ) :   0.9488 B( 12-C , 13-C ) :   1.4468 
B( 12-C , 33-H ) :   0.9467 B( 13-C , 14-C ) :   1.4704 B( 13-C , 34-H ) :   0.9484 
B( 14-C , 35-H ) :   0.9422 B( 15-C , 16-C ) :   0.8890 B( 15-C , 36-H ) :   0.9344 
B( 15-C , 37-H ) :   0.9691 B( 16-C , 17-C ) :   1.3633 B( 16-C , 21-C ) :   1.3894 
B( 17-C , 18-C ) :   1.4717 B( 17-C , 38-H ) :   0.9420 B( 18-C , 19-C ) :   1.4471 
B( 18-C , 39-H ) :   0.9481 B( 19-C , 20-C ) :   1.4318 B( 19-C , 40-H ) :   0.9467 
B( 20-C , 21-C ) :   1.4751 B( 20-C , 41-H ) :   0.9489 B( 21-C , 42-H ) :   0.9278 


-------
TIMINGS
-------

Total SCF time: 0 days 0 hours 2 min 39 sec 

Total time                  ....     159.191 sec
Sum of individual times     ....     159.272 sec  (100.1%)

SCF preparation             ....       0.350 sec  (  0.2%)
Fock matrix formation       ....     153.521 sec  ( 96.4%)
  Startup                   ....       0.168 sec  (  0.1% of F)
  Split-RI-J                ....      11.230 sec  (  7.3% of F)
  Chain of spheres X        ....     111.396 sec  ( 72.6% of F)
  XC integration            ....      30.293 sec  ( 19.7% of F)
    Basis function eval.    ....       4.486 sec  ( 14.8% of XC)
    Density eval.           ....      12.245 sec  ( 40.4% of XC)
    XC-Functional eval.     ....       0.523 sec  (  1.7% of XC)
    XC-Potential eval.      ....      10.488 sec  ( 34.6% of XC)
Diagonalization             ....       0.000 sec  (  0.0%)
Density matrix formation    ....       0.460 sec  (  0.3%)
Total Energy calculation    ....       0.151 sec  (  0.1%)
Population analysis         ....       0.269 sec  (  0.2%)
Orbital Transformation      ....       0.628 sec  (  0.4%)
Orbital Orthonormalization  ....       0.000 sec  (  0.0%)
DIIS solution               ....       2.311 sec  (  1.5%)
SOSCF solution              ....       1.582 sec  (  1.0%)
Finished LeanSCF after 159.3 sec

Maximum memory used throughout the entire LEANSCF-calculation: 119.4 MB


-------------------------------------------------------------------------------
                          DFT DISPERSION CORRECTION                            
                                                                               
                              DFTD3 V3.1  Rev 1                                
                              USING zero damping                               
-------------------------------------------------------------------------------
The M062X functional is recognized
Active option DFTDOPT                   ...         3   

molecular C6(AA) [au] = 23169.251839 


            DFT-D V3
 parameters
 s6 scaling factor         :     1.0000 
 rs6 scaling factor        :     1.6190 
 s8 scaling factor         :     0.0000 
 rs8 scaling factor        :     1.0000 
 Damping factor alpha6     :    14.0000 
 Damping factor alpha8     :    16.0000 
 ad hoc parameters k1-k3   :    16.0000     1.3333    -4.0000 

 Edisp/kcal,au: -1.782348273181  -0.002840352468 
 E6   /kcal   :  -1.782348273 
 E8   /kcal   :  -0.000000000 
 % E8         :   0.000000000 

-------------------------   ----------------
Dispersion correction           -0.002840352
-------------------------   ----------------


-------------------------   --------------------
FINAL SINGLE POINT ENERGY     -1154.173305519422
-------------------------   --------------------



           ************************************************************
           *        Program running with 6 parallel MPI-processes     *
           *              working on a common directory               *
           ************************************************************

------------------------------------------------------------------------------
                              ORCA PROPERTY CALCULATIONS
------------------------------------------------------------------------------

GBWName                                 ... data/single_point_P_M06-2x/82101/82101.gbw
Number of atoms                         ...     43
Number of basis functions               ...    814
Max core memory                         ...   1024 MB

Electric properties:
Dipole moment                           ... YES
Quadrupole moment                       ...  NO
Static polarizability (Dipole/Dipole)   ...  NO
Static polarizability (Dipole/Quad.)    ...  NO
Static polarizability (Quad./Quad.)     ...  NO
Static polarizability (Velocity)        ...  NO

Atomic electric properties:
Dipole moment                           ...  NO
Quadrupole moment                       ...  NO
Static polarizability                   ...  NO

Choice of electric origin               ... Center of mass
Position of electric origin             ...    -0.007563    -0.022847     0.136802

General magnetic properties:
Magnetizability                         ...  NO

EPR properties:
g-Tensor (aka g-matrix)                 ...  NO
Zero-Field splitting spin-orbit         ...  NO
Zero-field splitting spin-spin          ...  NO
Hyperfine couplings                     ...  NO (   0 nuclei)
Quadrupole couplings                    ...  NO (   0 nuclei)
Contact density                         ...  NO (   0 nuclei)

NMR properties:
Chemical shifts                         ...  NO (   0 nuclei)
Spin-rotation constants                 ...  NO (   0 nuclei)
Spin-spin couplings                     ...  NO (   0 nuclei,    0 pairs)

Choice of magnetic origin               ... GIAO
Position of magnetic origin             ...     0.000000     0.000000     0.000000

Properties with geometric perturbations:
SCF Hessian                             ...  NO
IR spectrum                             ...  NO
VCD spectrum                            ...  NO
X-ray spectroscopy properties:
SCF XES/XAS/RIXS spectra                ...  NO


-------------
DIPOLE MOMENT
-------------

Method             : SCF
Type of density    : Electron Density
Multiplicity       :   1
Irrep              :   0
Energy             : -1154.1704651669545001 Eh
Relativity type    : 
Basis              : AO
                                X                 Y                 Z
Electronic contribution:     -0.148089551      -0.455563961       2.705417669
Nuclear contribution   :      0.162263221       0.503245305      -3.002504063
                        -----------------------------------------
Total Dipole Moment    :      0.014173671       0.047681344      -0.297086393
                        -----------------------------------------
Magnitude (a.u.)       :      0.301222058
Magnitude (Debye)      :      0.765645626



--------------------
Rotational spectrum 
--------------------
 
Rotational constants in cm-1:             0.007306             0.007253             0.004118 
Rotational constants in MHz :           219.038638           217.450487           123.445875 

Dipole components along the rotational axes: 
x,y,z [a.u.] :    -0.004995    -0.000398    -0.301180 
x,y,z [Debye]:    -0.012697    -0.001011    -0.765540 

 

Dipole moment calculation done in   0.0 sec 

Maximum memory used throughout the entire PROP-calculation: 64.8 MB

--------------------------------
SUGGESTED CITATIONS FOR THIS RUN
--------------------------------

Below you find a list of papers that are relevant to this ORCA run
We neither can nor want to force you to cite these papers, but we appreciate if you do
You receive ORCA, which is the product of decades of hard work by many enthusiastic individuals, for free
The only thing we kindly ask in return is that you cite our papers,
We deeply appreciate it, if you show your appreciation for ORCA by not just citing the generic ORCA reference.

Please note that relegating all ORCA citations to the supporting information does *not* help us.
SI sections are not indexed - citations you put there will not count into any citation statistics
But we need these citations in order to attract the funding resources that allow us to do what we are doing

Therefore, if you are a happy ORCA user, please consider citing a few of the papers listed below in the main body of your paper

In addition to the list printed below, the program has created the file data/single_point_P_M06-2x/82101/82101.bibtex that contains the list in bibtex format
You can import this file easily into all common literature databanks and citation aid programs


List of essential papers. We consider these as the minimum necessary citations

  1. Neese,F.
     Software update: the ORCA program system, version 5.0
     WIRES Comput. Molec. Sci., 2022 12(1)e1606
     doi.org/10.1002/wcms.1606

List of papers to cite with high priority. The work reported in these papers was absolutely
necessary for this run to complete.
Our perspective: the developers of density functionals and basis sets usually get cited in chemistry papers
Good! But without the algorithms to do something with them, the functionals or basis sets would not do anything.
Hence, in our opinion, the algorithm design and method developments papers are equally worthy of getting cited

  1. Neese,F.
     An improvement of the resolution of the identity approximation for the formation of the Coulomb matrix
     J. Comp. Chem., 2003 24(14)1740-1747
     doi.org/10.1002/jcc.10318
  2. Neese,F.; Wennmohs,F.; Hansen,A.; Becker,U.
     Efficient, approximate and parallel Hartree-Fock and hybrid DFT calculations. A 'chain-of-spheres' algorithm for the Hartree-Fock exchange
     Chem. Phys., 2009 356(1-3)98-109
     doi.org/10.1016/j.chemphys.2008.10.036
  3. Helmich-Paris,B.; de Souza,B.; Neese,F.; Izsák,R.
     An improved chain of spheres for exchange algorithm
     J. Chem. Phys., 2021 155 104109
     doi.org/doi: 10.1063/5.0058766.
  4. Neese,F.
     The SHARK Integral Generation and Digestion System
     J. Comp. Chem., 2022  1-16
     doi.org/10.1002/jcc.26942
  5. Grimme,S.; Antony,J.; Ehrlich,S.; Krieg,H.
     A consistent and accurate ab initio parametrization of density functional dispersion correction (DFT-D) for the 94 elements H-Pu
     J. Chem. Phys., 2010 132 154104-XXXX
     doi.org/10.1063/1.3382344

List of suggested additional citations. These are papers that are important in the 'surrounding' of 
of this run, or papers that preceded the highly important papers. If you like your results we are grateful for a citation.

  1. Izsak,R.; Neese,F.
     An overlap fitted chain of spheres exchange method
     J. Chem. Phys., 2011 135 144105
     doi.org/10.1063/1.3646921
  2. Izsak,R.; Hansen,A.; Neese,F.
     The resolution of identity and chain of spheres approximations for the LPNO-CCSD singles Fock term
     Molec. Phys., 2012 110 2413-2417
     doi.org/10.1080/00268976.2012.687466
  3. Neese,F.
     The ORCA program system
     WIRES Comput. Molec. Sci., 2012 2(1)73-78
     doi.org/10.1002/wcms.81
  4. Izsak,R.; Neese,F.; Klopper,W.
     Robust fitting techniques in the chain of spheres approximation to the Fock exchange: The role of the complementary space
     J. Chem. Phys., 2013 139 
     doi.org/10.1063/1.4819264
  5. Neese,F.
     Software update: the ORCA program system, version 4.0
     WIRES Comput. Molec. Sci., 2018 8(1)1-6
     doi.org/10.1002/wcms.1327
  6. Neese,F.; Wennmohs,F.; Becker,U.; Riplinger,C.
     The ORCA quantum chemistry program package
     J. Chem. Phys., 2020 152 Art. No. L224108
     doi.org/10.1063/5.0004608

List of optional additional citations

  1. Neese,F.
     Approximate second-order SCF convergence for spin unrestricted wavefunctions
     Chem. Phys. Lett., 2000 325(1-3)93-98
     doi.org/10.1016/s0009-2614(00)00662-x

Timings for individual modules:

Sum of individual times          ...      168.161 sec (=   2.803 min)
Startup calculation              ...        6.118 sec (=   0.102 min)   3.6 %
SCF iterations                   ...      161.727 sec (=   2.695 min)  96.2 %
Property calculations            ...        0.316 sec (=   0.005 min)   0.2 %
                             ****ORCA TERMINATED NORMALLY****
TOTAL RUN TIME: 0 days 0 hours 2 minutes 48 seconds 474 msec
