
                                 *****************
                                 * O   R   C   A *
                                 *****************

                                            #,                                       
                                            ###                                      
                                            ####                                     
                                            #####                                    
                                            ######                                   
                                           ########,                                 
                                     ,,################,,,,,                         
                               ,,#################################,,                 
                          ,,##########################################,,             
                       ,#########################################, ''#####,          
                    ,#############################################,,   '####,        
                  ,##################################################,,,,####,       
                ,###########''''           ''''###############################       
              ,#####''   ,,,,##########,,,,          '''####'''          '####       
            ,##' ,,,,###########################,,,                        '##       
           ' ,,###''''                  '''############,,,                           
         ,,##''                                '''############,,,,        ,,,,,,###''
      ,#''                                            '''#######################'''  
     '                                                          ''''####''''         
             ,#######,   #######,   ,#######,      ##                                
            ,#'     '#,  ##    ##  ,#'     '#,    #''#        ,####,   ,####,        
            ##       ##  ##   ,#'  ##            #'  '#       #'       #'  '#        
            ##       ##  #######   ##           ,######,      #####,   #    #        
            '#,     ,#'  ##    ##  '#,     ,#' ,#      #,     #,   #   #,  ,#        
             '#######'   ##     ##  '#######'  #'      '#     '####' # '####'        



                #########################################################
                #                        -***-                          #
                #          Department of theory and spectroscopy        #
                #                                                       #
                #                      Frank Neese                      #
                #                                                       #
                #     Directorship, Architecture, Infrastructure        #
                #                    SHARK, DRIVERS                     #
                #        Core code/Algorithms in most modules           #
                #                                                       #
                #        Max Planck Institute fuer Kohlenforschung      #
                #                Kaiser Wilhelm Platz 1                 #
                #                 D-45470 Muelheim/Ruhr                 #
                #                      Germany                          #
                #                                                       #
                #                  All rights reserved                  #
                #                        -***-                          #
                #########################################################


                         Program Version 6.0.0  -   RELEASE   -


 With contributions from (in alphabetic order):
   Daniel Aravena         : Magnetic Suceptibility
   Michael Atanasov       : Ab Initio Ligand Field Theory (pilot matlab implementation)
   Alexander A. Auer      : GIAO ZORA, VPT2 properties, NMR spectrum
   Ute Becker             : All parallelization in ORCA, NUMFREQ, NUMCALC
   Giovanni Bistoni       : ED, misc. LED, open-shell LED, HFLD
   Martin Brehm           : Molecular dynamics
   Dmytro Bykov           : pre 5.0 version of the SCF Hessian
   Marcos Casanova-Páez   : Triplet and SCS-CIS(D). UHF-(DLPNO)-IP/EA/STEOM-CCSD. UHF-CVS-IP/STEOM-CCSD
   Vijay G. Chilkuri      : MRCI spin determinant printing, contributions to CSF-ICE
   Pauline Colinet        : FMM embedding
   Dipayan Datta          : RHF DLPNO-CCSD density
   Achintya Kumar Dutta   : EOM-CC, STEOM-CC
   Nicolas Foglia         : Exact transition moments, OPA infrastructure, MCD improvements
   Dmitry Ganyushin       : Spin-Orbit,Spin-Spin,Magnetic field MRCI
   Miquel Garcia          : C-PCM and meta-GGA Hessian, CCSD/C-PCM, Gaussian charge scheme
   Tiago L. C. Gouveia    : GS-ROHF, GS-ROCIS
   Yang Guo               : DLPNO-NEVPT2, F12-NEVPT2, CIM, IAO-localization
   Andreas Hansen         : Spin unrestricted coupled pair/coupled cluster methods
   Ingolf Harden          : AUTO-CI MPn and infrastructure 
   Benjamin Helmich-Paris : MC-RPA, TRAH-(SCF,CASSCF), AVAS, COSX integrals, SCF dyn. polar.
   Lee Huntington         : MR-EOM, pCC
   Robert Izsak           : Overlap fitted RIJCOSX, COSX-SCS-MP3, EOM
   Riya Kayal             : Wick's Theorem for AUTO-CI, AUTO-CI UHF-CCSDT
   Emily Kempfer          : AUTO-CI, RHF CISDT and CCSDT
   Christian Kollmar      : KDIIS, OOCD, Brueckner-CCSD(T), CCSD density, CASPT2, CASPT2-K, improved NEVPT2
   Axel Koslowski         : Symmetry handling
   Simone Kossmann        : Meta GGA functionals, TD-DFT gradient, OOMP2, (MP2 Hessian; deprecated post 5.0)
   Lucas Lang             : DCDCAS
   Marvin Lechner         : AUTO-CI (C++ implementation), FIC-MRCC
   Spencer Leger          : CASSCF response
   Dagmar Lenk            : GEPOL surface, SMD, ORCA-2-JSON
   Dimitrios Liakos       : Extrapolation schemes; Compound Job, initial MDCI parallelization
   Dimitrios Manganas     : Further ROCIS development; embedding schemes. LFT, Crystal Embedding
   Dimitrios Pantazis     : SARC Basis sets
   Anastasios Papadopoulos: AUTO-CI, single reference methods and gradients
   Taras Petrenko         : pre 6.0 DFT Hessian and TD-DFT gradient, (ASA, deprecated), ECA, 1-Electron XAS/XES, NRVS
   Peter Pinski           : DLPNO-MP2, DLPNO-MP2 Gradient
   Christoph Reimann      : Effective Core Potentials
   Marius Retegan         : Local ZFS, SOC
   Christoph Riplinger    : Optimizer, TS searches, QM/MM, DLPNO-CCSD(T), (RO)-DLPNO pert. Triples
   Michael Roemelt        : Original ROCIS implementation
   Masaaki Saitow         : Open-shell DLPNO-CCSD energy and density
   Barbara Sandhoefer     : DKH picture change effects
   Kantharuban Sivalingam : CASSCF convergence/infrastructure, NEVPT2 and variants, FIC-MRCI
   Bernardo de Souza      : ESD, SOC TD-DFT
   Georgi Stoychev        : AutoAux, RI-MP2 NMR, DLPNO-MP2 response, X2C
   Van Anh Tran           : RI-MP2 g-tensors
   Willem Van den Heuvel  : Paramagnetic NMR
   Zikuan Wang            : NOTCH, Electric field optimization 
   Frank Wennmohs         : Technical directorship and infrastructure
   Hang Xu                : AUTO-CI-Response properties 


 We gratefully acknowledge several colleagues who have allowed us to
 interface, adapt or use parts of their codes:
   Stefan Grimme, W. Hujo, H. Kruse, P. Pracht,  : VdW corrections, initial TS optimization,
                  C. Bannwarth, S. Ehlert,         DFT functionals, gCP, sTDA/sTD-DF
                  L. Wittmann, M. Mueller
   Ed Valeev, F. Pavosevic, A. Kumar             : LibInt (2-el integral package), F12 methods
   Garnet Chan, S. Sharma, J. Yang, R. Olivares  : DMRG
   Ulf Ekstrom                                   : XCFun DFT Library
   Mihaly Kallay                                 : mrcc  (arbitrary order and MRCC methods)
   Frank Weinhold                                : gennbo (NPA and NBO analysis)
   Simon Mueller                                 : openCOSMO-RS
   Christopher J. Cramer and Donald G. Truhlar   : smd solvation model
   Lars Goerigk                                  : TD-DFT with DH, B97 family of functionals
   V. Asgeirsson, H. Jonsson                     : NEB implementation
   FAccTs GmbH                                   : IRC, NEB, NEB-TS, DLPNO-Multilevel, CI-OPT
                                                   MM, QMMM, 2- and 3-layer-ONIOM, Crystal-QMMM,
                                                   LR-CPCM, SF, NACMEs, symmetry and pop. for TD-DFT,
                                                   nearIR, NL-DFT gradient (VV10), updates on ESD,
                                                   ML-optimized integration grids, MBIS, APM,
                                                   GOAT, DOCKER, SOLVATOR, interface openCOSMO-RS
   S Lehtola, MJT Oliveira, MAL Marques          : LibXC Library
   Liviu Ungur et al                             : ANISO software


 Your calculation uses the libint2 library for the computation of 2-el integrals
 For citations please refer to: http://libint.valeyev.net

 Your ORCA version has been built with support for libXC version: 6.2.2
 For citations please refer to: https://libxc.gitlab.io

 This ORCA versions uses:
   CBLAS   interface :  Fast vector & matrix operations
   LAPACKE interface :  Fast linear algebra routines
   Shared memory     :  Shared parallel matrices


Your calculation utilizes the atom-pairwise dispersion correction
with the zero-damping scheme (D30)


XCFun DFT library Copyright 2009-2010 Ulf Ekstrom and contributors.
See http://admol.org/xcfun for more information.
This is free software; see the source code for copying conditions.
There is ABSOLUTELY NO WARRANTY; not even for MERCHANTABILITY or FITNESS FOR A PARTICULAR PURPOSE.
For details see the documentation.
Scientific users of this library should cite U. Ekstrom, L. Visscher, R. Bast, A. J. Thorvaldsen and K. Ruud;
J.Chem.Theor.Comp. 2010, DOI: 10.1021/ct100117s
XCFun Version 0.99 

Warning: RI is on but no J-basis has been assigned. Assigning Def2/J (nothing to worry about!)
================================================================================

----- Orbital basis set information -----
Your calculation utilizes the basis: def2-TZVP
   F. Weigend and R. Ahlrichs, Phys. Chem. Chem. Phys. 7, 3297 (2005).

----- AuxJ basis set information -----
Your calculation utilizes the auxiliary basis: def2/J
   F. Weigend, Phys. Chem. Chem. Phys. 8, 1057 (2006).

================================================================================
                                        WARNINGS
                       Please study these warnings very carefully!
================================================================================

WARNING: Functional chosen is sensitive to the integration grid.
         DEFGRID3 seems to be a minimum grid for robust results!

================================================================================
                                       INPUT FILE
================================================================================
NAME = data/single_point_PO_M06-2x/75226/75226.inp
|  1> ! RIJCOSX M062X def2-TZVP D3ZERO NormalSCF
|  2> %pal
|  3> nprocs 6
|  4> end
|  5> 
|  6> * xyz 0 1
|  7>   C          -4.02317625848676     -0.94603054126597     -0.96194960656100
|  8>   C          -2.61070586300170     -0.43425869013355     -1.25831688738439
|  9>   C          -1.56056966866524     -0.95236726897399     -0.26510351545479
| 10>   P           0.15703991069505     -0.53543968468760     -0.79497657295769
| 11>   O           0.49048921920558     -1.01186915646330     -2.19861796450542
| 12>   C           0.31633833864906      1.29757529534185     -0.61693165337559
| 13>   C           0.02639752244216      1.90663172171363      0.76063440653666
| 14>   C           0.16868326403853      3.43295557225560      0.77685163787622
| 15>   C           1.23838297704238     -1.26971670285032      0.50750384868053
| 16>   C           2.72848135350409     -1.04108659247516      0.21600831126073
| 17>   C           3.65116501052750     -1.80199001368125      1.17260093970190
| 18>   H          -4.36402495180788     -0.63933209344501      0.04951964678428
| 19>   H          -4.06453749586208     -2.05472540276344     -1.00296152845724
| 20>   H          -4.75784065675279     -0.55667990907375     -1.69592489168139
| 21>   H          -2.60832429885198      0.67808138410368     -1.25370642938829
| 22>   H          -2.29492398496375     -0.73512937357081     -2.27994945735012
| 23>   H          -1.59234619658670     -2.06308232686545     -0.21728452172159
| 24>   H          -1.74216782084128     -0.57933577740468      0.76665990484739
| 25>   H          -0.35164221021387      1.72528761031817     -1.39592230301135
| 26>   H           1.34914195800437      1.53370953558843     -0.95364447276416
| 27>   H           0.71157331186670      1.46393724755574      1.51628997292599
| 28>   H          -1.00064525931292      1.62954341175837      1.08481322433406
| 29>   H          -0.52913839826462      3.90819046070133      0.05625745538223
| 30>   H           1.19640293486358      3.74381951263082      0.49549175568157
| 31>   H          -0.04695496314714      3.85215595563257      1.78079571306512
| 32>   H           1.00844547443694     -2.35789245210172      0.50234403785964
| 33>   H           0.94688318941862     -0.88302812598006      1.50872565104552
| 34>   H           2.92339621928780     -1.34279573031676     -0.83502652909612
| 35>   H           2.95481104072096      0.04694455862991      0.26781359527168
| 36>   H           3.47754211204085     -2.89677585294228      1.11108180951219
| 37>   H           4.71941505799760     -1.61864873023539      0.93751359802295
| 38>   H           3.48240713201693     -1.49864684099960      2.22747982492050
| 39> **                         ****END OF INPUT****
================================================================================

                       ****************************
                       * Single Point Calculation *
                       ****************************

---------------------------------
CARTESIAN COORDINATES (ANGSTROEM)
---------------------------------
  C     -4.023176   -0.946031   -0.961950
  C     -2.610706   -0.434259   -1.258317
  C     -1.560570   -0.952367   -0.265104
  P      0.157040   -0.535440   -0.794977
  O      0.490489   -1.011869   -2.198618
  C      0.316338    1.297575   -0.616932
  C      0.026398    1.906632    0.760634
  C      0.168683    3.432956    0.776852
  C      1.238383   -1.269717    0.507504
  C      2.728481   -1.041087    0.216008
  C      3.651165   -1.801990    1.172601
  H     -4.364025   -0.639332    0.049520
  H     -4.064537   -2.054725   -1.002962
  H     -4.757841   -0.556680   -1.695925
  H     -2.608324    0.678081   -1.253706
  H     -2.294924   -0.735129   -2.279949
  H     -1.592346   -2.063082   -0.217285
  H     -1.742168   -0.579336    0.766660
  H     -0.351642    1.725288   -1.395922
  H      1.349142    1.533710   -0.953644
  H      0.711573    1.463937    1.516290
  H     -1.000645    1.629543    1.084813
  H     -0.529138    3.908190    0.056257
  H      1.196403    3.743820    0.495492
  H     -0.046955    3.852156    1.780796
  H      1.008445   -2.357892    0.502344
  H      0.946883   -0.883028    1.508726
  H      2.923396   -1.342796   -0.835027
  H      2.954811    0.046945    0.267814
  H      3.477542   -2.896776    1.111082
  H      4.719415   -1.618649    0.937514
  H      3.482407   -1.498647    2.227480

----------------------------
CARTESIAN COORDINATES (A.U.)
----------------------------
  NO LB      ZA    FRAG     MASS         X           Y           Z
   0 C     6.0000    0    12.011   -7.602701   -1.787739   -1.817821
   1 C     6.0000    0    12.011   -4.933519   -0.820630   -2.377874
   2 C     6.0000    0    12.011   -2.949049   -1.799713   -0.500973
   3 P    15.0000    0    30.974    0.296762   -1.011834   -1.502288
   4 O     8.0000    0    15.999    0.926890   -1.912156   -4.154786
   5 C     6.0000    0    12.011    0.597793    2.452062   -1.165832
   6 C     6.0000    0    12.011    0.049884    3.603012    1.437391
   7 C     6.0000    0    12.011    0.318765    6.487346    1.468037
   8 C     6.0000    0    12.011    2.340205   -2.399417    0.959043
   9 C     6.0000    0    12.011    5.156083   -1.967369    0.408197
  10 C     6.0000    0    12.011    6.899702   -3.405268    2.215895
  11 H     1.0000    0     1.008   -8.246812   -1.208163    0.093579
  12 H     1.0000    0     1.008   -7.680863   -3.882868   -1.895323
  13 H     1.0000    0     1.008   -8.991016   -1.051973   -3.204834
  14 H     1.0000    0     1.008   -4.929019    1.281388   -2.369162
  15 H     1.0000    0     1.008   -4.336778   -1.389193   -4.308480
  16 H     1.0000    0     1.008   -3.009098   -3.898661   -0.410608
  17 H     1.0000    0     1.008   -3.292220   -1.094786    1.448777
  18 H     1.0000    0     1.008   -0.664507    3.260321   -2.637911
  19 H     1.0000    0     1.008    2.549509    2.898291   -1.802127
  20 H     1.0000    0     1.008    1.344679    2.766440    2.865373
  21 H     1.0000    0     1.008   -1.890945    3.079391    2.050000
  22 H     1.0000    0     1.008   -0.999927    7.385410    0.106311
  23 H     1.0000    0     1.008    2.260874    7.074794    0.936344
  24 H     1.0000    0     1.008   -0.088732    7.279520    3.365216
  25 H     1.0000    0     1.008    1.905686   -4.455771    0.949293
  26 H     1.0000    0     1.008    1.789350   -1.668681    2.851078
  27 H     1.0000    0     1.008    5.524418   -2.537516   -1.577971
  28 H     1.0000    0     1.008    5.583784    0.088712    0.506094
  29 H     1.0000    0     1.008    6.571602   -5.474113    2.099640
  30 H     1.0000    0     1.008    8.918402   -3.058803    1.771644
  31 H     1.0000    0     1.008    6.580796   -2.832032    4.209327

--------------------------------
INTERNAL COORDINATES (ANGSTROEM)
--------------------------------
 C      0   0   0     0.000000000000     0.00000000     0.00000000
 C      1   0   0     1.531279403269     0.00000000     0.00000000
 C      2   1   0     1.535478859608   113.13432326     0.00000000
 P      3   2   1     1.845203710899   112.00155111   171.17983274
 O      4   3   2     1.519336249482   113.49919561   305.27671595
 C      4   3   2     1.848518298408   106.05831029    69.15973401
 C      6   4   3     1.533852553810   117.64293568    56.28833756
 C      7   6   4     1.533027308167   112.78637245   180.96336623
 C      4   3   2     1.845242752401   104.64830450   181.01147740
 C      9   4   3     1.535459067263   112.05217152   178.94889689
 C     10   9   4     1.531466161601   113.08673896   187.93535432
 H      1   2   3     1.110545730755   111.53584211    59.80099932
 H      1   2   3     1.110223862834   111.15956346   300.04726217
 H      1   2   3     1.109074123779   111.44478120   180.09195654
 H      2   1   3     1.112352178460   109.59570837   237.53400789
 H      2   1   3     1.110844035256   110.46859911   121.21418595
 H      3   2   1     1.112197978651   110.19680205    54.26209002
 H      3   2   1     1.112054916832   112.04101148   295.39349756
 H      6   4   3     1.111738400102   105.20238950   291.75349254
 H      6   4   3     1.111673611412   105.16031083   180.81613808
 H      7   6   4     1.111962047409   109.61917426    58.81989471
 H      7   6   4     1.112064167653   109.72138145   303.07996164
 H      8   7   6     1.109981642830   111.16512504    59.67960342
 H      8   7   6     1.109958330089   111.22914651   300.15537818
 H      8   7   6     1.109113390305   111.58231126   179.89441057
 H      9   4   3     1.112215959250   105.36112849    59.09508544
 H      9   4   3     1.112180416658   110.08961988   304.20488213
 H     10   9   4     1.110717985991   108.02888904   310.57020092
 H     10   9   4     1.112528966159   109.52441251    65.47797267
 H     11  10   9     1.110173656733   111.16916472    59.94011597
 H     11  10   9     1.109070894196   111.45523212   179.94392705
 H     11  10   9     1.110524994969   111.47263657   300.20411806

---------------------------
INTERNAL COORDINATES (A.U.)
---------------------------
 C      0   0   0     0.000000000000     0.00000000     0.00000000
 C      1   0   0     2.893698706693     0.00000000     0.00000000
 C      2   1   0     2.901634529085   113.13432326     0.00000000
 P      3   2   1     3.486929674895   112.00155111   171.17983274
 O      4   3   2     2.871129416859   113.49919561   305.27671595
 C      4   3   2     3.493193337534   106.05831029    69.15973401
 C      6   4   3     2.898561256517   117.64293568    56.28833756
 C      7   6   4     2.897001768259   112.78637245   180.96336623
 C      4   3   2     3.487003452642   104.64830450   181.01147740
 C      9   4   3     2.901597126973   112.05217152   178.94889689
 C     10   9   4     2.894051628794   113.08673896   187.93535432
 H      1   2   3     2.098627290322   111.53584211    59.80099932
 H      1   2   3     2.098019048100   111.15956346   300.04726217
 H      1   2   3     2.095846356161   111.44478120   180.09195654
 H      2   1   3     2.102040981760   109.59570837   237.53400789
 H      2   1   3     2.099191004134   110.46859911   121.21418595
 H      3   2   1     2.101749586351   110.19680205    54.26209002
 H      3   2   1     2.101479238693   112.04101148   295.39349756
 H      6   4   3     2.100881108757   105.20238950   291.75349254
 H      6   4   3     2.100758675877   105.16031083   180.81613808
 H      7   6   4     2.101303740918   109.61917426    58.81989471
 H      7   6   4     2.101496720211   109.72138145   303.07996164
 H      8   7   6     2.097561318629   111.16512504    59.67960342
 H      8   7   6     2.097517263934   111.22914651   300.15537818
 H      8   7   6     2.095920559142   111.58231126   179.89441057
 H      9   4   3     2.101783564760   105.36112849    59.09508544
 H      9   4   3     2.101716398994   110.08961988   304.20488213
 H     10   9   4     2.098952805544   108.02888904   310.57020092
 H     10   9   4     2.102375062095   109.52441251    65.47797267
 H     11  10   9     2.097924172320   111.16916472    59.94011597
 H     11  10   9     2.095840253134   111.45523212   179.94392705
 H     11  10   9     2.098588105367   111.47263657   300.20411806

---------------------
BASIS SET INFORMATION
---------------------
There are 4 groups of distinct atoms

 Group   1 Type C   : 11s6p2d1f contracted to 5s3p2d1f pattern {62111/411/11/1}
 Group   2 Type P   : 14s9p3d1f contracted to 5s5p2d1f pattern {73211/51111/21/1}
 Group   3 Type O   : 11s6p2d1f contracted to 5s3p2d1f pattern {62111/411/11/1}
 Group   4 Type H   : 5s1p contracted to 3s1p pattern {311/1}

Atom   0C    basis set group =>   1
Atom   1C    basis set group =>   1
Atom   2C    basis set group =>   1
Atom   3P    basis set group =>   2
Atom   4O    basis set group =>   3
Atom   5C    basis set group =>   1
Atom   6C    basis set group =>   1
Atom   7C    basis set group =>   1
Atom   8C    basis set group =>   1
Atom   9C    basis set group =>   1
Atom  10C    basis set group =>   1
Atom  11H    basis set group =>   4
Atom  12H    basis set group =>   4
Atom  13H    basis set group =>   4
Atom  14H    basis set group =>   4
Atom  15H    basis set group =>   4
Atom  16H    basis set group =>   4
Atom  17H    basis set group =>   4
Atom  18H    basis set group =>   4
Atom  19H    basis set group =>   4
Atom  20H    basis set group =>   4
Atom  21H    basis set group =>   4
Atom  22H    basis set group =>   4
Atom  23H    basis set group =>   4
Atom  24H    basis set group =>   4
Atom  25H    basis set group =>   4
Atom  26H    basis set group =>   4
Atom  27H    basis set group =>   4
Atom  28H    basis set group =>   4
Atom  29H    basis set group =>   4
Atom  30H    basis set group =>   4
Atom  31H    basis set group =>   4
---------------------------------
AUXILIARY/J BASIS SET INFORMATION
---------------------------------
There are 4 groups of distinct atoms

 Group   1 Type C   : 12s5p4d2f1g contracted to 6s4p3d1f1g pattern {711111/2111/211/2/1}
 Group   2 Type P   : 14s5p5d2f1g contracted to 8s4p3d1f1g pattern {71111111/2111/311/2/1}
 Group   3 Type O   : 12s5p4d2f1g contracted to 6s4p3d1f1g pattern {711111/2111/211/2/1}
 Group   4 Type H   : 5s2p1d contracted to 3s1p1d pattern {311/2/1}

Atom   0C    basis set group =>   1
Atom   1C    basis set group =>   1
Atom   2C    basis set group =>   1
Atom   3P    basis set group =>   2
Atom   4O    basis set group =>   3
Atom   5C    basis set group =>   1
Atom   6C    basis set group =>   1
Atom   7C    basis set group =>   1
Atom   8C    basis set group =>   1
Atom   9C    basis set group =>   1
Atom  10C    basis set group =>   1
Atom  11H    basis set group =>   4
Atom  12H    basis set group =>   4
Atom  13H    basis set group =>   4
Atom  14H    basis set group =>   4
Atom  15H    basis set group =>   4
Atom  16H    basis set group =>   4
Atom  17H    basis set group =>   4
Atom  18H    basis set group =>   4
Atom  19H    basis set group =>   4
Atom  20H    basis set group =>   4
Atom  21H    basis set group =>   4
Atom  22H    basis set group =>   4
Atom  23H    basis set group =>   4
Atom  24H    basis set group =>   4
Atom  25H    basis set group =>   4
Atom  26H    basis set group =>   4
Atom  27H    basis set group =>   4
Atom  28H    basis set group =>   4
Atom  29H    basis set group =>   4
Atom  30H    basis set group =>   4
Atom  31H    basis set group =>   4


           ************************************************************
           *        Program running with 6 parallel MPI-processes     *
           *              working on a common directory               *
           ************************************************************
------------------------------------------------------------------------------
                             ORCA STARTUP CALCULATIONS
                           -- RI-GTO INTEGRALS CHOSEN --
------------------------------------------------------------------------------
------------------------------------------------------------------------------
                   ___                                                        
                  /   \      - P O W E R E D   B Y -                         
                 /     \                                                     
                 |  |  |   _    _      __       _____    __    __             
                 |  |  |  | |  | |    /  \     |  _  \  |  |  /  |          
                  \  \/   | |  | |   /    \    | | | |  |  | /  /          
                 / \  \   | |__| |  /  /\  \   | |_| |  |  |/  /          
                |  |  |   |  __  | /  /__\  \  |    /   |      \           
                |  |  |   | |  | | |   __   |  |    \   |  |\   \          
                \     /   | |  | | |  |  |  |  | |\  \  |  | \   \       
                 \___/    |_|  |_| |__|  |__|  |_| \__\ |__|  \__/        
                                                                              
                      - O R C A' S   B I G   F R I E N D -                    
                                      &                                       
                       - I N T E G R A L  F E E D E R -                       
                                                                              
 v1 FN, 2020, v2 2021, v3 2022-2024                                           
------------------------------------------------------------------------------


----------------------
SHARK INTEGRAL PACKAGE
----------------------

Number of atoms                             ...     32
Number of basis functions                   ...    473
Number of shells                            ...    207
Maximum angular momentum                    ...      3
Integral batch strategy                     ... SHARK/LIBINT Hybrid
RI-J (if used) integral strategy            ... SPLIT-RIJ (Revised 2003 algorithm where possible)
Printlevel                                  ...      1
Contraction scheme used                     ... SEGMENTED contraction
Prescreening option                         ... SCHWARTZ
   Thresh                                   ... 1.000e-10
   Tcut                                     ... 1.000e-11
   Tpresel                                  ... 1.000e-11 
Coulomb Range Separation                    ... NOT USED
Exchange Range Separation                   ... NOT USED
Multipole approximations                    ... NOT USED
Finite Nucleus Model                        ... NOT USED
CABS basis                                  ... NOT available
Auxiliary Coulomb fitting basis             ... AVAILABLE
   # of basis functions in Aux-J            ...    772
   # of shells in Aux-J                     ...    272
   Maximum angular momentum in Aux-J        ...      4
Auxiliary J/K fitting basis                 ... NOT available
Auxiliary Correlation fitting basis         ... NOT available
Auxiliary 'external' fitting basis          ... NOT available

Checking pre-screening integrals            ... done (  0.0 sec) Dimension = 207
Check shell pair data                       ... done (  0.0 sec)
Shell pair information
Shell pair cut-off parameter TPreSel        ...   1.0e-11
Total number of shell pairs                 ...     21528
Shell pairs after pre-screening             ...     17048
Total number of primitive shell pairs       ...     62800
Primitive shell pairs kept                  ...     35094
          la=0 lb=0:   5525 shell pairs
          la=1 lb=0:   5231 shell pairs
          la=1 lb=1:   1290 shell pairs
          la=2 lb=0:   2059 shell pairs
          la=2 lb=1:   1010 shell pairs
          la=2 lb=2:    218 shell pairs
          la=3 lb=0:    991 shell pairs
          la=3 lb=1:    478 shell pairs
          la=3 lb=2:    195 shell pairs
          la=3 lb=3:     51 shell pairs

Calculating one electron integrals          ... done (  0.0 sec)
Calculating RI/J V-Matrix + Cholesky decomp.... done (  0.0 sec)
Calculating Nuclear repulsion               ... done (  0.0 sec) ENN=    777.873015440360 Eh

Diagonalization of the overlap matrix:
Smallest eigenvalue                        ... 1.664e-04
Time for diagonalization                   ...    0.035 sec
Threshold for overlap eigenvalues          ... 1.000e-07
Number of eigenvalues below threshold      ... 0
Time for construction of square roots      ...    0.026 sec
Total time needed                          ...    0.063 sec

-------------------
DFT GRID GENERATION
-------------------

General Integration Accuracy     IntAcc      ... 4.388
Radial Grid Type                 RadialGrid  ... OptM3 with GC (2021)
Angular Grid (max. ang.)         AngularGrid ... 4 (Lebedev-302)
Angular grid pruning method      GridPruning ... 4 (adaptive)
Weight generation scheme         WeightScheme... mBecke (2022)
Basis function cutoff            BFCut       ... 1.0000e-10
Integration weight cutoff        WCut        ... 1.0000e-14
Partially contracted basis set               ... off
Rotationally invariant grid construction     ... off
Angular grids for H and He will be reduced by one unit

Total number of grid points                  ...   133999
Total number of batches                      ...     2105
Average number of points per batch           ...       63
Average number of grid points per atom       ...     4187

--------------------
COSX GRID GENERATION
--------------------

GRIDX 1
-------
General Integration Accuracy     IntAcc      ... 3.816
Radial Grid Type                 RadialGrid  ... OptM3 with GC (2021)
Angular Grid (max. ang.)         AngularGrid ... 1 (Lebedev-50)
Angular grid pruning method      GridPruning ... 4 (adaptive)
Weight generation scheme         WeightScheme... mBecke (2022)
Basis function cutoff            BFCut       ... 1.0000e-10
Integration weight cutoff        WCut        ... 1.0000e-14
Partially contracted basis set               ... on
Rotationally invariant grid construction     ... off
Angular grids for H and He will be reduced by one unit

Total number of grid points                  ...    18097
Total number of batches                      ...      163
Average number of points per batch           ...      111
Average number of grid points per atom       ...      566
UseSFitting                                  ... on

GRIDX 2
-------
General Integration Accuracy     IntAcc      ... 4.020
Radial Grid Type                 RadialGrid  ... OptM3 with GC (2021)
Angular Grid (max. ang.)         AngularGrid ... 2 (Lebedev-110)
Angular grid pruning method      GridPruning ... 4 (adaptive)
Weight generation scheme         WeightScheme... mBecke (2022)
Basis function cutoff            BFCut       ... 1.0000e-10
Integration weight cutoff        WCut        ... 1.0000e-14
Partially contracted basis set               ... on
Rotationally invariant grid construction     ... off
Angular grids for H and He will be reduced by one unit

Total number of grid points                  ...    35197
Total number of batches                      ...      294
Average number of points per batch           ...      119
Average number of grid points per atom       ...     1100
UseSFitting                                  ... on

GRIDX 3
-------
General Integration Accuracy     IntAcc      ... 4.338
Radial Grid Type                 RadialGrid  ... OptM3 with GC (2021)
Angular Grid (max. ang.)         AngularGrid ... 3 (Lebedev-194)
Angular grid pruning method      GridPruning ... 4 (adaptive)
Weight generation scheme         WeightScheme... mBecke (2022)
Basis function cutoff            BFCut       ... 1.0000e-10
Integration weight cutoff        WCut        ... 1.0000e-14
Partially contracted basis set               ... on
Rotationally invariant grid construction     ... off
Angular grids for H and He will be reduced by one unit

Total number of grid points                  ...    77022
Total number of batches                      ...      621
Average number of points per batch           ...      124
Average number of grid points per atom       ...     2407
UseSFitting                                  ... on
Initializing property integral containers    ... done (  0.0 sec)

SHARK setup successfully completed in   2.4 seconds

Maximum memory used throughout the entire STARTUP-calculation: 49.1 MB


           ************************************************************
           *        Program running with 6 parallel MPI-processes     *
           *              working on a common directory               *
           ************************************************************
-------------------------------------------------------------------------------
                                 ORCA GUESS
                   Start orbitals & Density for SCF / CASSCF
-------------------------------------------------------------------------------

------------
SCF SETTINGS
------------
Hamiltonian:
 Density Functional     Method          .... DFT(GTOs)
 Exchange Functional    Exchange        .... M062X
 Correlation Functional Correlation     .... M062X
 Gradients option       PostSCFGGA      .... off
 Hybrid DFT is turned on
   Fraction HF Exchange ScalHFX         ....  0.540000
   Scaling of DF-GGA-X  ScalDFX         ....  0.460000
   Scaling of DF-GGA-C  ScalDFC         ....  1.000000
   Scaling of DF-LDA-C  ScalLDAC        ....  1.000000
   Perturbative correction              ....  0.000000
 RI-approximation to the Coulomb term is turned on
   Number of AuxJ basis functions       .... 772
   RIJ-COSX (HFX calculated with COS-X)).... on


General Settings:
 Integral files         IntName         .... data/single_point_PO_M06-2x/75226/75226
 Hartree-Fock type      HFTyp           .... RHF
 Total Charge           Charge          ....    0
 Multiplicity           Mult            ....    1
 Number of Electrons    NEL             ....   98
 Basis Dimension        Dim             ....  473
 Nuclear Repulsion      ENuc            ....    777.8730154404 Eh

Convergence Acceleration:
 AO-DIIS                CNVDIIS         .... on
   Start iteration      DIISMaxIt       ....    12
   Startup error        DIISStart       ....  0.200000
   # of expansion vecs  DIISMaxEq       ....     5
   Bias factor          DIISBfac        ....   1.050
   Max. coefficient     DIISMaxC        ....  10.000
 MO-DIIS                CNVKDIIS        .... off
 Trust-Rad. Augm. Hess. CNVTRAH         .... auto
   Auto Start mean grad. ratio tolernc. ....  1.125000
   Auto Start start iteration           ....    50
   Auto Start num. interpolation iter.  ....    10
   Max. Number of Micro iterations      ....    24
   Max. Number of Macro iterations      .... Maxiter - #DIIS iter
   Number of Davidson start vectors     ....     2
   Converg. threshold    (grad. norm)   ....   5.000e-05
   Grad. Scal. Fac. for Micro threshold ....   0.100
   Minimum threshold for Micro iter.    ....   1.000e-02
   NR start threshold (gradient norm)   ....   1.000e-04
   Initial trust radius                 ....   0.400
   Minimum AH scaling param. (alpha)    ....   1.000
   Maximum AH scaling param. (alpha)    .... 1000.000
   Quad. conv. algorithm                .... NR
   White noise on init. David. guess    .... on
   Maximum white noise                  ....   0.010
   Pseudo random numbers                .... off
   Inactive MOs                         .... canonical
   Orbital update algorithm             .... Taylor
   Preconditioner                       .... Diag
   Full preconditioner red. dimension   ....   250
 SOSCF                  CNVSOSCF        .... on
   Start iteration      SOSCFMaxIt      ....   150
   Startup grad/error   SOSCFStart      ....  0.003300
   Hessian update       SOSCFHessUp     .... L-BFGS
 Level Shifting         CNVShift        .... on
   Level shift para.    LevelShift      ....    0.2500
   Turn off err/grad.   ShiftErr        ....    0.0010
 Zerner damping         CNVZerner       .... off
 Static damping         CNVDamp         .... on
   Fraction old density DampFac         ....    0.7000
   Max. Damping (<1)    DampMax         ....    0.9800
   Min. Damping (>=0)   DampMin         ....    0.0000
   Turn off err/grad.   DampErr         ....    0.1000

SCF Procedure:
 Maximum # iterations   MaxIter         ....   125
 SCF integral mode      SCFMode         .... Direct
   Integral package                     .... SHARK and LIBINT hybrid scheme
 Reset frequency        DirectResetFreq ....    20
 Integral Threshold     Thresh          ....  1.000e-10 Eh
 Primitive CutOff       TCut            ....  1.000e-11 Eh

Convergence Tolerance:
 Convergence Check Mode ConvCheckMode   .... Total+1el-Energy
 Convergence forced     ConvForced      .... 0
 Energy Change          TolE            ....  1.000e-06 Eh
 1-El. energy change                    ....  1.000e-03 Eh
 Orbital Gradient       TolG            ....  5.000e-05
 Orbital Rotation angle TolX            ....  5.000e-05
 DIIS Error             TolErr          ....  1.000e-05

------------------------------
INITIAL GUESS: MODEL POTENTIAL
------------------------------
Loading Hartree-Fock densities                     ... done
Calculating cut-offs                               ... done
Initializing the effective Hamiltonian             ... done
Setting up the integral package (SHARK)            ... done
Starting the Coulomb interaction                   ... done (   0.2 sec)
Making the grid                                    ... done (   0.3 sec)
Mapping shells                                     ... done
Starting the XC term evaluation                    ... done (   0.3 sec)
  promolecular density results
     # of electrons  =     97.991704021
     EX              =    -82.870989594
     EC              =     -3.279463968
     EX+EC           =    -86.150453562
Transforming the Hamiltonian                       ... done (   0.0 sec)
Diagonalizing the Hamiltonian                      ... done (   0.0 sec)
Back transforming the eigenvectors                 ... done (   0.0 sec)
Now organizing SCF variables                       ... done
                      ------------------
                      INITIAL GUESS DONE (   0.9 sec)
                      ------------------
             **** ENERGY FILE WAS UPDATED (data/single_point_PO_M06-2x/75226/75226.en.tmp) ****
Finished Guess after   1.0 sec
Maximum memory used throughout the entire GUESS-calculation: 32.1 MB


           ************************************************************
           *        Program running with 6 parallel MPI-processes     *
           *              working on a common directory               *
           ************************************************************

-------------------------------------------------------------------------------------------
                                      ORCA LEAN-SCF
                              memory conserving SCF solver
-------------------------------------------------------------------------------------------

----------------------------------------D-I-I-S--------------------------------------------
Iteration    Energy (Eh)           Delta-E    RMSDP     MaxDP     DIISErr   Damp  Time(sec)
-------------------------------------------------------------------------------------------
               ***  Starting incremental Fock matrix formation  ***
    1    -771.6726947159353358     0.00e+00  1.49e-03  1.26e-01  3.68e-01  0.700   7.0
    2    -771.8954991387942073    -2.23e-01  1.24e-03  1.25e-01  1.60e-01  0.700   3.9
                               ***Turning on AO-DIIS***
    3    -771.9928772083709418    -9.74e-02  5.16e-04  3.52e-02  4.80e-02  0.700   3.8
    4    -772.0502076501644524    -5.73e-02  9.44e-04  4.10e-02  3.21e-02  0.000   4.1
    5    -772.1738690959620044    -1.24e-01  1.71e-04  1.69e-02  4.88e-03  0.000   3.7
    6    -772.1741964008411969    -3.27e-04  7.12e-05  7.61e-03  3.93e-03  0.000   3.3
                              *** Initializing SOSCF ***
---------------------------------------S-O-S-C-F--------------------------------------
Iteration    Energy (Eh)           Delta-E    RMSDP     MaxDP     MaxGrad    Time(sec)
--------------------------------------------------------------------------------------
    7    -772.1742282552967254    -3.19e-05  2.67e-05  2.27e-03  9.16e-04     3.2
               *** Restarting incremental Fock matrix formation ***
    8    -772.1742410146056272    -1.28e-05  2.45e-05  2.14e-03  6.75e-05     6.7
    9    -772.1742416531643585    -6.39e-07  7.00e-06  3.55e-04  5.26e-05     4.2
                 **** Energy Check signals convergence ****

               *****************************************************
               *                     SUCCESS                       *
               *           SCF CONVERGED AFTER   9 CYCLES          *
               *****************************************************

Recomputing exchange energy using gridx3       ... done (    9.129 sec)
Old exchange energy                            :    -45.889105307 Eh
New exchange energy                            :    -45.889119246 Eh
Exchange energy change after final integration :     -0.000013939 Eh
Total energy after final integration           :   -772.174255593 Eh
             **** ENERGY FILE WAS UPDATED (data/single_point_PO_M06-2x/75226/75226.en.tmp) ****

----------------
TOTAL SCF ENERGY
----------------

Total Energy       :       -772.17425559262836 Eh          -21011.92972 eV

Components:
Nuclear Repulsion  :        777.87301544036006 Eh           21167.00086 eV
Electronic Energy  :      -1550.04725709352442 Eh          -42178.93020 eV
One Electron Energy:      -2598.64797934934677 Eh          -70712.80649 eV
Two Electron Energy:       1048.60072225582235 Eh           28533.87629 eV

Virial components:
Potential Energy   :      -1540.71251608071793 Eh          -41924.91898 eV
Kinetic Energy     :        768.53826048808958 Eh           20912.98926 eV
Virial Ratio       :          2.00473105281997

DFT components:
N(Alpha)           :       49.000135705516 electrons
N(Beta)            :       49.000135705516 electrons
N(Total)           :       98.000271411031 electrons
E(XC)              :      -42.464014728290 Eh       

---------------
SCF CONVERGENCE
---------------

  Last Energy change         ...    6.3856e-07  Tolerance :   1.0000e-06
  Last MAX-Density change    ...    3.5513e-04  Tolerance :   1.0000e-05
  Last RMS-Density change    ...    6.9994e-06  Tolerance :   1.0000e-06
  Last DIIS Error            ...    9.1610e-04  Tolerance :   1.0000e-05
  Last Orbital Gradient      ...    5.2616e-05  Tolerance :   5.0000e-05
  Last Orbital Rotation      ...    7.5866e-05  Tolerance :   5.0000e-05


----------------
ORBITAL ENERGIES
----------------

  NO   OCC          E(Eh)            E(eV) 
   0   2.0000     -78.081064     -2124.6938 
   1   2.0000     -19.554278      -532.0989 
   2   2.0000     -10.556165      -287.2479 
   3   2.0000     -10.547616      -287.0152 
   4   2.0000     -10.547558      -287.0136 
   5   2.0000     -10.547439      -287.0104 
   6   2.0000     -10.545383      -286.9545 
   7   2.0000     -10.545347      -286.9535 
   8   2.0000     -10.540718      -286.8275 
   9   2.0000     -10.534218      -286.6506 
  10   2.0000     -10.534180      -286.6496 
  11   2.0000      -6.887881      -187.4288 
  12   2.0000      -5.004839      -136.1886 
  13   2.0000      -5.004829      -136.1883 
  14   2.0000      -5.003139      -136.1423 
  15   2.0000      -1.049941       -28.5704 
  16   2.0000      -0.904469       -24.6118 
  17   2.0000      -0.886425       -24.1208 
  18   2.0000      -0.886369       -24.1193 
  19   2.0000      -0.811789       -22.0899 
  20   2.0000      -0.777463       -21.1558 
  21   2.0000      -0.773878       -21.0583 
  22   2.0000      -0.689741       -18.7688 
  23   2.0000      -0.686811       -18.6891 
  24   2.0000      -0.667523       -18.1642 
  25   2.0000      -0.601311       -16.3625 
  26   2.0000      -0.553182       -15.0529 
  27   2.0000      -0.546899       -14.8819 
  28   2.0000      -0.532984       -14.5032 
  29   2.0000      -0.508535       -13.8379 
  30   2.0000      -0.504491       -13.7279 
  31   2.0000      -0.489352       -13.3159 
  32   2.0000      -0.482209       -13.1216 
  33   2.0000      -0.481114       -13.0918 
  34   2.0000      -0.457646       -12.4532 
  35   2.0000      -0.455572       -12.3967 
  36   2.0000      -0.449152       -12.2221 
  37   2.0000      -0.446932       -12.1616 
  38   2.0000      -0.425825       -11.5873 
  39   2.0000      -0.415682       -11.3113 
  40   2.0000      -0.408264       -11.1094 
  41   2.0000      -0.406245       -11.0545 
  42   2.0000      -0.404029       -10.9942 
  43   2.0000      -0.394192       -10.7265 
  44   2.0000      -0.393390       -10.7047 
  45   2.0000      -0.391600       -10.6560 
  46   2.0000      -0.383012       -10.4223 
  47   2.0000      -0.319435        -8.6923 
  48   2.0000      -0.317141        -8.6298 
  49   0.0000       0.042137         1.1466 
  50   0.0000       0.065675         1.7871 
  51   0.0000       0.066449         1.8082 
  52   0.0000       0.084021         2.2863 
  53   0.0000       0.092721         2.5231 
  54   0.0000       0.093020         2.5312 
  55   0.0000       0.094651         2.5756 
  56   0.0000       0.100845         2.7441 
  57   0.0000       0.111067         3.0223 
  58   0.0000       0.119824         3.2606 
  59   0.0000       0.125280         3.4091 
*Only the first 10 virtual orbitals were printed.

                    ********************************
                    * MULLIKEN POPULATION ANALYSIS *
                    ********************************

-----------------------
MULLIKEN ATOMIC CHARGES
-----------------------
   0 C :   -0.423537
   1 C :   -0.265840
   2 C :   -0.415026
   3 P :    0.710546
   4 O :   -0.596968
   5 C :   -0.485625
   6 C :   -0.257221
   7 C :   -0.419777
   8 C :   -0.417782
   9 C :   -0.264646
  10 C :   -0.423475
  11 H :    0.133676
  12 H :    0.142160
  13 H :    0.146554
  14 H :    0.133692
  15 H :    0.178848
  16 H :    0.170625
  17 H :    0.171844
  18 H :    0.191674
  19 H :    0.192656
  20 H :    0.144576
  21 H :    0.144998
  22 H :    0.142032
  23 H :    0.142469
  24 H :    0.145434
  25 H :    0.170586
  26 H :    0.173035
  27 H :    0.178688
  28 H :    0.133444
  29 H :    0.142036
  30 H :    0.146692
  31 H :    0.133631
Sum of atomic charges:   -0.0000000

--------------------------------
MULLIKEN REDUCED ORBITAL CHARGES
--------------------------------
  0 C s       :     3.316358  s :     3.316358
      pz      :     1.060635  p :     3.049712
      px      :     0.938254
      py      :     1.050823
      dz2     :     0.010357  d :     0.054221
      dxz     :     0.017537
      dyz     :     0.002148
      dx2y2   :     0.015354
      dxy     :     0.008826
      f0      :     0.000369  f :     0.003246
      f+1     :     0.000549
      f-1     :     0.000371
      f+2     :     0.000338
      f-2     :     0.000317
      f+3     :     0.000580
      f-3     :     0.000722

  1 C s       :     3.273663  s :     3.273663
      pz      :     0.992205  p :     2.896923
      px      :     0.896436
      py      :     1.008282
      dz2     :     0.024374  d :     0.090150
      dxz     :     0.021332
      dyz     :     0.004555
      dx2y2   :     0.027146
      dxy     :     0.012742
      f0      :     0.000609  f :     0.005104
      f+1     :     0.000980
      f-1     :     0.000487
      f+2     :     0.000696
      f-2     :     0.000584
      f+3     :     0.000917
      f-3     :     0.000831

  2 C s       :     3.246216  s :     3.246216
      pz      :     1.001539  p :     3.095998
      px      :     0.993037
      py      :     1.101422
      dz2     :     0.026372  d :     0.069163
      dxz     :     0.007560
      dyz     :     0.006740
      dx2y2   :     0.020509
      dxy     :     0.007981
      f0      :     0.000522  f :     0.003650
      f+1     :     0.000669
      f-1     :     0.000515
      f+2     :     0.000586
      f-2     :     0.000346
      f+3     :     0.000493
      f-3     :     0.000520

  3 P s       :     5.306305  s :     5.306305
      pz      :     2.626285  p :     8.240082
      px      :     2.813436
      py      :     2.800361
      dz2     :     0.155390  d :     0.676945
      dxz     :     0.188128
      dyz     :     0.142906
      dx2y2   :     0.128877
      dxy     :     0.061644
      f0      :     0.014152  f :     0.066121
      f+1     :     0.012823
      f-1     :     0.010796
      f+2     :     0.009598
      f-2     :     0.008445
      f+3     :     0.006197
      f-3     :     0.004111

  4 O s       :     3.860189  s :     3.860189
      pz      :     1.422338  p :     4.710820
      px      :     1.647289
      py      :     1.641194
      dz2     :     0.008759  d :     0.024708
      dxz     :     0.006650
      dyz     :     0.007069
      dx2y2   :     0.001071
      dxy     :     0.001160
      f0      :     0.000390  f :     0.001251
      f+1     :     0.000283
      f-1     :     0.000331
      f+2     :     0.000113
      f-2     :     0.000117
      f+3     :     0.000009
      f-3     :     0.000008

  5 C s       :     3.275481  s :     3.275481
      pz      :     0.959637  p :     3.140983
      px      :     1.152904
      py      :     1.028442
      dz2     :     0.014185  d :     0.065630
      dxz     :     0.020423
      dyz     :     0.011280
      dx2y2   :     0.013831
      dxy     :     0.005912
      f0      :     0.000745  f :     0.003532
      f+1     :     0.000626
      f-1     :     0.000634
      f+2     :     0.000555
      f-2     :     0.000320
      f+3     :     0.000280
      f-3     :     0.000371

  6 C s       :     3.255618  s :     3.255618
      pz      :     0.913553  p :     2.906538
      px      :     1.036150
      py      :     0.956835
      dz2     :     0.013120  d :     0.090064
      dxz     :     0.016551
      dyz     :     0.027560
      dx2y2   :     0.015515
      dxy     :     0.017317
      f0      :     0.001018  f :     0.005001
      f+1     :     0.000644
      f-1     :     0.000654
      f+2     :     0.000906
      f-2     :     0.000396
      f+3     :     0.000810
      f-3     :     0.000573

  7 C s       :     3.318461  s :     3.318461
      pz      :     1.077214  p :     3.043961
      px      :     1.064522
      py      :     0.902224
      dz2     :     0.007017  d :     0.054099
      dxz     :     0.005782
      dyz     :     0.017324
      dx2y2   :     0.007712
      dxy     :     0.016264
      f0      :     0.000460  f :     0.003256
      f+1     :     0.000261
      f-1     :     0.000449
      f+2     :     0.000552
      f-2     :     0.000208
      f+3     :     0.000745
      f-3     :     0.000581

  8 C s       :     3.246623  s :     3.246623
      pz      :     1.021159  p :     3.098304
      px      :     0.968301
      py      :     1.108843
      dz2     :     0.014143  d :     0.069203
      dxz     :     0.020286
      dyz     :     0.004811
      dx2y2   :     0.013401
      dxy     :     0.016563
      f0      :     0.000453  f :     0.003652
      f+1     :     0.000621
      f-1     :     0.000367
      f+2     :     0.000519
      f-2     :     0.000285
      f+3     :     0.000626
      f-3     :     0.000780

  9 C s       :     3.273431  s :     3.273431
      pz      :     1.024391  p :     2.896025
      px      :     0.859459
      py      :     1.012175
      dz2     :     0.028209  d :     0.090090
      dxz     :     0.017156
      dyz     :     0.004452
      dx2y2   :     0.025547
      dxy     :     0.014726
      f0      :     0.000714  f :     0.005100
      f+1     :     0.000767
      f-1     :     0.000588
      f+2     :     0.000856
      f-2     :     0.000396
      f+3     :     0.000794
      f-3     :     0.000987

 10 C s       :     3.316414  s :     3.316414
      pz      :     1.000442  p :     3.049677
      px      :     1.023263
      py      :     1.025973
      dz2     :     0.022385  d :     0.054139
      dxz     :     0.004115
      dyz     :     0.004140
      dx2y2   :     0.020104
      dxy     :     0.003394
      f0      :     0.000497  f :     0.003244
      f+1     :     0.000506
      f-1     :     0.000524
      f+2     :     0.000454
      f-2     :     0.000321
      f+3     :     0.000470
      f-3     :     0.000473

 11 H s       :     0.848134  s :     0.848134
      pz      :     0.009792  p :     0.018190
      px      :     0.004398
      py      :     0.004000

 12 H s       :     0.839508  s :     0.839508
      pz      :     0.003532  p :     0.018331
      px      :     0.003460
      py      :     0.011339

 13 H s       :     0.834868  s :     0.834868
      pz      :     0.006796  p :     0.018578
      px      :     0.007421
      py      :     0.004362

 14 H s       :     0.847817  s :     0.847817
      pz      :     0.003495  p :     0.018491
      px      :     0.003268
      py      :     0.011728

 15 H s       :     0.802010  s :     0.802010
      pz      :     0.011067  p :     0.019142
      px      :     0.004290
      py      :     0.003785

 16 H s       :     0.809792  s :     0.809792
      pz      :     0.003543  p :     0.019583
      px      :     0.004100
      py      :     0.011940

 17 H s       :     0.808835  s :     0.808835
      pz      :     0.010697  p :     0.019321
      px      :     0.004235
      py      :     0.004388

 18 H s       :     0.788573  s :     0.788573
      pz      :     0.007924  p :     0.019753
      px      :     0.006379
      py      :     0.005450

 19 H s       :     0.787625  s :     0.787625
      pz      :     0.004411  p :     0.019719
      px      :     0.010702
      py      :     0.004606

 20 H s       :     0.836710  s :     0.836710
      pz      :     0.007474  p :     0.018714
      px      :     0.006328
      py      :     0.004913

 21 H s       :     0.836314  s :     0.836314
      pz      :     0.004228  p :     0.018688
      px      :     0.010413
      py      :     0.004047

 22 H s       :     0.839619  s :     0.839619
      pz      :     0.006693  p :     0.018349
      px      :     0.006458
      py      :     0.005198

 23 H s       :     0.839183  s :     0.839183
      pz      :     0.004004  p :     0.018348
      px      :     0.010087
      py      :     0.004257

 24 H s       :     0.836028  s :     0.836028
      pz      :     0.009757  p :     0.018538
      px      :     0.003851
      py      :     0.004929

 25 H s       :     0.809862  s :     0.809862
      pz      :     0.003821  p :     0.019553
      px      :     0.004029
      py      :     0.011703

 26 H s       :     0.807670  s :     0.807670
      pz      :     0.010496  p :     0.019295
      px      :     0.004252
      py      :     0.004548

 27 H s       :     0.802172  s :     0.802172
      pz      :     0.011952  p :     0.019140
      px      :     0.003451
      py      :     0.003738

 28 H s       :     0.848084  s :     0.848084
      pz      :     0.003488  p :     0.018472
      px      :     0.003598
      py      :     0.011386

 29 H s       :     0.839640  s :     0.839640
      pz      :     0.003487  p :     0.018323
      px      :     0.003558
      py      :     0.011278

 30 H s       :     0.834740  s :     0.834740
      pz      :     0.003743  p :     0.018568
      px      :     0.011161
      py      :     0.003664

 31 H s       :     0.848176  s :     0.848176
      pz      :     0.010695  p :     0.018193
      px      :     0.003556
      py      :     0.003943



                     *******************************
                     * LOEWDIN POPULATION ANALYSIS *
                     *******************************

----------------------
LOEWDIN ATOMIC CHARGES
----------------------
   0 C :   -0.323274
   1 C :   -0.320291
   2 C :   -0.375991
   3 P :    0.568543
   4 O :   -0.330420
   5 C :   -0.375623
   6 C :   -0.323647
   7 C :   -0.320036
   8 C :   -0.376156
   9 C :   -0.320109
  10 C :   -0.323263
  11 H :    0.120924
  12 H :    0.123830
  13 H :    0.124170
  14 H :    0.136198
  15 H :    0.150040
  16 H :    0.146774
  17 H :    0.136715
  18 H :    0.147603
  19 H :    0.147858
  20 H :    0.137815
  21 H :    0.137651
  22 H :    0.124167
  23 H :    0.124259
  24 H :    0.123527
  25 H :    0.146663
  26 H :    0.136994
  27 H :    0.149959
  28 H :    0.136259
  29 H :    0.123775
  30 H :    0.124151
  31 H :    0.120936

-------------------------------
LOEWDIN REDUCED ORBITAL CHARGES
-------------------------------
  0 C s       :     2.845642  s :     2.845642
      pz      :     1.072772  p :     3.191668
      px      :     1.045686
      py      :     1.073210
      dz2     :     0.046451  d :     0.261790
      dxz     :     0.079920
      dyz     :     0.012487
      dx2y2   :     0.076407
      dxy     :     0.046524
      f0      :     0.002508  f :     0.024175
      f+1     :     0.003237
      f-1     :     0.002728
      f+2     :     0.002456
      f-2     :     0.004197
      f+3     :     0.003968
      f-3     :     0.005081

  1 C s       :     2.791092  s :     2.791092
      pz      :     1.038050  p :     3.088525
      px      :     1.022237
      py      :     1.028238
      dz2     :     0.097361  d :     0.402409
      dxz     :     0.093584
      dyz     :     0.027589
      dx2y2   :     0.119249
      dxy     :     0.064625
      f0      :     0.003948  f :     0.038266
      f+1     :     0.006447
      f-1     :     0.004173
      f+2     :     0.005155
      f-2     :     0.006394
      f+3     :     0.005775
      f-3     :     0.006374

  2 C s       :     2.841309  s :     2.841309
      pz      :     1.051921  p :     3.191061
      px      :     1.083052
      py      :     1.056087
      dz2     :     0.094093  d :     0.317071
      dxz     :     0.053494
      dyz     :     0.033802
      dx2y2   :     0.096453
      dxy     :     0.039229
      f0      :     0.003017  f :     0.026551
      f+1     :     0.004706
      f-1     :     0.003985
      f+2     :     0.003771
      f-2     :     0.004071
      f+3     :     0.002970
      f-3     :     0.004030

  3 P s       :     4.670499  s :     4.670499
      pz      :     2.745996  p :     8.327861
      px      :     2.789038
      py      :     2.792827
      dz2     :     0.290924  d :     1.208971
      dxz     :     0.308811
      dyz     :     0.247786
      dx2y2   :     0.238536
      dxy     :     0.122914
      f0      :     0.048799  f :     0.224126
      f+1     :     0.042580
      f-1     :     0.039954
      f+2     :     0.030181
      f-2     :     0.028099
      f+3     :     0.019799
      f-3     :     0.014714

  4 O s       :     3.544571  s :     3.544571
      pz      :     1.544698  p :     4.741964
      px      :     1.597327
      py      :     1.599939
      dz2     :     0.018450  d :     0.041806
      dxz     :     0.009241
      dyz     :     0.011280
      dx2y2   :     0.001493
      dxy     :     0.001342
      f0      :     0.000668  f :     0.002078
      f+1     :     0.000454
      f-1     :     0.000596
      f+2     :     0.000179
      f-2     :     0.000155
      f+3     :     0.000014
      f-3     :     0.000013

  5 C s       :     2.839919  s :     2.839919
      pz      :     1.042629  p :     3.194374
      px      :     1.057281
      py      :     1.094464
      dz2     :     0.070812  d :     0.315168
      dxz     :     0.076699
      dyz     :     0.065265
      dx2y2   :     0.074033
      dxy     :     0.028358
      f0      :     0.005233  f :     0.026162
      f+1     :     0.004180
      f-1     :     0.004634
      f+2     :     0.003068
      f-2     :     0.004468
      f+3     :     0.002187
      f-3     :     0.002392

  6 C s       :     2.791142  s :     2.791142
      pz      :     1.023000  p :     3.089471
      px      :     1.031288
      py      :     1.035182
      dz2     :     0.073254  d :     0.404680
      dxz     :     0.075576
      dyz     :     0.108457
      dx2y2   :     0.078423
      dxy     :     0.068971
      f0      :     0.007549  f :     0.038354
      f+1     :     0.004439
      f-1     :     0.005600
      f+2     :     0.005745
      f-2     :     0.005078
      f+3     :     0.006103
      f-3     :     0.003839

  7 C s       :     2.845829  s :     2.845829
      pz      :     1.073795  p :     3.190046
      px      :     1.075708
      py      :     1.040543
      dz2     :     0.036476  d :     0.260078
      dxz     :     0.024674
      dyz     :     0.076079
      dx2y2   :     0.054737
      dxy     :     0.068113
      f0      :     0.003025  f :     0.024083
      f+1     :     0.001543
      f-1     :     0.003429
      f+2     :     0.003738
      f-2     :     0.002980
      f+3     :     0.005675
      f-3     :     0.003694

  8 C s       :     2.841331  s :     2.841331
      pz      :     1.072853  p :     3.191175
      px      :     1.057376
      py      :     1.060946
      dz2     :     0.059936  d :     0.317104
      dxz     :     0.088767
      dyz     :     0.027465
      dx2y2   :     0.074974
      dxy     :     0.065962
      f0      :     0.003009  f :     0.026546
      f+1     :     0.004055
      f-1     :     0.002892
      f+2     :     0.003631
      f-2     :     0.003283
      f+3     :     0.003661
      f-3     :     0.006016

  9 C s       :     2.791120  s :     2.791120
      pz      :     1.047345  p :     3.088406
      px      :     1.010479
      py      :     1.030582
      dz2     :     0.104564  d :     0.402328
      dxz     :     0.081375
      dyz     :     0.029808
      dx2y2   :     0.113384
      dxy     :     0.073197
      f0      :     0.004257  f :     0.038255
      f+1     :     0.005686
      f-1     :     0.004416
      f+2     :     0.006556
      f-2     :     0.004908
      f+3     :     0.005262
      f-3     :     0.007170

 10 C s       :     2.845693  s :     2.845693
      pz      :     1.063834  p :     3.191702
      px      :     1.058919
      py      :     1.068948
      dz2     :     0.091539  d :     0.261703
      dxz     :     0.030341
      dyz     :     0.028627
      dx2y2   :     0.087737
      dxy     :     0.023459
      f0      :     0.002533  f :     0.024166
      f+1     :     0.003766
      f-1     :     0.004138
      f+2     :     0.003887
      f-2     :     0.003849
      f+3     :     0.003041
      f-3     :     0.002952

 11 H s       :     0.821642  s :     0.821642
      pz      :     0.030168  p :     0.057434
      px      :     0.013446
      py      :     0.013821

 12 H s       :     0.818627  s :     0.818627
      pz      :     0.012130  p :     0.057543
      px      :     0.011451
      py      :     0.033962

 13 H s       :     0.818057  s :     0.818057
      pz      :     0.021933  p :     0.057773
      px      :     0.020975
      py      :     0.014865

 14 H s       :     0.808325  s :     0.808325
      pz      :     0.012095  p :     0.055477
      px      :     0.011418
      py      :     0.031964

 15 H s       :     0.792788  s :     0.792788
      pz      :     0.030367  p :     0.057172
      px      :     0.013267
      py      :     0.013539

 16 H s       :     0.794044  s :     0.794044
      pz      :     0.011916  p :     0.059183
      px      :     0.013253
      py      :     0.034013

 17 H s       :     0.803789  s :     0.803789
      pz      :     0.030479  p :     0.059496
      px      :     0.014113
      py      :     0.014904

 18 H s       :     0.792655  s :     0.792655
      pz      :     0.022552  p :     0.059742
      px      :     0.020220
      py      :     0.016971

 19 H s       :     0.792384  s :     0.792384
      pz      :     0.013764  p :     0.059758
      px      :     0.031208
      py      :     0.014787

 20 H s       :     0.806503  s :     0.806503
      pz      :     0.020696  p :     0.055681
      px      :     0.020161
      py      :     0.014824

 21 H s       :     0.806663  s :     0.806663
      pz      :     0.013089  p :     0.055686
      px      :     0.029689
      py      :     0.012908

 22 H s       :     0.818158  s :     0.818158
      pz      :     0.021562  p :     0.057675
      px      :     0.020875
      py      :     0.015237

 23 H s       :     0.818047  s :     0.818047
      pz      :     0.013621  p :     0.057693
      px      :     0.031092
      py      :     0.012981

 24 H s       :     0.818624  s :     0.818624
      pz      :     0.030324  p :     0.057850
      px      :     0.013067
      py      :     0.014459

 25 H s       :     0.794159  s :     0.794159
      pz      :     0.012634  p :     0.059178
      px      :     0.012992
      py      :     0.033551

 26 H s       :     0.803538  s :     0.803538
      pz      :     0.030500  p :     0.059468
      px      :     0.013671
      py      :     0.015296

 27 H s       :     0.792879  s :     0.792879
      pz      :     0.032246  p :     0.057163
      px      :     0.011433
      py      :     0.013483

 28 H s       :     0.808296  s :     0.808296
      pz      :     0.012312  p :     0.055445
      px      :     0.012047
      py      :     0.031086

 29 H s       :     0.818666  s :     0.818666
      pz      :     0.011927  p :     0.057558
      px      :     0.012400
      py      :     0.033231

 30 H s       :     0.818070  s :     0.818070
      pz      :     0.012906  p :     0.057780
      px      :     0.032240
      py      :     0.012633

 31 H s       :     0.821625  s :     0.821625
      pz      :     0.031285  p :     0.057439
      px      :     0.012442
      py      :     0.013711



                      *****************************
                      * MAYER POPULATION ANALYSIS *
                      *****************************

  NA   - Mulliken gross atomic population
  ZA   - Total nuclear charge
  QA   - Mulliken gross atomic charge
  VA   - Mayer's total valence
  BVA  - Mayer's bonded valence
  FA   - Mayer's free valence

  ATOM       NA         ZA         QA         VA         BVA        FA
  0 C      6.4235     6.0000    -0.4235     3.8464     3.8464    -0.0000
  1 C      6.2658     6.0000    -0.2658     3.7544     3.7544    -0.0000
  2 C      6.4150     6.0000    -0.4150     3.6440     3.6440     0.0000
  3 P     14.2895    15.0000     0.7105     4.7936     4.7936    -0.0000
  4 O      8.5970     8.0000    -0.5970     1.9932     1.9932    -0.0000
  5 C      6.4856     6.0000    -0.4856     3.6259     3.6259    -0.0000
  6 C      6.2572     6.0000    -0.2572     3.7304     3.7304    -0.0000
  7 C      6.4198     6.0000    -0.4198     3.8592     3.8592     0.0000
  8 C      6.4178     6.0000    -0.4178     3.6455     3.6455    -0.0000
  9 C      6.2646     6.0000    -0.2646     3.7547     3.7547    -0.0000
 10 C      6.4235     6.0000    -0.4235     3.8446     3.8446    -0.0000
 11 H      0.8663     1.0000     0.1337     0.9546     0.9546    -0.0000
 12 H      0.8578     1.0000     0.1422     0.9565     0.9565     0.0000
 13 H      0.8534     1.0000     0.1466     0.9586     0.9586    -0.0000
 14 H      0.8663     1.0000     0.1337     0.9493     0.9493    -0.0000
 15 H      0.8212     1.0000     0.1788     0.9609     0.9609    -0.0000
 16 H      0.8294     1.0000     0.1706     0.9615     0.9615     0.0000
 17 H      0.8282     1.0000     0.1718     0.9412     0.9412    -0.0000
 18 H      0.8083     1.0000     0.1917     0.9531     0.9531    -0.0000
 19 H      0.8073     1.0000     0.1927     0.9532     0.9532    -0.0000
 20 H      0.8554     1.0000     0.1446     0.9432     0.9432    -0.0000
 21 H      0.8550     1.0000     0.1450     0.9437     0.9437     0.0000
 22 H      0.8580     1.0000     0.1420     0.9564     0.9564     0.0000
 23 H      0.8575     1.0000     0.1425     0.9563     0.9563    -0.0000
 24 H      0.8546     1.0000     0.1454     0.9577     0.9577     0.0000
 25 H      0.8294     1.0000     0.1706     0.9617     0.9617     0.0000
 26 H      0.8270     1.0000     0.1730     0.9407     0.9407    -0.0000
 27 H      0.8213     1.0000     0.1787     0.9608     0.9608    -0.0000
 28 H      0.8666     1.0000     0.1334     0.9498     0.9498    -0.0000
 29 H      0.8580     1.0000     0.1420     0.9565     0.9565    -0.0000
 30 H      0.8533     1.0000     0.1467     0.9587     0.9587    -0.0000
 31 H      0.8664     1.0000     0.1336     0.9547     0.9547    -0.0000

  Mayer bond orders larger than 0.100000
B(  0-C ,  1-C ) :   0.9445 B(  0-C , 11-H ) :   0.9718 B(  0-C , 12-H ) :   0.9756 
B(  0-C , 13-H ) :   0.9797 B(  1-C ,  2-C ) :   0.9062 B(  1-C , 14-H ) :   0.9703 
B(  1-C , 15-H ) :   0.9656 B(  2-C ,  3-P ) :   0.9041 B(  2-C , 16-H ) :   0.9436 
B(  2-C , 17-H ) :   0.9451 B(  3-P ,  4-O ) :   1.9740 B(  3-P ,  5-C ) :   0.9070 
B(  3-P ,  8-C ) :   0.9040 B(  5-C ,  6-C ) :   0.8555 B(  5-C , 18-H ) :   0.9513 
B(  5-C , 19-H ) :   0.9503 B(  6-C ,  7-C ) :   0.9557 B(  6-C , 20-H ) :   0.9681 
B(  6-C , 21-H ) :   0.9687 B(  7-C , 22-H ) :   0.9739 B(  7-C , 23-H ) :   0.9736 
B(  7-C , 24-H ) :   0.9768 B(  8-C ,  9-C ) :   0.9075 B(  8-C , 25-H ) :   0.9435 
B(  8-C , 26-H ) :   0.9447 B(  9-C , 10-C ) :   0.9437 B(  9-C , 27-H ) :   0.9661 
B(  9-C , 28-H ) :   0.9701 B( 10-C , 29-H ) :   0.9753 B( 10-C , 30-H ) :   0.9798 
B( 10-C , 31-H ) :   0.9718 

-------
TIMINGS
-------

Total SCF time: 0 days 0 hours 0 min 49 sec 

Total time                  ....      49.353 sec
Sum of individual times     ....      49.348 sec  (100.0%)

SCF preparation             ....       0.192 sec  (  0.4%)
Fock matrix formation       ....      47.769 sec  ( 96.8%)
  Startup                   ....       0.044 sec  (  0.1% of F)
  Split-RI-J                ....       3.268 sec  (  6.8% of F)
  Chain of spheres X        ....      32.412 sec  ( 67.9% of F)
  XC integration            ....      11.884 sec  ( 24.9% of F)
    Basis function eval.    ....       1.717 sec  ( 14.4% of XC)
    Density eval.           ....       4.545 sec  ( 38.2% of XC)
    XC-Functional eval.     ....       0.326 sec  (  2.7% of XC)
    XC-Potential eval.      ....       4.447 sec  ( 37.4% of XC)
Diagonalization             ....       0.000 sec  (  0.0%)
Density matrix formation    ....       0.118 sec  (  0.2%)
Total Energy calculation    ....       0.049 sec  (  0.1%)
Population analysis         ....       0.101 sec  (  0.2%)
Orbital Transformation      ....       0.159 sec  (  0.3%)
Orbital Orthonormalization  ....       0.000 sec  (  0.0%)
DIIS solution               ....       0.768 sec  (  1.6%)
SOSCF solution              ....       0.192 sec  (  0.4%)
Finished LeanSCF after  49.4 sec

Maximum memory used throughout the entire LEANSCF-calculation: 58.2 MB


-------------------------------------------------------------------------------
                          DFT DISPERSION CORRECTION                            
                                                                               
                              DFTD3 V3.1  Rev 1                                
                              USING zero damping                               
-------------------------------------------------------------------------------
The M062X functional is recognized
Active option DFTDOPT                   ...         3   

molecular C6(AA) [au] = 8263.472542 


            DFT-D V3
 parameters
 s6 scaling factor         :     1.0000 
 rs6 scaling factor        :     1.6190 
 s8 scaling factor         :     0.0000 
 rs8 scaling factor        :     1.0000 
 Damping factor alpha6     :    14.0000 
 Damping factor alpha8     :    16.0000 
 ad hoc parameters k1-k3   :    16.0000     1.3333    -4.0000 

 Edisp/kcal,au: -0.934293476725  -0.001488891269 
 E6   /kcal   :  -0.934293477 
 E8   /kcal   :  -0.000000000 
 % E8         :   0.000000000 

-------------------------   ----------------
Dispersion correction           -0.001488891
-------------------------   ----------------


-------------------------   --------------------
FINAL SINGLE POINT ENERGY      -772.175744483897
-------------------------   --------------------



           ************************************************************
           *        Program running with 6 parallel MPI-processes     *
           *              working on a common directory               *
           ************************************************************

------------------------------------------------------------------------------
                              ORCA PROPERTY CALCULATIONS
------------------------------------------------------------------------------

GBWName                                 ... data/single_point_PO_M06-2x/75226/75226.gbw
Number of atoms                         ...     32
Number of basis functions               ...    473
Max core memory                         ...   1024 MB

Electric properties:
Dipole moment                           ... YES
Quadrupole moment                       ...  NO
Static polarizability (Dipole/Dipole)   ...  NO
Static polarizability (Dipole/Quad.)    ...  NO
Static polarizability (Quad./Quad.)     ...  NO
Static polarizability (Velocity)        ...  NO

Atomic electric properties:
Dipole moment                           ...  NO
Quadrupole moment                       ...  NO
Static polarizability                   ...  NO

Choice of electric origin               ... Center of mass
Position of electric origin             ...     0.121631    -0.312072    -0.569667

General magnetic properties:
Magnetizability                         ...  NO

EPR properties:
g-Tensor (aka g-matrix)                 ...  NO
Zero-Field splitting spin-orbit         ...  NO
Zero-field splitting spin-spin          ...  NO
Hyperfine couplings                     ...  NO (   0 nuclei)
Quadrupole couplings                    ...  NO (   0 nuclei)
Contact density                         ...  NO (   0 nuclei)

NMR properties:
Chemical shifts                         ...  NO (   0 nuclei)
Spin-rotation constants                 ...  NO (   0 nuclei)
Spin-spin couplings                     ...  NO (   0 nuclei,    0 pairs)

Choice of magnetic origin               ... GIAO
Position of magnetic origin             ...     0.000000     0.000000     0.000000

Properties with geometric perturbations:
SCF Hessian                             ...  NO
IR spectrum                             ...  NO
VCD spectrum                            ...  NO
X-ray spectroscopy properties:
SCF XES/XAS/RIXS spectra                ...  NO


-------------
DIPOLE MOMENT
-------------

Method             : SCF
Type of density    : Electron Density
Multiplicity       :   1
Irrep              :   0
Energy             :  -772.1742555926283558 Eh
Relativity type    : 
Basis              : AO
                                X                 Y                 Z
Electronic contribution:      1.535000252      -4.241242428      -7.315851166
Nuclear contribution   :     -1.891101579       4.843690793       8.857344203
                        -----------------------------------------
Total Dipole Moment    :     -0.356101327       0.602448365       1.541493038
                        -----------------------------------------
Magnitude (a.u.)       :      1.692912571
Magnitude (Debye)      :      4.303041787



--------------------
Rotational spectrum 
--------------------
 
Rotational constants in cm-1:             0.031488             0.018927             0.013948 
Rotational constants in MHz :           943.981715           567.430345           418.139968 

Dipole components along the rotational axes: 
x,y,z [a.u.] :     0.007008    -1.007471     1.360480 
x,y,z [Debye]:     0.017812    -2.560788     3.458065 

 

Dipole moment calculation done in   0.0 sec 

Maximum memory used throughout the entire PROP-calculation: 29.1 MB

--------------------------------
SUGGESTED CITATIONS FOR THIS RUN
--------------------------------

Below you find a list of papers that are relevant to this ORCA run
We neither can nor want to force you to cite these papers, but we appreciate if you do
You receive ORCA, which is the product of decades of hard work by many enthusiastic individuals, for free
The only thing we kindly ask in return is that you cite our papers,
We deeply appreciate it, if you show your appreciation for ORCA by not just citing the generic ORCA reference.

Please note that relegating all ORCA citations to the supporting information does *not* help us.
SI sections are not indexed - citations you put there will not count into any citation statistics
But we need these citations in order to attract the funding resources that allow us to do what we are doing

Therefore, if you are a happy ORCA user, please consider citing a few of the papers listed below in the main body of your paper

In addition to the list printed below, the program has created the file data/single_point_PO_M06-2x/75226/75226.bibtex that contains the list in bibtex format
You can import this file easily into all common literature databanks and citation aid programs


List of essential papers. We consider these as the minimum necessary citations

  1. Neese,F.
     Software update: the ORCA program system, version 5.0
     WIRES Comput. Molec. Sci., 2022 12(1)e1606
     doi.org/10.1002/wcms.1606

List of papers to cite with high priority. The work reported in these papers was absolutely
necessary for this run to complete.
Our perspective: the developers of density functionals and basis sets usually get cited in chemistry papers
Good! But without the algorithms to do something with them, the functionals or basis sets would not do anything.
Hence, in our opinion, the algorithm design and method developments papers are equally worthy of getting cited

  1. Neese,F.
     An improvement of the resolution of the identity approximation for the formation of the Coulomb matrix
     J. Comp. Chem., 2003 24(14)1740-1747
     doi.org/10.1002/jcc.10318
  2. Neese,F.; Wennmohs,F.; Hansen,A.; Becker,U.
     Efficient, approximate and parallel Hartree-Fock and hybrid DFT calculations. A 'chain-of-spheres' algorithm for the Hartree-Fock exchange
     Chem. Phys., 2009 356(1-3)98-109
     doi.org/10.1016/j.chemphys.2008.10.036
  3. Helmich-Paris,B.; de Souza,B.; Neese,F.; Izsák,R.
     An improved chain of spheres for exchange algorithm
     J. Chem. Phys., 2021 155 104109
     doi.org/doi: 10.1063/5.0058766.
  4. Neese,F.
     The SHARK Integral Generation and Digestion System
     J. Comp. Chem., 2022  1-16
     doi.org/10.1002/jcc.26942
  5. Grimme,S.; Antony,J.; Ehrlich,S.; Krieg,H.
     A consistent and accurate ab initio parametrization of density functional dispersion correction (DFT-D) for the 94 elements H-Pu
     J. Chem. Phys., 2010 132 154104-XXXX
     doi.org/10.1063/1.3382344

List of suggested additional citations. These are papers that are important in the 'surrounding' of 
of this run, or papers that preceded the highly important papers. If you like your results we are grateful for a citation.

  1. Izsak,R.; Neese,F.
     An overlap fitted chain of spheres exchange method
     J. Chem. Phys., 2011 135 144105
     doi.org/10.1063/1.3646921
  2. Izsak,R.; Hansen,A.; Neese,F.
     The resolution of identity and chain of spheres approximations for the LPNO-CCSD singles Fock term
     Molec. Phys., 2012 110 2413-2417
     doi.org/10.1080/00268976.2012.687466
  3. Neese,F.
     The ORCA program system
     WIRES Comput. Molec. Sci., 2012 2(1)73-78
     doi.org/10.1002/wcms.81
  4. Izsak,R.; Neese,F.; Klopper,W.
     Robust fitting techniques in the chain of spheres approximation to the Fock exchange: The role of the complementary space
     J. Chem. Phys., 2013 139 
     doi.org/10.1063/1.4819264
  5. Neese,F.
     Software update: the ORCA program system, version 4.0
     WIRES Comput. Molec. Sci., 2018 8(1)1-6
     doi.org/10.1002/wcms.1327
  6. Neese,F.; Wennmohs,F.; Becker,U.; Riplinger,C.
     The ORCA quantum chemistry program package
     J. Chem. Phys., 2020 152 Art. No. L224108
     doi.org/10.1063/5.0004608

List of optional additional citations

  1. Neese,F.
     Approximate second-order SCF convergence for spin unrestricted wavefunctions
     Chem. Phys. Lett., 2000 325(1-3)93-98
     doi.org/10.1016/s0009-2614(00)00662-x

Timings for individual modules:

Sum of individual times          ...       53.371 sec (=   0.890 min)
Startup calculation              ...        2.586 sec (=   0.043 min)   4.8 %
SCF iterations                   ...       50.590 sec (=   0.843 min)  94.8 %
Property calculations            ...        0.195 sec (=   0.003 min)   0.4 %
                             ****ORCA TERMINATED NORMALLY****
TOTAL RUN TIME: 0 days 0 hours 0 minutes 53 seconds 597 msec
