
                                 *****************
                                 * O   R   C   A *
                                 *****************

                                            #,                                       
                                            ###                                      
                                            ####                                     
                                            #####                                    
                                            ######                                   
                                           ########,                                 
                                     ,,################,,,,,                         
                               ,,#################################,,                 
                          ,,##########################################,,             
                       ,#########################################, ''#####,          
                    ,#############################################,,   '####,        
                  ,##################################################,,,,####,       
                ,###########''''           ''''###############################       
              ,#####''   ,,,,##########,,,,          '''####'''          '####       
            ,##' ,,,,###########################,,,                        '##       
           ' ,,###''''                  '''############,,,                           
         ,,##''                                '''############,,,,        ,,,,,,###''
      ,#''                                            '''#######################'''  
     '                                                          ''''####''''         
             ,#######,   #######,   ,#######,      ##                                
            ,#'     '#,  ##    ##  ,#'     '#,    #''#        ,####,   ,####,        
            ##       ##  ##   ,#'  ##            #'  '#       #'       #'  '#        
            ##       ##  #######   ##           ,######,      #####,   #    #        
            '#,     ,#'  ##    ##  '#,     ,#' ,#      #,     #,   #   #,  ,#        
             '#######'   ##     ##  '#######'  #'      '#     '####' # '####'        



                #########################################################
                #                        -***-                          #
                #          Department of theory and spectroscopy        #
                #                                                       #
                #                      Frank Neese                      #
                #                                                       #
                #     Directorship, Architecture, Infrastructure        #
                #                    SHARK, DRIVERS                     #
                #        Core code/Algorithms in most modules           #
                #                                                       #
                #        Max Planck Institute fuer Kohlenforschung      #
                #                Kaiser Wilhelm Platz 1                 #
                #                 D-45470 Muelheim/Ruhr                 #
                #                      Germany                          #
                #                                                       #
                #                  All rights reserved                  #
                #                        -***-                          #
                #########################################################


                         Program Version 6.0.0  -   RELEASE   -


 With contributions from (in alphabetic order):
   Daniel Aravena         : Magnetic Suceptibility
   Michael Atanasov       : Ab Initio Ligand Field Theory (pilot matlab implementation)
   Alexander A. Auer      : GIAO ZORA, VPT2 properties, NMR spectrum
   Ute Becker             : All parallelization in ORCA, NUMFREQ, NUMCALC
   Giovanni Bistoni       : ED, misc. LED, open-shell LED, HFLD
   Martin Brehm           : Molecular dynamics
   Dmytro Bykov           : pre 5.0 version of the SCF Hessian
   Marcos Casanova-Páez   : Triplet and SCS-CIS(D). UHF-(DLPNO)-IP/EA/STEOM-CCSD. UHF-CVS-IP/STEOM-CCSD
   Vijay G. Chilkuri      : MRCI spin determinant printing, contributions to CSF-ICE
   Pauline Colinet        : FMM embedding
   Dipayan Datta          : RHF DLPNO-CCSD density
   Achintya Kumar Dutta   : EOM-CC, STEOM-CC
   Nicolas Foglia         : Exact transition moments, OPA infrastructure, MCD improvements
   Dmitry Ganyushin       : Spin-Orbit,Spin-Spin,Magnetic field MRCI
   Miquel Garcia          : C-PCM and meta-GGA Hessian, CCSD/C-PCM, Gaussian charge scheme
   Tiago L. C. Gouveia    : GS-ROHF, GS-ROCIS
   Yang Guo               : DLPNO-NEVPT2, F12-NEVPT2, CIM, IAO-localization
   Andreas Hansen         : Spin unrestricted coupled pair/coupled cluster methods
   Ingolf Harden          : AUTO-CI MPn and infrastructure 
   Benjamin Helmich-Paris : MC-RPA, TRAH-(SCF,CASSCF), AVAS, COSX integrals, SCF dyn. polar.
   Lee Huntington         : MR-EOM, pCC
   Robert Izsak           : Overlap fitted RIJCOSX, COSX-SCS-MP3, EOM
   Riya Kayal             : Wick's Theorem for AUTO-CI, AUTO-CI UHF-CCSDT
   Emily Kempfer          : AUTO-CI, RHF CISDT and CCSDT
   Christian Kollmar      : KDIIS, OOCD, Brueckner-CCSD(T), CCSD density, CASPT2, CASPT2-K, improved NEVPT2
   Axel Koslowski         : Symmetry handling
   Simone Kossmann        : Meta GGA functionals, TD-DFT gradient, OOMP2, (MP2 Hessian; deprecated post 5.0)
   Lucas Lang             : DCDCAS
   Marvin Lechner         : AUTO-CI (C++ implementation), FIC-MRCC
   Spencer Leger          : CASSCF response
   Dagmar Lenk            : GEPOL surface, SMD, ORCA-2-JSON
   Dimitrios Liakos       : Extrapolation schemes; Compound Job, initial MDCI parallelization
   Dimitrios Manganas     : Further ROCIS development; embedding schemes. LFT, Crystal Embedding
   Dimitrios Pantazis     : SARC Basis sets
   Anastasios Papadopoulos: AUTO-CI, single reference methods and gradients
   Taras Petrenko         : pre 6.0 DFT Hessian and TD-DFT gradient, (ASA, deprecated), ECA, 1-Electron XAS/XES, NRVS
   Peter Pinski           : DLPNO-MP2, DLPNO-MP2 Gradient
   Christoph Reimann      : Effective Core Potentials
   Marius Retegan         : Local ZFS, SOC
   Christoph Riplinger    : Optimizer, TS searches, QM/MM, DLPNO-CCSD(T), (RO)-DLPNO pert. Triples
   Michael Roemelt        : Original ROCIS implementation
   Masaaki Saitow         : Open-shell DLPNO-CCSD energy and density
   Barbara Sandhoefer     : DKH picture change effects
   Kantharuban Sivalingam : CASSCF convergence/infrastructure, NEVPT2 and variants, FIC-MRCI
   Bernardo de Souza      : ESD, SOC TD-DFT
   Georgi Stoychev        : AutoAux, RI-MP2 NMR, DLPNO-MP2 response, X2C
   Van Anh Tran           : RI-MP2 g-tensors
   Willem Van den Heuvel  : Paramagnetic NMR
   Zikuan Wang            : NOTCH, Electric field optimization 
   Frank Wennmohs         : Technical directorship and infrastructure
   Hang Xu                : AUTO-CI-Response properties 


 We gratefully acknowledge several colleagues who have allowed us to
 interface, adapt or use parts of their codes:
   Stefan Grimme, W. Hujo, H. Kruse, P. Pracht,  : VdW corrections, initial TS optimization,
                  C. Bannwarth, S. Ehlert,         DFT functionals, gCP, sTDA/sTD-DF
                  L. Wittmann, M. Mueller
   Ed Valeev, F. Pavosevic, A. Kumar             : LibInt (2-el integral package), F12 methods
   Garnet Chan, S. Sharma, J. Yang, R. Olivares  : DMRG
   Ulf Ekstrom                                   : XCFun DFT Library
   Mihaly Kallay                                 : mrcc  (arbitrary order and MRCC methods)
   Frank Weinhold                                : gennbo (NPA and NBO analysis)
   Simon Mueller                                 : openCOSMO-RS
   Christopher J. Cramer and Donald G. Truhlar   : smd solvation model
   Lars Goerigk                                  : TD-DFT with DH, B97 family of functionals
   V. Asgeirsson, H. Jonsson                     : NEB implementation
   FAccTs GmbH                                   : IRC, NEB, NEB-TS, DLPNO-Multilevel, CI-OPT
                                                   MM, QMMM, 2- and 3-layer-ONIOM, Crystal-QMMM,
                                                   LR-CPCM, SF, NACMEs, symmetry and pop. for TD-DFT,
                                                   nearIR, NL-DFT gradient (VV10), updates on ESD,
                                                   ML-optimized integration grids, MBIS, APM,
                                                   GOAT, DOCKER, SOLVATOR, interface openCOSMO-RS
   S Lehtola, MJT Oliveira, MAL Marques          : LibXC Library
   Liviu Ungur et al                             : ANISO software


 Your calculation uses the libint2 library for the computation of 2-el integrals
 For citations please refer to: http://libint.valeyev.net

 Your ORCA version has been built with support for libXC version: 6.2.2
 For citations please refer to: https://libxc.gitlab.io

 This ORCA versions uses:
   CBLAS   interface :  Fast vector & matrix operations
   LAPACKE interface :  Fast linear algebra routines
   Shared memory     :  Shared parallel matrices


Your calculation utilizes the atom-pairwise dispersion correction
with the zero-damping scheme (D30)


XCFun DFT library Copyright 2009-2010 Ulf Ekstrom and contributors.
See http://admol.org/xcfun for more information.
This is free software; see the source code for copying conditions.
There is ABSOLUTELY NO WARRANTY; not even for MERCHANTABILITY or FITNESS FOR A PARTICULAR PURPOSE.
For details see the documentation.
Scientific users of this library should cite U. Ekstrom, L. Visscher, R. Bast, A. J. Thorvaldsen and K. Ruud;
J.Chem.Theor.Comp. 2010, DOI: 10.1021/ct100117s
XCFun Version 0.99 

Warning: RI is on but no J-basis has been assigned. Assigning Def2/J (nothing to worry about!)
================================================================================

----- Orbital basis set information -----
Your calculation utilizes the basis: def2-TZVP
   F. Weigend and R. Ahlrichs, Phys. Chem. Chem. Phys. 7, 3297 (2005).

----- AuxJ basis set information -----
Your calculation utilizes the auxiliary basis: def2/J
   F. Weigend, Phys. Chem. Chem. Phys. 8, 1057 (2006).

================================================================================
                                        WARNINGS
                       Please study these warnings very carefully!
================================================================================

WARNING: Functional chosen is sensitive to the integration grid.
         DEFGRID3 seems to be a minimum grid for robust results!

================================================================================
                                       INPUT FILE
================================================================================
NAME = data/single_point_PO_M06-2x/80969/80969.inp
|  1> ! RIJCOSX M062X def2-TZVP D3ZERO NormalSCF
|  2> %pal
|  3> nprocs 6
|  4> end
|  5> 
|  6> * xyz 0 1
|  7>   C           0.16311418812446      2.69301195350375     -0.93085392938382
|  8>   C          -0.56454704918702      1.54277340472109     -0.21775453602346
|  9>   C          -0.72612955629062      1.78676320857503      1.28975800175715
| 10>   P           0.24710361635423     -0.08463130549707     -0.68407693667642
| 11>   O           0.96989180831475     -0.00969217873514     -2.02520453175436
| 12>   C          -1.11725138981128     -1.35520042699463     -0.73136609551047
| 13>   C          -1.93291776541871     -1.49423786401657      0.55950433126252
| 14>   C          -1.98580079731858     -1.09751301029447     -1.97196333590630
| 15>   C           1.40386493823034     -0.57588203501805      0.69597296237057
| 16>   C           2.59868302615438      0.39260396481586      0.68387947377867
| 17>   C           1.86435678978145     -2.02743670266558      0.48634809538767
| 18>   H           0.35708311505277      2.43488525860828     -1.98946513771958
| 19>   H          -0.44070771466865      3.62309349733604     -0.88408198688650
| 20>   H           1.14381796770459      2.90365125576640     -0.45730521750677
| 21>   H          -1.57787388044760      1.44978796488917     -0.67057394708199
| 22>   H           0.25720469377332      1.91742616379132      1.78579761765942
| 23>   H          -1.30633869735799      2.71682241888585      1.46667657578789
| 24>   H          -1.25773946251584      0.96290668109978      1.80464766990979
| 25>   H          -0.55208833449264     -2.29711670099965     -0.90737296770897
| 26>   H          -1.29504476584581     -1.67385677720344      1.44888349330211
| 27>   H          -2.54194035857819     -0.58732774221480      0.75367443883072
| 28>   H          -2.63931573138494     -2.34739555925359      0.48146170180382
| 29>   H          -2.67182649395083     -1.95060530816853     -2.15379666834002
| 30>   H          -1.34752827195037     -0.95498953837837     -2.86560476163318
| 31>   H          -2.61279163305439     -0.18914618952663     -1.84811083235715
| 32>   H           0.85632815957744     -0.49085772176330      1.65950619606567
| 33>   H           2.30433757804464      1.42937976257882      0.94173707054152
| 34>   H           3.36870773210429      0.06918437317618      1.41464116425133
| 35>   H           3.05507848193230      0.41411376813930     -0.32622299853873
| 36>   H           1.04168097389157     -2.75740409463636      0.62226558432565
| 37>   H           2.27526647815798     -2.15551471170726     -0.53637180574487
| 38>   H           2.66332235507494     -2.28759580881343      1.21142531173811
| 39> **                         ****END OF INPUT****
================================================================================

                       ****************************
                       * Single Point Calculation *
                       ****************************

---------------------------------
CARTESIAN COORDINATES (ANGSTROEM)
---------------------------------
  C      0.163114    2.693012   -0.930854
  C     -0.564547    1.542773   -0.217755
  C     -0.726130    1.786763    1.289758
  P      0.247104   -0.084631   -0.684077
  O      0.969892   -0.009692   -2.025205
  C     -1.117251   -1.355200   -0.731366
  C     -1.932918   -1.494238    0.559504
  C     -1.985801   -1.097513   -1.971963
  C      1.403865   -0.575882    0.695973
  C      2.598683    0.392604    0.683879
  C      1.864357   -2.027437    0.486348
  H      0.357083    2.434885   -1.989465
  H     -0.440708    3.623093   -0.884082
  H      1.143818    2.903651   -0.457305
  H     -1.577874    1.449788   -0.670574
  H      0.257205    1.917426    1.785798
  H     -1.306339    2.716822    1.466677
  H     -1.257739    0.962907    1.804648
  H     -0.552088   -2.297117   -0.907373
  H     -1.295045   -1.673857    1.448883
  H     -2.541940   -0.587328    0.753674
  H     -2.639316   -2.347396    0.481462
  H     -2.671826   -1.950605   -2.153797
  H     -1.347528   -0.954990   -2.865605
  H     -2.612792   -0.189146   -1.848111
  H      0.856328   -0.490858    1.659506
  H      2.304338    1.429380    0.941737
  H      3.368708    0.069184    1.414641
  H      3.055078    0.414114   -0.326223
  H      1.041681   -2.757404    0.622266
  H      2.275266   -2.155515   -0.536372
  H      2.663322   -2.287596    1.211425

----------------------------
CARTESIAN COORDINATES (A.U.)
----------------------------
  NO LB      ZA    FRAG     MASS         X           Y           Z
   0 C     6.0000    0    12.011    0.308241    5.089055   -1.759059
   1 C     6.0000    0    12.011   -1.066839    2.915419   -0.411496
   2 C     6.0000    0    12.011   -1.372186    3.376493    2.437289
   3 P    15.0000    0    30.974    0.466958   -0.159930   -1.292718
   4 O     8.0000    0    15.999    1.832830   -0.018316   -3.827082
   5 C     6.0000    0    12.011   -2.111299   -2.560958   -1.382082
   6 C     6.0000    0    12.011   -3.652685   -2.823700    1.057310
   7 C     6.0000    0    12.011   -3.752620   -2.073999   -3.726471
   8 C     6.0000    0    12.011    2.652920   -1.088259    1.315198
   9 C     6.0000    0    12.011    4.910799    0.741914    1.292345
  10 C     6.0000    0    12.011    3.523124   -3.831300    0.919065
  11 H     1.0000    0     1.008    0.674789    4.601266   -3.759544
  12 H     1.0000    0     1.008   -0.832817    6.846654   -1.670673
  13 H     1.0000    0     1.008    2.161503    5.487106   -0.864182
  14 H     1.0000    0     1.008   -2.981750    2.739702   -1.267201
  15 H     1.0000    0     1.008    0.486046    3.623410    3.374668
  16 H     1.0000    0     1.008   -2.468622    5.134050    2.771617
  17 H     1.0000    0     1.008   -2.376783    1.819630    3.410290
  18 H     1.0000    0     1.008   -1.043296   -4.340921   -1.714686
  19 H     1.0000    0     1.008   -2.447280   -3.163131    2.737993
  20 H     1.0000    0     1.008   -4.803571   -1.109889    1.424238
  21 H     1.0000    0     1.008   -4.987584   -4.435935    0.909831
  22 H     1.0000    0     1.008   -5.049020   -3.686110   -4.070086
  23 H     1.0000    0     1.008   -2.546459   -1.804669   -5.415208
  24 H     1.0000    0     1.008   -4.937461   -0.357434   -3.492423
  25 H     1.0000    0     1.008    1.618226   -0.927587    3.136012
  26 H     1.0000    0     1.008    4.354567    2.701136    1.779625
  27 H     1.0000    0     1.008    6.365935    0.130740    2.673284
  28 H     1.0000    0     1.008    5.773262    0.782562   -0.616472
  29 H     1.0000    0     1.008    1.968492   -5.210739    1.175912
  30 H     1.0000    0     1.008    4.299631   -4.073332   -1.013596
  31 H     1.0000    0     1.008    5.032950   -4.322930    2.289262

--------------------------------
INTERNAL COORDINATES (ANGSTROEM)
--------------------------------
 C      0   0   0     0.000000000000     0.00000000     0.00000000
 C      1   0   0     1.536570968163     0.00000000     0.00000000
 C      2   1   0     1.535654252282   112.73519803     0.00000000
 P      2   1   3     1.877412974032   109.20116360   230.48854570
 O      4   2   1     1.525339919309   112.37456427   335.46261267
 C      4   2   1     1.864952208475   106.29502583   213.89517379
 C      6   4   2     1.533293678298   115.44265383   303.71019987
 C      6   4   2     1.536184360969   108.65227618    72.13505823
 C      4   2   1     1.866537371419   108.20513669    99.23108786
 C      9   4   2     1.538083758308   108.05259992   289.72598103
 C      9   4   2     1.537207300065   109.47218189   168.54452388
 H      1   2   3     1.106756985813   110.62828386   173.91888321
 H      1   2   3     1.109882959179   110.49412715   295.14313286
 H      1   2   3     1.109232708434   111.26708027    54.72035575
 H      2   1   3     1.113787671868   107.73804439   119.63615331
 H      3   2   1     1.109087172299   111.37571958   300.92333894
 H      3   2   1     1.110384151499   110.14962488    59.55451360
 H      3   2   1     1.107456563767   112.87503503   179.52559621
 H      6   4   2     1.112472006566   102.07494270   185.56425145
 H      7   6   4     1.109116861034   112.57161472   306.47028995
 H      7   6   4     1.109547889313   111.42032859    67.87276087
 H      7   6   4     1.110390377874   110.42154725   186.54294479
 H      8   6   4     1.109712163543   110.66484646   168.04561790
 H      8   6   4     1.107384194606   110.32930897    47.52072446
 H      8   6   4     1.110669722196   111.48823971   287.43745504
 H      9   4   2     1.111495366728   108.39201924    48.84939590
 H     10   9   4     1.108166881773   112.39194501    66.05016228
 H     10   9   4     1.109752642841   110.50746441   186.37081671
 H     10   9   4     1.108632711170   109.82683749   306.23908283
 H     11   9   4     1.108206413621   112.51247642   291.81478450
 H     11   9   4     1.109597559737   110.21974372    52.64417172
 H     11   9   4     1.109849406319   110.35952568   171.81143278

---------------------------
INTERNAL COORDINATES (A.U.)
---------------------------
 C      0   0   0     0.000000000000     0.00000000     0.00000000
 C      1   0   0     2.903698315163     0.00000000     0.00000000
 C      2   1   0     2.901965973205   112.73519803     0.00000000
 P      2   1   3     3.547796361192   109.20116360   230.48854570
 O      4   2   1     2.882474708631   112.37456427   335.46261267
 C      4   2   1     3.524248926869   106.29502583   213.89517379
 C      6   4   2     2.897505134855   115.44265383   303.71019987
 C      6   4   2     2.902967733444   108.65227618    72.13505823
 C      4   2   1     3.527244450711   108.20513669    99.23108786
 C      9   4   2     2.906557074235   108.05259992   289.72598103
 C      9   4   2     2.904900808187   109.47218189   168.54452388
 H      1   2   3     2.091467599990   110.62828386   173.91888321
 H      1   2   3     2.097374833554   110.49412715   295.14313286
 H      1   2   3     2.096146037729   111.26708027    54.72035575
 H      2   1   3     2.104753671168   107.73804439   119.63615331
 H      3   2   1     2.095871014291   111.37571958   300.92333894
 H      3   2   1     2.098321949779   110.14962488    59.55451360
 H      3   2   1     2.092789610733   112.87503503   179.52559621
 H      6   4   2     2.102267424064   102.07494270   185.56425145
 H      7   6   4     2.095927117868   112.57161472   306.47028995
 H      7   6   4     2.096741643271   111.42032859    67.87276087
 H      7   6   4     2.098333715924   110.42154725   186.54294479
 H      8   6   4     2.097052076578   110.66484646   168.04561790
 H      8   6   4     2.092652852837   110.32930897    47.52072446
 H      8   6   4     2.098861600190   111.48823971   287.43745504
 H      9   4   2     2.100421842238   108.39201924    48.84939590
 H     10   9   4     2.094131917232   112.39194501    66.05016228
 H     10   9   4     2.097128571364   110.50746441   186.37081671
 H     10   9   4     2.095012207217   109.82683749   306.23908283
 H     11   9   4     2.094206621598   112.51247642   291.81478450
 H     11   9   4     2.096835506770   110.21974372    52.64417172
 H     11   9   4     2.097311427838   110.35952568   171.81143278

---------------------
BASIS SET INFORMATION
---------------------
There are 4 groups of distinct atoms

 Group   1 Type C   : 11s6p2d1f contracted to 5s3p2d1f pattern {62111/411/11/1}
 Group   2 Type P   : 14s9p3d1f contracted to 5s5p2d1f pattern {73211/51111/21/1}
 Group   3 Type O   : 11s6p2d1f contracted to 5s3p2d1f pattern {62111/411/11/1}
 Group   4 Type H   : 5s1p contracted to 3s1p pattern {311/1}

Atom   0C    basis set group =>   1
Atom   1C    basis set group =>   1
Atom   2C    basis set group =>   1
Atom   3P    basis set group =>   2
Atom   4O    basis set group =>   3
Atom   5C    basis set group =>   1
Atom   6C    basis set group =>   1
Atom   7C    basis set group =>   1
Atom   8C    basis set group =>   1
Atom   9C    basis set group =>   1
Atom  10C    basis set group =>   1
Atom  11H    basis set group =>   4
Atom  12H    basis set group =>   4
Atom  13H    basis set group =>   4
Atom  14H    basis set group =>   4
Atom  15H    basis set group =>   4
Atom  16H    basis set group =>   4
Atom  17H    basis set group =>   4
Atom  18H    basis set group =>   4
Atom  19H    basis set group =>   4
Atom  20H    basis set group =>   4
Atom  21H    basis set group =>   4
Atom  22H    basis set group =>   4
Atom  23H    basis set group =>   4
Atom  24H    basis set group =>   4
Atom  25H    basis set group =>   4
Atom  26H    basis set group =>   4
Atom  27H    basis set group =>   4
Atom  28H    basis set group =>   4
Atom  29H    basis set group =>   4
Atom  30H    basis set group =>   4
Atom  31H    basis set group =>   4
---------------------------------
AUXILIARY/J BASIS SET INFORMATION
---------------------------------
There are 4 groups of distinct atoms

 Group   1 Type C   : 12s5p4d2f1g contracted to 6s4p3d1f1g pattern {711111/2111/211/2/1}
 Group   2 Type P   : 14s5p5d2f1g contracted to 8s4p3d1f1g pattern {71111111/2111/311/2/1}
 Group   3 Type O   : 12s5p4d2f1g contracted to 6s4p3d1f1g pattern {711111/2111/211/2/1}
 Group   4 Type H   : 5s2p1d contracted to 3s1p1d pattern {311/2/1}

Atom   0C    basis set group =>   1
Atom   1C    basis set group =>   1
Atom   2C    basis set group =>   1
Atom   3P    basis set group =>   2
Atom   4O    basis set group =>   3
Atom   5C    basis set group =>   1
Atom   6C    basis set group =>   1
Atom   7C    basis set group =>   1
Atom   8C    basis set group =>   1
Atom   9C    basis set group =>   1
Atom  10C    basis set group =>   1
Atom  11H    basis set group =>   4
Atom  12H    basis set group =>   4
Atom  13H    basis set group =>   4
Atom  14H    basis set group =>   4
Atom  15H    basis set group =>   4
Atom  16H    basis set group =>   4
Atom  17H    basis set group =>   4
Atom  18H    basis set group =>   4
Atom  19H    basis set group =>   4
Atom  20H    basis set group =>   4
Atom  21H    basis set group =>   4
Atom  22H    basis set group =>   4
Atom  23H    basis set group =>   4
Atom  24H    basis set group =>   4
Atom  25H    basis set group =>   4
Atom  26H    basis set group =>   4
Atom  27H    basis set group =>   4
Atom  28H    basis set group =>   4
Atom  29H    basis set group =>   4
Atom  30H    basis set group =>   4
Atom  31H    basis set group =>   4


           ************************************************************
           *        Program running with 6 parallel MPI-processes     *
           *              working on a common directory               *
           ************************************************************
------------------------------------------------------------------------------
                             ORCA STARTUP CALCULATIONS
                           -- RI-GTO INTEGRALS CHOSEN --
------------------------------------------------------------------------------
------------------------------------------------------------------------------
                   ___                                                        
                  /   \      - P O W E R E D   B Y -                         
                 /     \                                                     
                 |  |  |   _    _      __       _____    __    __             
                 |  |  |  | |  | |    /  \     |  _  \  |  |  /  |          
                  \  \/   | |  | |   /    \    | | | |  |  | /  /          
                 / \  \   | |__| |  /  /\  \   | |_| |  |  |/  /          
                |  |  |   |  __  | /  /__\  \  |    /   |      \           
                |  |  |   | |  | | |   __   |  |    \   |  |\   \          
                \     /   | |  | | |  |  |  |  | |\  \  |  | \   \       
                 \___/    |_|  |_| |__|  |__|  |_| \__\ |__|  \__/        
                                                                              
                      - O R C A' S   B I G   F R I E N D -                    
                                      &                                       
                       - I N T E G R A L  F E E D E R -                       
                                                                              
 v1 FN, 2020, v2 2021, v3 2022-2024                                           
------------------------------------------------------------------------------


----------------------
SHARK INTEGRAL PACKAGE
----------------------

Number of atoms                             ...     32
Number of basis functions                   ...    473
Number of shells                            ...    207
Maximum angular momentum                    ...      3
Integral batch strategy                     ... SHARK/LIBINT Hybrid
RI-J (if used) integral strategy            ... SPLIT-RIJ (Revised 2003 algorithm where possible)
Printlevel                                  ...      1
Contraction scheme used                     ... SEGMENTED contraction
Prescreening option                         ... SCHWARTZ
   Thresh                                   ... 1.000e-10
   Tcut                                     ... 1.000e-11
   Tpresel                                  ... 1.000e-11 
Coulomb Range Separation                    ... NOT USED
Exchange Range Separation                   ... NOT USED
Multipole approximations                    ... NOT USED
Finite Nucleus Model                        ... NOT USED
CABS basis                                  ... NOT available
Auxiliary Coulomb fitting basis             ... AVAILABLE
   # of basis functions in Aux-J            ...    772
   # of shells in Aux-J                     ...    272
   Maximum angular momentum in Aux-J        ...      4
Auxiliary J/K fitting basis                 ... NOT available
Auxiliary Correlation fitting basis         ... NOT available
Auxiliary 'external' fitting basis          ... NOT available

Checking pre-screening integrals            ... done (  0.0 sec) Dimension = 207
Check shell pair data                       ... done (  0.0 sec)
Shell pair information
Shell pair cut-off parameter TPreSel        ...   1.0e-11
Total number of shell pairs                 ...     21528
Shell pairs after pre-screening             ...     18509
Total number of primitive shell pairs       ...     62800
Primitive shell pairs kept                  ...     38241
          la=0 lb=0:   5885 shell pairs
          la=1 lb=0:   5656 shell pairs
          la=1 lb=1:   1395 shell pairs
          la=2 lb=0:   2287 shell pairs
          la=2 lb=1:   1106 shell pairs
          la=2 lb=2:    239 shell pairs
          la=3 lb=0:   1100 shell pairs
          la=3 lb=1:    551 shell pairs
          la=3 lb=2:    226 shell pairs
          la=3 lb=3:     64 shell pairs

Calculating one electron integrals          ... done (  0.0 sec)
Calculating RI/J V-Matrix + Cholesky decomp.... done (  0.0 sec)
Calculating Nuclear repulsion               ... done (  0.0 sec) ENN=    836.645442006331 Eh

Diagonalization of the overlap matrix:
Smallest eigenvalue                        ... 1.834e-04
Time for diagonalization                   ...    0.032 sec
Threshold for overlap eigenvalues          ... 1.000e-07
Number of eigenvalues below threshold      ... 0
Time for construction of square roots      ...    0.017 sec
Total time needed                          ...    0.051 sec

-------------------
DFT GRID GENERATION
-------------------

General Integration Accuracy     IntAcc      ... 4.388
Radial Grid Type                 RadialGrid  ... OptM3 with GC (2021)
Angular Grid (max. ang.)         AngularGrid ... 4 (Lebedev-302)
Angular grid pruning method      GridPruning ... 4 (adaptive)
Weight generation scheme         WeightScheme... mBecke (2022)
Basis function cutoff            BFCut       ... 1.0000e-10
Integration weight cutoff        WCut        ... 1.0000e-14
Partially contracted basis set               ... off
Rotationally invariant grid construction     ... off
Angular grids for H and He will be reduced by one unit

Total number of grid points                  ...   133442
Total number of batches                      ...     2099
Average number of points per batch           ...       63
Average number of grid points per atom       ...     4170

--------------------
COSX GRID GENERATION
--------------------

GRIDX 1
-------
General Integration Accuracy     IntAcc      ... 3.816
Radial Grid Type                 RadialGrid  ... OptM3 with GC (2021)
Angular Grid (max. ang.)         AngularGrid ... 1 (Lebedev-50)
Angular grid pruning method      GridPruning ... 4 (adaptive)
Weight generation scheme         WeightScheme... mBecke (2022)
Basis function cutoff            BFCut       ... 1.0000e-10
Integration weight cutoff        WCut        ... 1.0000e-14
Partially contracted basis set               ... on
Rotationally invariant grid construction     ... off
Angular grids for H and He will be reduced by one unit

Total number of grid points                  ...    18037
Total number of batches                      ...      158
Average number of points per batch           ...      114
Average number of grid points per atom       ...      564
UseSFitting                                  ... on

GRIDX 2
-------
General Integration Accuracy     IntAcc      ... 4.020
Radial Grid Type                 RadialGrid  ... OptM3 with GC (2021)
Angular Grid (max. ang.)         AngularGrid ... 2 (Lebedev-110)
Angular grid pruning method      GridPruning ... 4 (adaptive)
Weight generation scheme         WeightScheme... mBecke (2022)
Basis function cutoff            BFCut       ... 1.0000e-10
Integration weight cutoff        WCut        ... 1.0000e-14
Partially contracted basis set               ... on
Rotationally invariant grid construction     ... off
Angular grids for H and He will be reduced by one unit

Total number of grid points                  ...    34949
Total number of batches                      ...      289
Average number of points per batch           ...      120
Average number of grid points per atom       ...     1092
UseSFitting                                  ... on

GRIDX 3
-------
General Integration Accuracy     IntAcc      ... 4.338
Radial Grid Type                 RadialGrid  ... OptM3 with GC (2021)
Angular Grid (max. ang.)         AngularGrid ... 3 (Lebedev-194)
Angular grid pruning method      GridPruning ... 4 (adaptive)
Weight generation scheme         WeightScheme... mBecke (2022)
Basis function cutoff            BFCut       ... 1.0000e-10
Integration weight cutoff        WCut        ... 1.0000e-14
Partially contracted basis set               ... on
Rotationally invariant grid construction     ... off
Angular grids for H and He will be reduced by one unit

Total number of grid points                  ...    76147
Total number of batches                      ...      610
Average number of points per batch           ...      124
Average number of grid points per atom       ...     2380
UseSFitting                                  ... on
Initializing property integral containers    ... done (  0.0 sec)

SHARK setup successfully completed in   2.2 seconds

Maximum memory used throughout the entire STARTUP-calculation: 50.5 MB


           ************************************************************
           *        Program running with 6 parallel MPI-processes     *
           *              working on a common directory               *
           ************************************************************
-------------------------------------------------------------------------------
                                 ORCA GUESS
                   Start orbitals & Density for SCF / CASSCF
-------------------------------------------------------------------------------

------------
SCF SETTINGS
------------
Hamiltonian:
 Density Functional     Method          .... DFT(GTOs)
 Exchange Functional    Exchange        .... M062X
 Correlation Functional Correlation     .... M062X
 Gradients option       PostSCFGGA      .... off
 Hybrid DFT is turned on
   Fraction HF Exchange ScalHFX         ....  0.540000
   Scaling of DF-GGA-X  ScalDFX         ....  0.460000
   Scaling of DF-GGA-C  ScalDFC         ....  1.000000
   Scaling of DF-LDA-C  ScalLDAC        ....  1.000000
   Perturbative correction              ....  0.000000
 RI-approximation to the Coulomb term is turned on
   Number of AuxJ basis functions       .... 772
   RIJ-COSX (HFX calculated with COS-X)).... on


General Settings:
 Integral files         IntName         .... data/single_point_PO_M06-2x/80969/80969
 Hartree-Fock type      HFTyp           .... RHF
 Total Charge           Charge          ....    0
 Multiplicity           Mult            ....    1
 Number of Electrons    NEL             ....   98
 Basis Dimension        Dim             ....  473
 Nuclear Repulsion      ENuc            ....    836.6454420063 Eh

Convergence Acceleration:
 AO-DIIS                CNVDIIS         .... on
   Start iteration      DIISMaxIt       ....    12
   Startup error        DIISStart       ....  0.200000
   # of expansion vecs  DIISMaxEq       ....     5
   Bias factor          DIISBfac        ....   1.050
   Max. coefficient     DIISMaxC        ....  10.000
 MO-DIIS                CNVKDIIS        .... off
 Trust-Rad. Augm. Hess. CNVTRAH         .... auto
   Auto Start mean grad. ratio tolernc. ....  1.125000
   Auto Start start iteration           ....    50
   Auto Start num. interpolation iter.  ....    10
   Max. Number of Micro iterations      ....    24
   Max. Number of Macro iterations      .... Maxiter - #DIIS iter
   Number of Davidson start vectors     ....     2
   Converg. threshold    (grad. norm)   ....   5.000e-05
   Grad. Scal. Fac. for Micro threshold ....   0.100
   Minimum threshold for Micro iter.    ....   1.000e-02
   NR start threshold (gradient norm)   ....   1.000e-04
   Initial trust radius                 ....   0.400
   Minimum AH scaling param. (alpha)    ....   1.000
   Maximum AH scaling param. (alpha)    .... 1000.000
   Quad. conv. algorithm                .... NR
   White noise on init. David. guess    .... on
   Maximum white noise                  ....   0.010
   Pseudo random numbers                .... off
   Inactive MOs                         .... canonical
   Orbital update algorithm             .... Taylor
   Preconditioner                       .... Diag
   Full preconditioner red. dimension   ....   250
 SOSCF                  CNVSOSCF        .... on
   Start iteration      SOSCFMaxIt      ....   150
   Startup grad/error   SOSCFStart      ....  0.003300
   Hessian update       SOSCFHessUp     .... L-BFGS
 Level Shifting         CNVShift        .... on
   Level shift para.    LevelShift      ....    0.2500
   Turn off err/grad.   ShiftErr        ....    0.0010
 Zerner damping         CNVZerner       .... off
 Static damping         CNVDamp         .... on
   Fraction old density DampFac         ....    0.7000
   Max. Damping (<1)    DampMax         ....    0.9800
   Min. Damping (>=0)   DampMin         ....    0.0000
   Turn off err/grad.   DampErr         ....    0.1000

SCF Procedure:
 Maximum # iterations   MaxIter         ....   125
 SCF integral mode      SCFMode         .... Direct
   Integral package                     .... SHARK and LIBINT hybrid scheme
 Reset frequency        DirectResetFreq ....    20
 Integral Threshold     Thresh          ....  1.000e-10 Eh
 Primitive CutOff       TCut            ....  1.000e-11 Eh

Convergence Tolerance:
 Convergence Check Mode ConvCheckMode   .... Total+1el-Energy
 Convergence forced     ConvForced      .... 0
 Energy Change          TolE            ....  1.000e-06 Eh
 1-El. energy change                    ....  1.000e-03 Eh
 Orbital Gradient       TolG            ....  5.000e-05
 Orbital Rotation angle TolX            ....  5.000e-05
 DIIS Error             TolErr          ....  1.000e-05

------------------------------
INITIAL GUESS: MODEL POTENTIAL
------------------------------
Loading Hartree-Fock densities                     ... done
Calculating cut-offs                               ... done
Initializing the effective Hamiltonian             ... done
Setting up the integral package (SHARK)            ... done
Starting the Coulomb interaction                   ... done (   0.2 sec)
Making the grid                                    ... done (   0.2 sec)
Mapping shells                                     ... done
Starting the XC term evaluation                    ... done (   0.2 sec)
  promolecular density results
     # of electrons  =     97.996191730
     EX              =    -82.874869302
     EC              =     -3.295816125
     EX+EC           =    -86.170685427
Transforming the Hamiltonian                       ... done (   0.0 sec)
Diagonalizing the Hamiltonian                      ... done (   0.0 sec)
Back transforming the eigenvectors                 ... done (   0.0 sec)
Now organizing SCF variables                       ... done
                      ------------------
                      INITIAL GUESS DONE (   0.8 sec)
                      ------------------
             **** ENERGY FILE WAS UPDATED (data/single_point_PO_M06-2x/80969/80969.en.tmp) ****
Finished Guess after   0.9 sec
Maximum memory used throughout the entire GUESS-calculation: 33.8 MB


           ************************************************************
           *        Program running with 6 parallel MPI-processes     *
           *              working on a common directory               *
           ************************************************************

-------------------------------------------------------------------------------------------
                                      ORCA LEAN-SCF
                              memory conserving SCF solver
-------------------------------------------------------------------------------------------

----------------------------------------D-I-I-S--------------------------------------------
Iteration    Energy (Eh)           Delta-E    RMSDP     MaxDP     DIISErr   Damp  Time(sec)
-------------------------------------------------------------------------------------------
               ***  Starting incremental Fock matrix formation  ***
    1    -771.6766783361551916     0.00e+00  1.45e-03  8.39e-02  3.67e-01  0.700   7.3
    2    -771.8972101771828420    -2.21e-01  1.16e-03  8.43e-02  1.59e-01  0.700   4.5
                               ***Turning on AO-DIIS***
    3    -771.9936523351871074    -9.64e-02  5.18e-04  2.66e-02  4.78e-02  0.700   4.6
    4    -772.0503070324211876    -5.67e-02  1.02e-03  4.25e-02  3.20e-02  0.000   4.1
    5    -772.1724194081321002    -1.22e-01  1.40e-04  7.84e-03  5.21e-03  0.000   4.4
    6    -772.1727285114361621    -3.09e-04  6.55e-05  4.22e-03  5.01e-03  0.000   3.7
                              *** Initializing SOSCF ***
---------------------------------------S-O-S-C-F--------------------------------------
Iteration    Energy (Eh)           Delta-E    RMSDP     MaxDP     MaxGrad    Time(sec)
--------------------------------------------------------------------------------------
    7    -772.1727674789133289    -3.90e-05  2.58e-05  1.10e-03  8.44e-04     3.6
               *** Restarting incremental Fock matrix formation ***
    8    -772.1727417968791087     2.57e-05  1.97e-05  1.05e-03  4.24e-05     7.1
    9    -772.1727424801358666    -6.83e-07  6.31e-06  2.54e-04  2.42e-05     4.8
                 **** Energy Check signals convergence ****

               *****************************************************
               *                     SUCCESS                       *
               *           SCF CONVERGED AFTER   9 CYCLES          *
               *****************************************************

Recomputing exchange energy using gridx3       ... done (   10.060 sec)
Old exchange energy                            :    -45.882870928 Eh
New exchange energy                            :    -45.882866319 Eh
Exchange energy change after final integration :      0.000004608 Eh
Total energy after final integration           :   -772.172737872 Eh
             **** ENERGY FILE WAS UPDATED (data/single_point_PO_M06-2x/80969/80969.en.tmp) ****

----------------
TOTAL SCF ENERGY
----------------

Total Energy       :       -772.17273787176873 Eh          -21011.88842 eV

Components:
Nuclear Repulsion  :        836.64544200633145 Eh           22766.27989 eV
Electronic Energy  :      -1608.81818448646732 Eh          -43778.16844 eV
One Electron Energy:      -2716.26733628021066 Eh          -73913.39190 eV
Two Electron Energy:       1107.44915179374334 Eh           30135.22347 eV

Virial components:
Potential Energy   :      -1540.70254896987126 Eh          -41924.64777 eV
Kinetic Energy     :        768.52981109810241 Eh           20912.75934 eV
Virial Ratio       :          2.00474012422298

DFT components:
N(Alpha)           :       49.000144111517 electrons
N(Beta)            :       49.000144111517 electrons
N(Total)           :       98.000288223034 electrons
E(XC)              :      -42.475153236764 Eh       

---------------
SCF CONVERGENCE
---------------

  Last Energy change         ...    6.8326e-07  Tolerance :   1.0000e-06
  Last MAX-Density change    ...    2.5425e-04  Tolerance :   1.0000e-05
  Last RMS-Density change    ...    6.3096e-06  Tolerance :   1.0000e-06
  Last DIIS Error            ...    8.4354e-04  Tolerance :   1.0000e-05
  Last Orbital Gradient      ...    2.4232e-05  Tolerance :   5.0000e-05
  Last Orbital Rotation      ...    4.9927e-05  Tolerance :   5.0000e-05


----------------
ORBITAL ENERGIES
----------------

  NO   OCC          E(Eh)            E(eV) 
   0   2.0000     -78.077554     -2124.5983 
   1   2.0000     -19.554660      -532.1093 
   2   2.0000     -10.555825      -287.2386 
   3   2.0000     -10.555361      -287.2260 
   4   2.0000     -10.554936      -287.2144 
   5   2.0000     -10.548072      -287.0276 
   6   2.0000     -10.545725      -286.9638 
   7   2.0000     -10.539108      -286.7837 
   8   2.0000     -10.536393      -286.7098 
   9   2.0000     -10.535314      -286.6805 
  10   2.0000     -10.530343      -286.5452 
  11   2.0000      -6.884995      -187.3502 
  12   2.0000      -5.001759      -136.1048 
  13   2.0000      -5.001650      -136.1018 
  14   2.0000      -5.000204      -136.0625 
  15   2.0000      -1.049442       -28.5568 
  16   2.0000      -0.909059       -24.7368 
  17   2.0000      -0.886605       -24.1257 
  18   2.0000      -0.884332       -24.0639 
  19   2.0000      -0.784344       -21.3431 
  20   2.0000      -0.778734       -21.1904 
  21   2.0000      -0.777325       -21.1521 
  22   2.0000      -0.725814       -19.7504 
  23   2.0000      -0.672295       -18.2941 
  24   2.0000      -0.668221       -18.1832 
  25   2.0000      -0.585952       -15.9446 
  26   2.0000      -0.549784       -14.9604 
  27   2.0000      -0.542774       -14.7696 
  28   2.0000      -0.527237       -14.3468 
  29   2.0000      -0.507085       -13.7985 
  30   2.0000      -0.504308       -13.7229 
  31   2.0000      -0.487922       -13.2770 
  32   2.0000      -0.480259       -13.0685 
  33   2.0000      -0.470549       -12.8043 
  34   2.0000      -0.466223       -12.6866 
  35   2.0000      -0.457956       -12.4616 
  36   2.0000      -0.454075       -12.3560 
  37   2.0000      -0.447955       -12.1895 
  38   2.0000      -0.423245       -11.5171 
  39   2.0000      -0.419100       -11.4043 
  40   2.0000      -0.415218       -11.2987 
  41   2.0000      -0.408398       -11.1131 
  42   2.0000      -0.407609       -11.0916 
  43   2.0000      -0.403441       -10.9782 
  44   2.0000      -0.390722       -10.6321 
  45   2.0000      -0.381128       -10.3710 
  46   2.0000      -0.376935       -10.2569 
  47   2.0000      -0.313442        -8.5292 
  48   2.0000      -0.312397        -8.5007 
  49   0.0000       0.048878         1.3300 
  50   0.0000       0.068233         1.8567 
  51   0.0000       0.069200         1.8830 
  52   0.0000       0.075296         2.0489 
  53   0.0000       0.091746         2.4965 
  54   0.0000       0.101989         2.7753 
  55   0.0000       0.107056         2.9131 
  56   0.0000       0.111462         3.0330 
  57   0.0000       0.117448         3.1959 
  58   0.0000       0.121214         3.2984 
  59   0.0000       0.127905         3.4805 
*Only the first 10 virtual orbitals were printed.

                    ********************************
                    * MULLIKEN POPULATION ANALYSIS *
                    ********************************

-----------------------
MULLIKEN ATOMIC CHARGES
-----------------------
   0 C :   -0.400443
   1 C :   -0.278907
   2 C :   -0.441026
   3 P :    0.659515
   4 O :   -0.605870
   5 C :   -0.219116
   6 C :   -0.478810
   7 C :   -0.449964
   8 C :   -0.211183
   9 C :   -0.449273
  10 C :   -0.471388
  11 H :    0.186744
  12 H :    0.142266
  13 H :    0.137386
  14 H :    0.155781
  15 H :    0.148836
  16 H :    0.158535
  17 H :    0.165600
  18 H :    0.170783
  19 H :    0.166897
  20 H :    0.153463
  21 H :    0.161388
  22 H :    0.147220
  23 H :    0.190949
  24 H :    0.136911
  25 H :    0.167195
  26 H :    0.133732
  27 H :    0.147437
  28 H :    0.190600
  29 H :    0.149706
  30 H :    0.187459
  31 H :    0.147579
Sum of atomic charges:   -0.0000000

--------------------------------
MULLIKEN REDUCED ORBITAL CHARGES
--------------------------------
  0 C s       :     3.320073  s :     3.320073
      pz      :     1.067130  p :     3.024084
      px      :     1.005568
      py      :     0.951387
      dz2     :     0.016011  d :     0.052992
      dxz     :     0.006384
      dyz     :     0.005320
      dx2y2   :     0.012858
      dxy     :     0.012419
      f0      :     0.000436  f :     0.003294
      f+1     :     0.000296
      f-1     :     0.000675
      f+2     :     0.000393
      f-2     :     0.000366
      f+3     :     0.000589
      f-3     :     0.000540

  1 C s       :     3.205462  s :     3.205462
      pz      :     0.920464  p :     2.971362
      px      :     1.083056
      py      :     0.967842
      dz2     :     0.022154  d :     0.096957
      dxz     :     0.023478
      dyz     :     0.020026
      dx2y2   :     0.018181
      dxy     :     0.013118
      f0      :     0.000864  f :     0.005126
      f+1     :     0.000931
      f-1     :     0.001231
      f+2     :     0.000475
      f-2     :     0.000483
      f+3     :     0.000558
      f-3     :     0.000584

  2 C s       :     3.335632  s :     3.335632
      pz      :     0.893183  p :     3.045531
      px      :     1.056444
      py      :     1.095903
      dz2     :     0.008424  d :     0.056605
      dxz     :     0.018408
      dyz     :     0.014901
      dx2y2   :     0.005278
      dxy     :     0.009594
      f0      :     0.000815  f :     0.003258
      f+1     :     0.000730
      f-1     :     0.000731
      f+2     :     0.000214
      f-2     :     0.000246
      f+3     :     0.000500
      f-3     :     0.000022

  3 P s       :     5.334093  s :     5.334093
      pz      :     2.660290  p :     8.295839
      px      :     2.795518
      py      :     2.840031
      dz2     :     0.161253  d :     0.645947
      dxz     :     0.141929
      dyz     :     0.137473
      dx2y2   :     0.068896
      dxy     :     0.136396
      f0      :     0.015082  f :     0.064607
      f+1     :     0.006753
      f-1     :     0.012729
      f+2     :     0.009055
      f-2     :     0.010189
      f+3     :     0.004912
      f-3     :     0.005887

  4 O s       :     3.867583  s :     3.867583
      pz      :     1.444332  p :     4.712689
      px      :     1.600839
      py      :     1.667518
      dz2     :     0.007990  d :     0.024369
      dxz     :     0.007333
      dyz     :     0.005570
      dx2y2   :     0.001828
      dxy     :     0.001649
      f0      :     0.000316  f :     0.001230
      f+1     :     0.000375
      f-1     :     0.000181
      f+2     :     0.000167
      f-2     :     0.000152
      f+3     :     0.000020
      f-3     :     0.000020

  5 C s       :     3.187097  s :     3.187097
      pz      :     0.903087  p :     2.930021
      px      :     0.981199
      py      :     1.045736
      dz2     :     0.032295  d :     0.096895
      dxz     :     0.017344
      dyz     :     0.016082
      dx2y2   :     0.007149
      dxy     :     0.024026
      f0      :     0.001235  f :     0.005103
      f+1     :     0.000909
      f-1     :     0.000611
      f+2     :     0.000607
      f-2     :     0.000961
      f+3     :     0.000390
      f-3     :     0.000390

  6 C s       :     3.343977  s :     3.343977
      pz      :     0.952483  p :     3.075115
      px      :     1.031827
      py      :     1.090805
      dz2     :     0.014670  d :     0.056450
      dxz     :     0.012464
      dyz     :     0.008015
      dx2y2   :     0.002205
      dxy     :     0.019097
      f0      :     0.000597  f :     0.003269
      f+1     :     0.000783
      f-1     :     0.000430
      f+2     :     0.000351
      f-2     :     0.000520
      f+3     :     0.000456
      f-3     :     0.000131

  7 C s       :     3.343879  s :     3.343879
      pz      :     0.977001  p :     3.048051
      px      :     1.016412
      py      :     1.054638
      dz2     :     0.014793  d :     0.054703
      dxz     :     0.012630
      dyz     :     0.006630
      dx2y2   :     0.002641
      dxy     :     0.018010
      f0      :     0.000543  f :     0.003331
      f+1     :     0.000784
      f-1     :     0.000360
      f+2     :     0.000437
      f-2     :     0.000547
      f+3     :     0.000524
      f-3     :     0.000136

  8 C s       :     3.172646  s :     3.172646
      pz      :     0.996356  p :     2.935641
      px      :     0.992052
      py      :     0.947233
      dz2     :     0.011458  d :     0.097748
      dxz     :     0.025644
      dyz     :     0.016887
      dx2y2   :     0.022992
      dxy     :     0.020768
      f0      :     0.000705  f :     0.005148
      f+1     :     0.000639
      f-1     :     0.000367
      f+2     :     0.000499
      f-2     :     0.000828
      f+3     :     0.001121
      f-3     :     0.000988

  9 C s       :     3.342455  s :     3.342455
      pz      :     1.099846  p :     3.050191
      px      :     0.959600
      py      :     0.990745
      dz2     :     0.007180  d :     0.053351
      dxz     :     0.019929
      dyz     :     0.004487
      dx2y2   :     0.015385
      dxy     :     0.006369
      f0      :     0.000531  f :     0.003276
      f+1     :     0.000524
      f-1     :     0.000188
      f+2     :     0.000188
      f-2     :     0.000579
      f+3     :     0.000712
      f-3     :     0.000553

 10 C s       :     3.348280  s :     3.348280
      pz      :     1.098209  p :     3.064841
      px      :     1.064759
      py      :     0.901872
      dz2     :     0.009149  d :     0.054943
      dxz     :     0.011673
      dyz     :     0.010878
      dx2y2   :     0.007026
      dxy     :     0.016217
      f0      :     0.000487  f :     0.003323
      f+1     :     0.000516
      f-1     :     0.000288
      f+2     :     0.000420
      f-2     :     0.000307
      f+3     :     0.000580
      f-3     :     0.000726

 11 H s       :     0.793661  s :     0.793661
      pz      :     0.011596  p :     0.019595
      px      :     0.003910
      py      :     0.004088

 12 H s       :     0.839510  s :     0.839510
      pz      :     0.003527  p :     0.018224
      px      :     0.005372
      py      :     0.009325

 13 H s       :     0.843898  s :     0.843898
      pz      :     0.004858  p :     0.018716
      px      :     0.010083
      py      :     0.003776

 14 H s       :     0.823986  s :     0.823986
      pz      :     0.005028  p :     0.020233
      px      :     0.011071
      py      :     0.004134

 15 H s       :     0.832399  s :     0.832399
      pz      :     0.005294  p :     0.018765
      px      :     0.009851
      py      :     0.003621

 16 H s       :     0.822968  s :     0.822968
      pz      :     0.003742  p :     0.018497
      px      :     0.005681
      py      :     0.009074

 17 H s       :     0.815503  s :     0.815503
      pz      :     0.005481  p :     0.018898
      px      :     0.005446
      py      :     0.007971

 18 H s       :     0.808744  s :     0.808744
      pz      :     0.003696  p :     0.020473
      px      :     0.006372
      py      :     0.010405

 19 H s       :     0.814686  s :     0.814686
      pz      :     0.008887  p :     0.018417
      px      :     0.005820
      py      :     0.003711

 20 H s       :     0.827931  s :     0.827931
      pz      :     0.003766  p :     0.018606
      px      :     0.006028
      py      :     0.008812

 21 H s       :     0.820101  s :     0.820101
      pz      :     0.003430  p :     0.018511
      px      :     0.006953
      py      :     0.008128

 22 H s       :     0.834392  s :     0.834392
      pz      :     0.003846  p :     0.018387
      px      :     0.006678
      py      :     0.007863

 23 H s       :     0.789729  s :     0.789729
      pz      :     0.009163  p :     0.019322
      px      :     0.006546
      py      :     0.003613

 24 H s       :     0.844558  s :     0.844558
      pz      :     0.003538  p :     0.018531
      px      :     0.006149
      py      :     0.008845

 25 H s       :     0.812879  s :     0.812879
      pz      :     0.010257  p :     0.019926
      px      :     0.006108
      py      :     0.003561

 26 H s       :     0.847264  s :     0.847264
      pz      :     0.004059  p :     0.019003
      px      :     0.003885
      py      :     0.011060

 27 H s       :     0.834139  s :     0.834139
      pz      :     0.006770  p :     0.018425
      px      :     0.007789
      py      :     0.003866

 28 H s       :     0.790434  s :     0.790434
      pz      :     0.010907  p :     0.018966
      px      :     0.004656
      py      :     0.003403

 29 H s       :     0.831678  s :     0.831678
      pz      :     0.003706  p :     0.018616
      px      :     0.007670
      py      :     0.007240

 30 H s       :     0.793877  s :     0.793877
      pz      :     0.010760  p :     0.018665
      px      :     0.004396
      py      :     0.003508

 31 H s       :     0.833937  s :     0.833937
      pz      :     0.006667  p :     0.018484
      px      :     0.007802
      py      :     0.004016



                     *******************************
                     * LOEWDIN POPULATION ANALYSIS *
                     *******************************

----------------------
LOEWDIN ATOMIC CHARGES
----------------------
   0 C :   -0.311422
   1 C :   -0.393657
   2 C :   -0.316390
   3 P :    0.651253
   4 O :   -0.329938
   5 C :   -0.400119
   6 C :   -0.316754
   7 C :   -0.313236
   8 C :   -0.397828
   9 C :   -0.311590
  10 C :   -0.314008
  11 H :    0.137408
  12 H :    0.123410
  13 H :    0.123640
  14 H :    0.154903
  15 H :    0.124723
  16 H :    0.129339
  17 H :    0.121757
  18 H :    0.159290
  19 H :    0.124177
  20 H :    0.125488
  21 H :    0.129918
  22 H :    0.125738
  23 H :    0.138125
  24 H :    0.120788
  25 H :    0.147739
  26 H :    0.118031
  27 H :    0.125830
  28 H :    0.138464
  29 H :    0.121022
  30 H :    0.137002
  31 H :    0.126897

-------------------------------
LOEWDIN REDUCED ORBITAL CHARGES
-------------------------------
  0 C s       :     2.842139  s :     2.842139
      pz      :     1.077449  p :     3.181096
      px      :     1.062636
      py      :     1.041011
      dz2     :     0.070334  d :     0.263692
      dxz     :     0.034300
      dyz     :     0.033826
      dx2y2   :     0.063478
      dxy     :     0.061755
      f0      :     0.002450  f :     0.024495
      f+1     :     0.001716
      f-1     :     0.004765
      f+2     :     0.004842
      f-2     :     0.003120
      f+3     :     0.004178
      f-3     :     0.003424

  1 C s       :     2.791827  s :     2.791827
      pz      :     1.029973  p :     3.114706
      px      :     1.030771
      py      :     1.053962
      dz2     :     0.106041  d :     0.446673
      dxz     :     0.089580
      dyz     :     0.094286
      dx2y2   :     0.086372
      dxy     :     0.070395
      f0      :     0.005656  f :     0.040451
      f+1     :     0.006459
      f-1     :     0.009560
      f+2     :     0.006071
      f-2     :     0.004511
      f+3     :     0.004376
      f-3     :     0.003818

  2 C s       :     2.840587  s :     2.840587
      pz      :     1.036900  p :     3.183909
      px      :     1.073404
      py      :     1.073604
      dz2     :     0.058408  d :     0.267513
      dxz     :     0.078364
      dyz     :     0.069168
      dx2y2   :     0.022527
      dxy     :     0.039046
      f0      :     0.005074  f :     0.024381
      f+1     :     0.005087
      f-1     :     0.005720
      f+2     :     0.003233
      f-2     :     0.002303
      f+3     :     0.002701
      f-3     :     0.000264

  3 P s       :     4.682573  s :     4.682573
      pz      :     2.744429  p :     8.301785
      px      :     2.770225
      py      :     2.787131
      dz2     :     0.287883  d :     1.147666
      dxz     :     0.272503
      dyz     :     0.220129
      dx2y2   :     0.130786
      dxy     :     0.236366
      f0      :     0.047665  f :     0.216723
      f+1     :     0.033024
      f-1     :     0.038287
      f+2     :     0.029774
      f-2     :     0.032147
      f+3     :     0.016816
      f-3     :     0.019010

  4 O s       :     3.542211  s :     3.542211
      pz      :     1.549662  p :     4.743622
      px      :     1.587124
      py      :     1.606837
      dz2     :     0.015336  d :     0.042028
      dxz     :     0.015693
      dyz     :     0.006390
      dx2y2   :     0.002504
      dxy     :     0.002105
      f0      :     0.000487  f :     0.002077
      f+1     :     0.000828
      f-1     :     0.000219
      f+2     :     0.000267
      f-2     :     0.000217
      f+3     :     0.000023
      f-3     :     0.000036

  5 C s       :     2.791442  s :     2.791442
      pz      :     1.032356  p :     3.116416
      px      :     1.043075
      py      :     1.040985
      dz2     :     0.128179  d :     0.451929
      dxz     :     0.101810
      dyz     :     0.064642
      dx2y2   :     0.040139
      dxy     :     0.117158
      f0      :     0.008485  f :     0.040332
      f+1     :     0.005918
      f-1     :     0.006593
      f+2     :     0.006575
      f-2     :     0.006379
      f+3     :     0.003910
      f-3     :     0.002471

  6 C s       :     2.840586  s :     2.840586
      pz      :     1.047253  p :     3.185265
      px      :     1.062056
      py      :     1.075955
      dz2     :     0.075990  d :     0.266469
      dxz     :     0.067762
      dyz     :     0.035061
      dx2y2   :     0.013272
      dxy     :     0.074385
      f0      :     0.004034  f :     0.024434
      f+1     :     0.004209
      f-1     :     0.004882
      f+2     :     0.004267
      f-2     :     0.002823
      f+3     :     0.003211
      f-3     :     0.001009

  7 C s       :     2.842248  s :     2.842248
      pz      :     1.051774  p :     3.182728
      px      :     1.060131
      py      :     1.070823
      dz2     :     0.073262  d :     0.263791
      dxz     :     0.065724
      dyz     :     0.030507
      dx2y2   :     0.016316
      dxy     :     0.077983
      f0      :     0.003760  f :     0.024470
      f+1     :     0.004278
      f-1     :     0.004251
      f+2     :     0.004698
      f-2     :     0.002954
      f+3     :     0.003407
      f-3     :     0.001121

  8 C s       :     2.791858  s :     2.791858
      pz      :     1.038744  p :     3.116907
      px      :     1.040622
      py      :     1.037541
      dz2     :     0.060538  d :     0.448460
      dxz     :     0.113538
      dyz     :     0.067643
      dx2y2   :     0.103535
      dxy     :     0.103207
      f0      :     0.004982  f :     0.040603
      f+1     :     0.004053
      f-1     :     0.003833
      f+2     :     0.004793
      f-2     :     0.006061
      f+3     :     0.008947
      f-3     :     0.007933

  9 C s       :     2.841283  s :     2.841283
      pz      :     1.087164  p :     3.181739
      px      :     1.046810
      py      :     1.047764
      dz2     :     0.037621  d :     0.264132
      dxz     :     0.080257
      dyz     :     0.020476
      dx2y2   :     0.079500
      dxy     :     0.046278
      f0      :     0.003198  f :     0.024436
      f+1     :     0.002782
      f-1     :     0.002116
      f+2     :     0.002285
      f-2     :     0.004516
      f+3     :     0.005603
      f-3     :     0.003935

 10 C s       :     2.841787  s :     2.841787
      pz      :     1.086086  p :     3.182615
      px      :     1.067625
      py      :     1.028904
      dz2     :     0.044818  d :     0.265190
      dxz     :     0.046401
      dyz     :     0.046316
      dx2y2   :     0.043682
      dxy     :     0.083973
      f0      :     0.002834  f :     0.024416
      f+1     :     0.002161
      f-1     :     0.003077
      f+2     :     0.004726
      f-2     :     0.002398
      f+3     :     0.003852
      f-3     :     0.005367

 11 H s       :     0.801839  s :     0.801839
      pz      :     0.034635  p :     0.060753
      px      :     0.012733
      py      :     0.013385

 12 H s       :     0.818723  s :     0.818723
      pz      :     0.012526  p :     0.057867
      px      :     0.018429
      py      :     0.026912

 13 H s       :     0.818211  s :     0.818211
      pz      :     0.016452  p :     0.058149
      px      :     0.029339
      py      :     0.012358

 14 H s       :     0.787516  s :     0.787516
      pz      :     0.015203  p :     0.057582
      px      :     0.029072
      py      :     0.013306

 15 H s       :     0.816961  s :     0.816961
      pz      :     0.015613  p :     0.058316
      px      :     0.030164
      py      :     0.012539

 16 H s       :     0.812690  s :     0.812690
      pz      :     0.011945  p :     0.057971
      px      :     0.018162
      py      :     0.027864

 17 H s       :     0.819262  s :     0.819262
      pz      :     0.016200  p :     0.058980
      px      :     0.017718
      py      :     0.025063

 18 H s       :     0.782739  s :     0.782739
      pz      :     0.012356  p :     0.057971
      px      :     0.017744
      py      :     0.027872

 19 H s       :     0.817577  s :     0.817577
      pz      :     0.025681  p :     0.058246
      px      :     0.019610
      py      :     0.012955

 20 H s       :     0.816361  s :     0.816361
      pz      :     0.012191  p :     0.058151
      px      :     0.018664
      py      :     0.027296

 21 H s       :     0.812110  s :     0.812110
      pz      :     0.011763  p :     0.057972
      px      :     0.020936
      py      :     0.025273

 22 H s       :     0.816211  s :     0.816211
      pz      :     0.012569  p :     0.058051
      px      :     0.020320
      py      :     0.025161

 23 H s       :     0.801457  s :     0.801457
      pz      :     0.026896  p :     0.060418
      px      :     0.021102
      py      :     0.012420

 24 H s       :     0.821174  s :     0.821174
      pz      :     0.012231  p :     0.058037
      px      :     0.018865
      py      :     0.026941

 25 H s       :     0.794425  s :     0.794425
      pz      :     0.028449  p :     0.057836
      px      :     0.017357
      py      :     0.012030

 26 H s       :     0.823304  s :     0.823304
      pz      :     0.013855  p :     0.058665
      px      :     0.013552
      py      :     0.031258

 27 H s       :     0.816194  s :     0.816194
      pz      :     0.021887  p :     0.057976
      px      :     0.022494
      py      :     0.013595

 28 H s       :     0.801610  s :     0.801610
      pz      :     0.033330  p :     0.059926
      px      :     0.014940
      py      :     0.011656

 29 H s       :     0.820555  s :     0.820555
      pz      :     0.012931  p :     0.058423
      px      :     0.024603
      py      :     0.020889

 30 H s       :     0.803794  s :     0.803794
      pz      :     0.032776  p :     0.059203
      px      :     0.015024
      py      :     0.011403

 31 H s       :     0.815124  s :     0.815124
      pz      :     0.021764  p :     0.057979
      px      :     0.023829
      py      :     0.012387



                      *****************************
                      * MAYER POPULATION ANALYSIS *
                      *****************************

  NA   - Mulliken gross atomic population
  ZA   - Total nuclear charge
  QA   - Mulliken gross atomic charge
  VA   - Mayer's total valence
  BVA  - Mayer's bonded valence
  FA   - Mayer's free valence

  ATOM       NA         ZA         QA         VA         BVA        FA
  0 C      6.4004     6.0000    -0.4004     3.8039     3.8039    -0.0000
  1 C      6.2789     6.0000    -0.2789     3.7059     3.7059    -0.0000
  2 C      6.4410     6.0000    -0.4410     3.7880     3.7880    -0.0000
  3 P     14.3405    15.0000     0.6595     4.6149     4.6149    -0.0000
  4 O      8.6059     8.0000    -0.6059     1.9627     1.9627    -0.0000
  5 C      6.2191     6.0000    -0.2191     3.6942     3.6942     0.0000
  6 C      6.4788     6.0000    -0.4788     3.7861     3.7861    -0.0000
  7 C      6.4500     6.0000    -0.4500     3.8244     3.8244     0.0000
  8 C      6.2112     6.0000    -0.2112     3.6546     3.6546    -0.0000
  9 C      6.4493     6.0000    -0.4493     3.8245     3.8245     0.0000
 10 C      6.4714     6.0000    -0.4714     3.8061     3.8061    -0.0000
 11 H      0.8133     1.0000     0.1867     0.9684     0.9684    -0.0000
 12 H      0.8577     1.0000     0.1423     0.9547     0.9547     0.0000
 13 H      0.8626     1.0000     0.1374     0.9586     0.9586    -0.0000
 14 H      0.8442     1.0000     0.1558     0.9278     0.9278    -0.0000
 15 H      0.8512     1.0000     0.1488     0.9541     0.9541    -0.0000
 16 H      0.8415     1.0000     0.1585     0.9589     0.9589    -0.0000
 17 H      0.8344     1.0000     0.1656     0.9479     0.9479     0.0000
 18 H      0.8292     1.0000     0.1708     0.9283     0.9283     0.0000
 19 H      0.8331     1.0000     0.1669     0.9472     0.9472    -0.0000
 20 H      0.8465     1.0000     0.1535     0.9462     0.9462    -0.0000
 21 H      0.8386     1.0000     0.1614     0.9602     0.9602    -0.0000
 22 H      0.8528     1.0000     0.1472     0.9573     0.9573     0.0000
 23 H      0.8091     1.0000     0.1909     0.9664     0.9664    -0.0000
 24 H      0.8631     1.0000     0.1369     0.9574     0.9574     0.0000
 25 H      0.8328     1.0000     0.1672     0.9209     0.9209     0.0000
 26 H      0.8663     1.0000     0.1337     0.9627     0.9627     0.0000
 27 H      0.8526     1.0000     0.1474     0.9606     0.9606     0.0000
 28 H      0.8094     1.0000     0.1906     0.9611     0.9611     0.0000
 29 H      0.8503     1.0000     0.1497     0.9507     0.9507     0.0000
 30 H      0.8125     1.0000     0.1875     0.9584     0.9584     0.0000
 31 H      0.8524     1.0000     0.1476     0.9615     0.9615     0.0000

  Mayer bond orders larger than 0.100000
B(  0-C ,  1-C ) :   0.9557 B(  0-C , 11-H ) :   0.9617 B(  0-C , 12-H ) :   0.9686 
B(  0-C , 13-H ) :   0.9576 B(  1-C ,  2-C ) :   0.9182 B(  1-C ,  3-P ) :   0.8724 
B(  1-C , 14-H ) :   0.9394 B(  2-C , 15-H ) :   0.9560 B(  2-C , 16-H ) :   0.9658 
B(  2-C , 17-H ) :   0.9744 B(  3-P ,  4-O ) :   1.9076 B(  3-P ,  5-C ) :   0.8818 
B(  3-P ,  8-C ) :   0.8778 B(  5-C ,  6-C ) :   0.8941 B(  5-C ,  7-C ) :   0.9655 
B(  5-C , 18-H ) :   0.9467 B(  6-C , 19-H ) :   0.9725 B(  6-C , 20-H ) :   0.9598 
B(  6-C , 21-H ) :   0.9657 B(  7-C , 22-H ) :   0.9677 B(  7-C , 23-H ) :   0.9625 
B(  7-C , 24-H ) :   0.9622 B(  8-C ,  9-C ) :   0.9453 B(  8-C , 10-C ) :   0.9223 
B(  8-C , 25-H ) :   0.9342 B(  9-C , 26-H ) :   0.9684 B(  9-C , 27-H ) :   0.9717 
B(  9-C , 28-H ) :   0.9557 B( 10-C , 29-H ) :   0.9710 B( 10-C , 30-H ) :   0.9590 
B( 10-C , 31-H ) :   0.9688 

-------
TIMINGS
-------

Total SCF time: 0 days 0 hours 0 min 54 sec 

Total time                  ....      54.664 sec
Sum of individual times     ....      54.658 sec  (100.0%)

SCF preparation             ....       0.195 sec  (  0.4%)
Fock matrix formation       ....      53.057 sec  ( 97.1%)
  Startup                   ....       0.043 sec  (  0.1% of F)
  Split-RI-J                ....       3.574 sec  (  6.7% of F)
  Chain of spheres X        ....      35.753 sec  ( 67.4% of F)
  XC integration            ....      13.529 sec  ( 25.5% of F)
    Basis function eval.    ....       1.922 sec  ( 14.2% of XC)
    Density eval.           ....       5.405 sec  ( 40.0% of XC)
    XC-Functional eval.     ....       0.294 sec  (  2.2% of XC)
    XC-Potential eval.      ....       5.245 sec  ( 38.8% of XC)
Diagonalization             ....       0.000 sec  (  0.0%)
Density matrix formation    ....       0.122 sec  (  0.2%)
Total Energy calculation    ....       0.048 sec  (  0.1%)
Population analysis         ....       0.094 sec  (  0.2%)
Orbital Transformation      ....       0.157 sec  (  0.3%)
Orbital Orthonormalization  ....       0.000 sec  (  0.0%)
DIIS solution               ....       0.786 sec  (  1.4%)
SOSCF solution              ....       0.199 sec  (  0.4%)
Finished LeanSCF after  54.7 sec

Maximum memory used throughout the entire LEANSCF-calculation: 62.2 MB


-------------------------------------------------------------------------------
                          DFT DISPERSION CORRECTION                            
                                                                               
                              DFTD3 V3.1  Rev 1                                
                              USING zero damping                               
-------------------------------------------------------------------------------
The M062X functional is recognized
Active option DFTDOPT                   ...         3   

molecular C6(AA) [au] = 8260.225152 


            DFT-D V3
 parameters
 s6 scaling factor         :     1.0000 
 rs6 scaling factor        :     1.6190 
 s8 scaling factor         :     0.0000 
 rs8 scaling factor        :     1.0000 
 Damping factor alpha6     :    14.0000 
 Damping factor alpha8     :    16.0000 
 ad hoc parameters k1-k3   :    16.0000     1.3333    -4.0000 

 Edisp/kcal,au: -1.128857656921  -0.001798948993 
 E6   /kcal   :  -1.128857657 
 E8   /kcal   :  -0.000000000 
 % E8         :   0.000000000 

-------------------------   ----------------
Dispersion correction           -0.001798949
-------------------------   ----------------


-------------------------   --------------------
FINAL SINGLE POINT ENERGY      -772.174536820762
-------------------------   --------------------



           ************************************************************
           *        Program running with 6 parallel MPI-processes     *
           *              working on a common directory               *
           ************************************************************

------------------------------------------------------------------------------
                              ORCA PROPERTY CALCULATIONS
------------------------------------------------------------------------------

GBWName                                 ... data/single_point_PO_M06-2x/80969/80969.gbw
Number of atoms                         ...     32
Number of basis functions               ...    473
Max core memory                         ...   1024 MB

Electric properties:
Dipole moment                           ... YES
Quadrupole moment                       ...  NO
Static polarizability (Dipole/Dipole)   ...  NO
Static polarizability (Dipole/Quad.)    ...  NO
Static polarizability (Quad./Quad.)     ...  NO
Static polarizability (Velocity)        ...  NO

Atomic electric properties:
Dipole moment                           ...  NO
Quadrupole moment                       ...  NO
Static polarizability                   ...  NO

Choice of electric origin               ... Center of mass
Position of electric origin             ...     0.200302    -0.044692    -0.581904

General magnetic properties:
Magnetizability                         ...  NO

EPR properties:
g-Tensor (aka g-matrix)                 ...  NO
Zero-Field splitting spin-orbit         ...  NO
Zero-field splitting spin-spin          ...  NO
Hyperfine couplings                     ...  NO (   0 nuclei)
Quadrupole couplings                    ...  NO (   0 nuclei)
Contact density                         ...  NO (   0 nuclei)

NMR properties:
Chemical shifts                         ...  NO (   0 nuclei)
Spin-rotation constants                 ...  NO (   0 nuclei)
Spin-spin couplings                     ...  NO (   0 nuclei,    0 pairs)

Choice of magnetic origin               ... GIAO
Position of magnetic origin             ...     0.000000     0.000000     0.000000

Properties with geometric perturbations:
SCF Hessian                             ...  NO
IR spectrum                             ...  NO
VCD spectrum                            ...  NO
X-ray spectroscopy properties:
SCF XES/XAS/RIXS spectra                ...  NO


-------------
DIPOLE MOMENT
-------------

Method             : SCF
Type of density    : Electron Density
Multiplicity       :   1
Irrep              :   0
Energy             :  -772.1727378717687316 Eh
Relativity type    : 
Basis              : AO
                                X                 Y                 Z
Electronic contribution:      2.292809684      -0.867496151      -5.881401020
Nuclear contribution   :     -3.065053100       0.735892059       7.270404046
                        -----------------------------------------
Total Dipole Moment    :     -0.772243417      -0.131604092       1.389003026
                        -----------------------------------------
Magnitude (a.u.)       :      1.594681453
Magnitude (Debye)      :      4.053358128



--------------------
Rotational spectrum 
--------------------
 
Rotational constants in cm-1:             0.031996             0.029136             0.022957 
Rotational constants in MHz :           959.205499           873.483736           688.243339 

Dipole components along the rotational axes: 
x,y,z [a.u.] :    -0.280087    -0.037122     1.569453 
x,y,z [Debye]:    -0.711924    -0.094356     3.989232 

 

Dipole moment calculation done in   0.0 sec 

Maximum memory used throughout the entire PROP-calculation: 31.0 MB

--------------------------------
SUGGESTED CITATIONS FOR THIS RUN
--------------------------------

Below you find a list of papers that are relevant to this ORCA run
We neither can nor want to force you to cite these papers, but we appreciate if you do
You receive ORCA, which is the product of decades of hard work by many enthusiastic individuals, for free
The only thing we kindly ask in return is that you cite our papers,
We deeply appreciate it, if you show your appreciation for ORCA by not just citing the generic ORCA reference.

Please note that relegating all ORCA citations to the supporting information does *not* help us.
SI sections are not indexed - citations you put there will not count into any citation statistics
But we need these citations in order to attract the funding resources that allow us to do what we are doing

Therefore, if you are a happy ORCA user, please consider citing a few of the papers listed below in the main body of your paper

In addition to the list printed below, the program has created the file data/single_point_PO_M06-2x/80969/80969.bibtex that contains the list in bibtex format
You can import this file easily into all common literature databanks and citation aid programs


List of essential papers. We consider these as the minimum necessary citations

  1. Neese,F.
     Software update: the ORCA program system, version 5.0
     WIRES Comput. Molec. Sci., 2022 12(1)e1606
     doi.org/10.1002/wcms.1606

List of papers to cite with high priority. The work reported in these papers was absolutely
necessary for this run to complete.
Our perspective: the developers of density functionals and basis sets usually get cited in chemistry papers
Good! But without the algorithms to do something with them, the functionals or basis sets would not do anything.
Hence, in our opinion, the algorithm design and method developments papers are equally worthy of getting cited

  1. Neese,F.
     An improvement of the resolution of the identity approximation for the formation of the Coulomb matrix
     J. Comp. Chem., 2003 24(14)1740-1747
     doi.org/10.1002/jcc.10318
  2. Neese,F.; Wennmohs,F.; Hansen,A.; Becker,U.
     Efficient, approximate and parallel Hartree-Fock and hybrid DFT calculations. A 'chain-of-spheres' algorithm for the Hartree-Fock exchange
     Chem. Phys., 2009 356(1-3)98-109
     doi.org/10.1016/j.chemphys.2008.10.036
  3. Helmich-Paris,B.; de Souza,B.; Neese,F.; Izsák,R.
     An improved chain of spheres for exchange algorithm
     J. Chem. Phys., 2021 155 104109
     doi.org/doi: 10.1063/5.0058766.
  4. Neese,F.
     The SHARK Integral Generation and Digestion System
     J. Comp. Chem., 2022  1-16
     doi.org/10.1002/jcc.26942
  5. Grimme,S.; Antony,J.; Ehrlich,S.; Krieg,H.
     A consistent and accurate ab initio parametrization of density functional dispersion correction (DFT-D) for the 94 elements H-Pu
     J. Chem. Phys., 2010 132 154104-XXXX
     doi.org/10.1063/1.3382344

List of suggested additional citations. These are papers that are important in the 'surrounding' of 
of this run, or papers that preceded the highly important papers. If you like your results we are grateful for a citation.

  1. Izsak,R.; Neese,F.
     An overlap fitted chain of spheres exchange method
     J. Chem. Phys., 2011 135 144105
     doi.org/10.1063/1.3646921
  2. Izsak,R.; Hansen,A.; Neese,F.
     The resolution of identity and chain of spheres approximations for the LPNO-CCSD singles Fock term
     Molec. Phys., 2012 110 2413-2417
     doi.org/10.1080/00268976.2012.687466
  3. Neese,F.
     The ORCA program system
     WIRES Comput. Molec. Sci., 2012 2(1)73-78
     doi.org/10.1002/wcms.81
  4. Izsak,R.; Neese,F.; Klopper,W.
     Robust fitting techniques in the chain of spheres approximation to the Fock exchange: The role of the complementary space
     J. Chem. Phys., 2013 139 
     doi.org/10.1063/1.4819264
  5. Neese,F.
     Software update: the ORCA program system, version 4.0
     WIRES Comput. Molec. Sci., 2018 8(1)1-6
     doi.org/10.1002/wcms.1327
  6. Neese,F.; Wennmohs,F.; Becker,U.; Riplinger,C.
     The ORCA quantum chemistry program package
     J. Chem. Phys., 2020 152 Art. No. L224108
     doi.org/10.1063/5.0004608

List of optional additional citations

  1. Neese,F.
     Approximate second-order SCF convergence for spin unrestricted wavefunctions
     Chem. Phys. Lett., 2000 325(1-3)93-98
     doi.org/10.1016/s0009-2614(00)00662-x

Timings for individual modules:

Sum of individual times          ...       58.344 sec (=   0.972 min)
Startup calculation              ...        2.335 sec (=   0.039 min)   4.0 %
SCF iterations                   ...       55.809 sec (=   0.930 min)  95.7 %
Property calculations            ...        0.200 sec (=   0.003 min)   0.3 %
                             ****ORCA TERMINATED NORMALLY****
TOTAL RUN TIME: 0 days 0 hours 0 minutes 58 seconds 569 msec
