
                                 *****************
                                 * O   R   C   A *
                                 *****************

                                            #,                                       
                                            ###                                      
                                            ####                                     
                                            #####                                    
                                            ######                                   
                                           ########,                                 
                                     ,,################,,,,,                         
                               ,,#################################,,                 
                          ,,##########################################,,             
                       ,#########################################, ''#####,          
                    ,#############################################,,   '####,        
                  ,##################################################,,,,####,       
                ,###########''''           ''''###############################       
              ,#####''   ,,,,##########,,,,          '''####'''          '####       
            ,##' ,,,,###########################,,,                        '##       
           ' ,,###''''                  '''############,,,                           
         ,,##''                                '''############,,,,        ,,,,,,###''
      ,#''                                            '''#######################'''  
     '                                                          ''''####''''         
             ,#######,   #######,   ,#######,      ##                                
            ,#'     '#,  ##    ##  ,#'     '#,    #''#        ,####,   ,####,        
            ##       ##  ##   ,#'  ##            #'  '#       #'       #'  '#        
            ##       ##  #######   ##           ,######,      #####,   #    #        
            '#,     ,#'  ##    ##  '#,     ,#' ,#      #,     #,   #   #,  ,#        
             '#######'   ##     ##  '#######'  #'      '#     '####' # '####'        



                #########################################################
                #                        -***-                          #
                #          Department of theory and spectroscopy        #
                #                                                       #
                #                      Frank Neese                      #
                #                                                       #
                #     Directorship, Architecture, Infrastructure        #
                #                    SHARK, DRIVERS                     #
                #        Core code/Algorithms in most modules           #
                #                                                       #
                #        Max Planck Institute fuer Kohlenforschung      #
                #                Kaiser Wilhelm Platz 1                 #
                #                 D-45470 Muelheim/Ruhr                 #
                #                      Germany                          #
                #                                                       #
                #                  All rights reserved                  #
                #                        -***-                          #
                #########################################################


                         Program Version 6.0.0  -   RELEASE   -


 With contributions from (in alphabetic order):
   Daniel Aravena         : Magnetic Suceptibility
   Michael Atanasov       : Ab Initio Ligand Field Theory (pilot matlab implementation)
   Alexander A. Auer      : GIAO ZORA, VPT2 properties, NMR spectrum
   Ute Becker             : All parallelization in ORCA, NUMFREQ, NUMCALC
   Giovanni Bistoni       : ED, misc. LED, open-shell LED, HFLD
   Martin Brehm           : Molecular dynamics
   Dmytro Bykov           : pre 5.0 version of the SCF Hessian
   Marcos Casanova-Páez   : Triplet and SCS-CIS(D). UHF-(DLPNO)-IP/EA/STEOM-CCSD. UHF-CVS-IP/STEOM-CCSD
   Vijay G. Chilkuri      : MRCI spin determinant printing, contributions to CSF-ICE
   Pauline Colinet        : FMM embedding
   Dipayan Datta          : RHF DLPNO-CCSD density
   Achintya Kumar Dutta   : EOM-CC, STEOM-CC
   Nicolas Foglia         : Exact transition moments, OPA infrastructure, MCD improvements
   Dmitry Ganyushin       : Spin-Orbit,Spin-Spin,Magnetic field MRCI
   Miquel Garcia          : C-PCM and meta-GGA Hessian, CCSD/C-PCM, Gaussian charge scheme
   Tiago L. C. Gouveia    : GS-ROHF, GS-ROCIS
   Yang Guo               : DLPNO-NEVPT2, F12-NEVPT2, CIM, IAO-localization
   Andreas Hansen         : Spin unrestricted coupled pair/coupled cluster methods
   Ingolf Harden          : AUTO-CI MPn and infrastructure 
   Benjamin Helmich-Paris : MC-RPA, TRAH-(SCF,CASSCF), AVAS, COSX integrals, SCF dyn. polar.
   Lee Huntington         : MR-EOM, pCC
   Robert Izsak           : Overlap fitted RIJCOSX, COSX-SCS-MP3, EOM
   Riya Kayal             : Wick's Theorem for AUTO-CI, AUTO-CI UHF-CCSDT
   Emily Kempfer          : AUTO-CI, RHF CISDT and CCSDT
   Christian Kollmar      : KDIIS, OOCD, Brueckner-CCSD(T), CCSD density, CASPT2, CASPT2-K, improved NEVPT2
   Axel Koslowski         : Symmetry handling
   Simone Kossmann        : Meta GGA functionals, TD-DFT gradient, OOMP2, (MP2 Hessian; deprecated post 5.0)
   Lucas Lang             : DCDCAS
   Marvin Lechner         : AUTO-CI (C++ implementation), FIC-MRCC
   Spencer Leger          : CASSCF response
   Dagmar Lenk            : GEPOL surface, SMD, ORCA-2-JSON
   Dimitrios Liakos       : Extrapolation schemes; Compound Job, initial MDCI parallelization
   Dimitrios Manganas     : Further ROCIS development; embedding schemes. LFT, Crystal Embedding
   Dimitrios Pantazis     : SARC Basis sets
   Anastasios Papadopoulos: AUTO-CI, single reference methods and gradients
   Taras Petrenko         : pre 6.0 DFT Hessian and TD-DFT gradient, (ASA, deprecated), ECA, 1-Electron XAS/XES, NRVS
   Peter Pinski           : DLPNO-MP2, DLPNO-MP2 Gradient
   Christoph Reimann      : Effective Core Potentials
   Marius Retegan         : Local ZFS, SOC
   Christoph Riplinger    : Optimizer, TS searches, QM/MM, DLPNO-CCSD(T), (RO)-DLPNO pert. Triples
   Michael Roemelt        : Original ROCIS implementation
   Masaaki Saitow         : Open-shell DLPNO-CCSD energy and density
   Barbara Sandhoefer     : DKH picture change effects
   Kantharuban Sivalingam : CASSCF convergence/infrastructure, NEVPT2 and variants, FIC-MRCI
   Bernardo de Souza      : ESD, SOC TD-DFT
   Georgi Stoychev        : AutoAux, RI-MP2 NMR, DLPNO-MP2 response, X2C
   Van Anh Tran           : RI-MP2 g-tensors
   Willem Van den Heuvel  : Paramagnetic NMR
   Zikuan Wang            : NOTCH, Electric field optimization 
   Frank Wennmohs         : Technical directorship and infrastructure
   Hang Xu                : AUTO-CI-Response properties 


 We gratefully acknowledge several colleagues who have allowed us to
 interface, adapt or use parts of their codes:
   Stefan Grimme, W. Hujo, H. Kruse, P. Pracht,  : VdW corrections, initial TS optimization,
                  C. Bannwarth, S. Ehlert,         DFT functionals, gCP, sTDA/sTD-DF
                  L. Wittmann, M. Mueller
   Ed Valeev, F. Pavosevic, A. Kumar             : LibInt (2-el integral package), F12 methods
   Garnet Chan, S. Sharma, J. Yang, R. Olivares  : DMRG
   Ulf Ekstrom                                   : XCFun DFT Library
   Mihaly Kallay                                 : mrcc  (arbitrary order and MRCC methods)
   Frank Weinhold                                : gennbo (NPA and NBO analysis)
   Simon Mueller                                 : openCOSMO-RS
   Christopher J. Cramer and Donald G. Truhlar   : smd solvation model
   Lars Goerigk                                  : TD-DFT with DH, B97 family of functionals
   V. Asgeirsson, H. Jonsson                     : NEB implementation
   FAccTs GmbH                                   : IRC, NEB, NEB-TS, DLPNO-Multilevel, CI-OPT
                                                   MM, QMMM, 2- and 3-layer-ONIOM, Crystal-QMMM,
                                                   LR-CPCM, SF, NACMEs, symmetry and pop. for TD-DFT,
                                                   nearIR, NL-DFT gradient (VV10), updates on ESD,
                                                   ML-optimized integration grids, MBIS, APM,
                                                   GOAT, DOCKER, SOLVATOR, interface openCOSMO-RS
   S Lehtola, MJT Oliveira, MAL Marques          : LibXC Library
   Liviu Ungur et al                             : ANISO software


 Your calculation uses the libint2 library for the computation of 2-el integrals
 For citations please refer to: http://libint.valeyev.net

 Your ORCA version has been built with support for libXC version: 6.2.2
 For citations please refer to: https://libxc.gitlab.io

 This ORCA versions uses:
   CBLAS   interface :  Fast vector & matrix operations
   LAPACKE interface :  Fast linear algebra routines
   Shared memory     :  Shared parallel matrices


Your calculation utilizes the atom-pairwise dispersion correction
with the zero-damping scheme (D30)


XCFun DFT library Copyright 2009-2010 Ulf Ekstrom and contributors.
See http://admol.org/xcfun for more information.
This is free software; see the source code for copying conditions.
There is ABSOLUTELY NO WARRANTY; not even for MERCHANTABILITY or FITNESS FOR A PARTICULAR PURPOSE.
For details see the documentation.
Scientific users of this library should cite U. Ekstrom, L. Visscher, R. Bast, A. J. Thorvaldsen and K. Ruud;
J.Chem.Theor.Comp. 2010, DOI: 10.1021/ct100117s
XCFun Version 0.99 

Warning: RI is on but no J-basis has been assigned. Assigning Def2/J (nothing to worry about!)
================================================================================

----- Orbital basis set information -----
Your calculation utilizes the basis: def2-TZVP
   F. Weigend and R. Ahlrichs, Phys. Chem. Chem. Phys. 7, 3297 (2005).

----- AuxJ basis set information -----
Your calculation utilizes the auxiliary basis: def2/J
   F. Weigend, Phys. Chem. Chem. Phys. 8, 1057 (2006).

================================================================================
                                        WARNINGS
                       Please study these warnings very carefully!
================================================================================

WARNING: Functional chosen is sensitive to the integration grid.
         DEFGRID3 seems to be a minimum grid for robust results!

================================================================================
                                       INPUT FILE
================================================================================
NAME = data/single_point_PO_M06-2x/143061/143061.inp
|  1> ! RIJCOSX M062X def2-TZVP D3ZERO NormalSCF
|  2> %pal
|  3> nprocs 6
|  4> end
|  5> 
|  6> * xyz 0 1
|  7>   C           0.82526224991168     -0.54039669639180     -1.45940790915139
|  8>   N           1.40710884991475     -0.68740152532233     -0.11512986298262
|  9>   C           1.56582043397603      0.65217888525770      0.47462196109763
| 10>   N           0.32776746987480      1.44777158395572      0.50885720745818
| 11>   C          -0.21799955501502      1.52353773625080     -0.85603681780201
| 12>   N          -0.43841012962536      0.21408518710157     -1.49199817565319
| 13>   C          -1.53096605008169     -0.52871132035432     -0.83776029580344
| 14>   P          -1.13395216858075     -0.85308688306447      0.96009137981296
| 15>   O          -2.13685262723531     -1.60840135707069      1.80821492631297
| 16>   C           0.58263412776820     -1.56108030890228      0.73989605065260
| 17>   C          -0.65314268598330      0.88472802960318      1.45462507575409
| 18>   H           0.66127127289841     -1.54651932912208     -1.89726645350642
| 19>   H           1.56088587748254     -0.00155920967439     -2.09226533588852
| 20>   H           2.31071972979557      1.20692931903089     -0.13308311275152
| 21>   H           1.96291230319342      0.55211419866378      1.50574753225500
| 22>   H          -1.17513745494788      2.08421899441921     -0.83587862283624
| 23>   H           0.50405470319786      2.08885699033498     -1.48139937374101
| 24>   H          -2.48062024116134      0.04544555178745     -0.90197653648824
| 25>   H          -1.70263694750730     -1.49902736302163     -1.35250409015090
| 26>   H           1.05566535832970     -1.68322957274966      1.73845884138232
| 27>   H           0.50203628659437     -2.57526083823616      0.29200535319522
| 28>   H          -0.23124168257821      0.86535747766940      2.48285815448861
| 29>   H          -1.56517812022115      1.51944844983514      1.48932910434593
| 30> **                         ****END OF INPUT****
================================================================================

                       ****************************
                       * Single Point Calculation *
                       ****************************

---------------------------------
CARTESIAN COORDINATES (ANGSTROEM)
---------------------------------
  C      0.825262   -0.540397   -1.459408
  N      1.407109   -0.687402   -0.115130
  C      1.565820    0.652179    0.474622
  N      0.327767    1.447772    0.508857
  C     -0.218000    1.523538   -0.856037
  N     -0.438410    0.214085   -1.491998
  C     -1.530966   -0.528711   -0.837760
  P     -1.133952   -0.853087    0.960091
  O     -2.136853   -1.608401    1.808215
  C      0.582634   -1.561080    0.739896
  C     -0.653143    0.884728    1.454625
  H      0.661271   -1.546519   -1.897266
  H      1.560886   -0.001559   -2.092265
  H      2.310720    1.206929   -0.133083
  H      1.962912    0.552114    1.505748
  H     -1.175137    2.084219   -0.835879
  H      0.504055    2.088857   -1.481399
  H     -2.480620    0.045446   -0.901977
  H     -1.702637   -1.499027   -1.352504
  H      1.055665   -1.683230    1.738459
  H      0.502036   -2.575261    0.292005
  H     -0.231242    0.865357    2.482858
  H     -1.565178    1.519448    1.489329

----------------------------
CARTESIAN COORDINATES (A.U.)
----------------------------
  NO LB      ZA    FRAG     MASS         X           Y           Z
   0 C     6.0000    0    12.011    1.559520   -1.021202   -2.757881
   1 N     7.0000    0    14.007    2.659050   -1.299001   -0.217564
   2 C     6.0000    0    12.011    2.958972    1.232439    0.896906
   3 N     7.0000    0    14.007    0.619391    2.735892    0.961601
   4 C     6.0000    0    12.011   -0.411959    2.879069   -1.617675
   5 N     7.0000    0    14.007   -0.828475    0.404562   -2.819468
   6 C     6.0000    0    12.011   -2.893107   -0.999120   -1.583138
   7 P    15.0000    0    30.974   -2.142859   -1.612101    1.814310
   8 O     8.0000    0    15.999   -4.038066   -3.039438    3.417031
   9 C     6.0000    0    12.011    1.101019   -2.950014    1.398201
  10 C     6.0000    0    12.011   -1.234261    1.671894    2.748843
  11 H     1.0000    0     1.008    1.249622   -2.922498   -3.585314
  12 H     1.0000    0     1.008    2.949647   -0.002946   -3.953808
  13 H     1.0000    0     1.008    4.366627    2.280766   -0.251491
  14 H     1.0000    0     1.008    3.709367    1.043345    2.845450
  15 H     1.0000    0     1.008   -2.220688    3.938603   -1.579582
  16 H     1.0000    0     1.008    0.952525    3.947368   -2.799439
  17 H     1.0000    0     1.008   -4.687693    0.085880   -1.704489
  18 H     1.0000    0     1.008   -3.217518   -2.832751   -2.555862
  19 H     1.0000    0     1.008    1.994918   -3.180843    3.285211
  20 H     1.0000    0     1.008    0.948711   -4.866538    0.551810
  21 H     1.0000    0     1.008   -0.436983    1.635289    4.691922
  22 H     1.0000    0     1.008   -2.957758    2.871341    2.814424

--------------------------------
INTERNAL COORDINATES (ANGSTROEM)
--------------------------------
 C      0   0   0     0.000000000000     0.00000000     0.00000000
 N      1   0   0     1.472154662756     0.00000000     0.00000000
 C      2   1   0     1.472233764499   108.51392058     0.00000000
 N      3   2   1     1.472044474951   114.23115625    55.04115054
 C      4   3   2     1.471916388754   108.54818065   304.94123794
 N      1   2   3     1.472132100321   114.24634422   304.95225462
 C      6   1   2     1.474263305602   111.59829420   291.72453611
 P      7   6   1     1.869521375996   110.90397031    60.79302590
 O      8   7   6     1.515131292905   118.96261340   180.04453233
 C      2   1   3     1.474497371081   111.57235582   123.27945991
 C      4   3   2     1.474340408001   111.59730922    68.31391379
 H      1   2   3     1.109457478905   109.16214292   182.35809983
 H      1   2   3     1.109953368889   107.88895187    64.93464706
 H      3   2   1     1.109922727700   107.92656396   295.07451771
 H      3   2   1     1.109466014620   109.19695370   177.57163757
 H      5   4   3     1.109451569729   109.21097410   177.58245755
 H      5   4   3     1.109966908161   107.90588366   295.10472332
 H      7   6   1     1.111585769084   110.31894274   181.73962327
 H      7   6   1     1.111730764844   110.40889829   299.78507158
 H     10   2   1     1.111668401447   110.36835504   178.26735527
 H     10   2   1     1.111604351804   110.33403978    60.20926295
 H     11   4   3     1.111592973691   110.33534516    60.06740990
 H     11   4   3     1.111702754681   110.35346443   178.11121717

---------------------------
INTERNAL COORDINATES (A.U.)
---------------------------
 C      0   0   0     0.000000000000     0.00000000     0.00000000
 N      1   0   0     2.781969139385     0.00000000     0.00000000
 C      2   1   0     2.782118620015   108.51392058     0.00000000
 N      3   2   1     2.781760914610   114.23115625    55.04115054
 C      4   3   2     2.781518866775   108.54818065   304.94123794
 N      1   2   3     2.781926502561   114.24634422   304.95225462
 C      6   1   2     2.785953896876   111.59829420   291.72453611
 P      7   6   1     3.532883402143   110.90397031    60.79302590
 O      8   7   6     2.863183200525   118.96261340   180.04453233
 C      2   1   3     2.786396216530   111.57235582   123.27945991
 C      4   3   2     2.786099599296   111.59730922    68.31391379
 H      1   2   3     2.096570792361   109.16214292   182.35809983
 H      1   2   3     2.097507888624   107.88895187    64.93464706
 H      3   2   1     2.097449985169   107.92656396   295.07451771
 H      3   2   1     2.096586922524   109.19695370   177.57163757
 H      5   4   3     2.096559625636   109.21097410   177.58245755
 H      5   4   3     2.097533474139   107.90588366   295.10472332
 H      7   6   1     2.100592677933   110.31894274   181.73962327
 H      7   6   1     2.100866680209   110.40889829   299.78507158
 H     10   2   1     2.100748830468   110.36835504   178.26735527
 H     10   2   1     2.100627794186   110.33403978    60.20926295
 H     11   4   3     2.100606292668   110.33534516    60.06740990
 H     11   4   3     2.100813748673   110.35346443   178.11121717

---------------------
BASIS SET INFORMATION
---------------------
There are 5 groups of distinct atoms

 Group   1 Type C   : 11s6p2d1f contracted to 5s3p2d1f pattern {62111/411/11/1}
 Group   2 Type N   : 11s6p2d1f contracted to 5s3p2d1f pattern {62111/411/11/1}
 Group   3 Type P   : 14s9p3d1f contracted to 5s5p2d1f pattern {73211/51111/21/1}
 Group   4 Type O   : 11s6p2d1f contracted to 5s3p2d1f pattern {62111/411/11/1}
 Group   5 Type H   : 5s1p contracted to 3s1p pattern {311/1}

Atom   0C    basis set group =>   1
Atom   1N    basis set group =>   2
Atom   2C    basis set group =>   1
Atom   3N    basis set group =>   2
Atom   4C    basis set group =>   1
Atom   5N    basis set group =>   2
Atom   6C    basis set group =>   1
Atom   7P    basis set group =>   3
Atom   8O    basis set group =>   4
Atom   9C    basis set group =>   1
Atom  10C    basis set group =>   1
Atom  11H    basis set group =>   5
Atom  12H    basis set group =>   5
Atom  13H    basis set group =>   5
Atom  14H    basis set group =>   5
Atom  15H    basis set group =>   5
Atom  16H    basis set group =>   5
Atom  17H    basis set group =>   5
Atom  18H    basis set group =>   5
Atom  19H    basis set group =>   5
Atom  20H    basis set group =>   5
Atom  21H    basis set group =>   5
Atom  22H    basis set group =>   5
---------------------------------
AUXILIARY/J BASIS SET INFORMATION
---------------------------------
There are 5 groups of distinct atoms

 Group   1 Type C   : 12s5p4d2f1g contracted to 6s4p3d1f1g pattern {711111/2111/211/2/1}
 Group   2 Type N   : 12s5p4d2f1g contracted to 6s4p3d1f1g pattern {711111/2111/211/2/1}
 Group   3 Type P   : 14s5p5d2f1g contracted to 8s4p3d1f1g pattern {71111111/2111/311/2/1}
 Group   4 Type O   : 12s5p4d2f1g contracted to 6s4p3d1f1g pattern {711111/2111/211/2/1}
 Group   5 Type H   : 5s2p1d contracted to 3s1p1d pattern {311/2/1}

Atom   0C    basis set group =>   1
Atom   1N    basis set group =>   2
Atom   2C    basis set group =>   1
Atom   3N    basis set group =>   2
Atom   4C    basis set group =>   1
Atom   5N    basis set group =>   2
Atom   6C    basis set group =>   1
Atom   7P    basis set group =>   3
Atom   8O    basis set group =>   4
Atom   9C    basis set group =>   1
Atom  10C    basis set group =>   1
Atom  11H    basis set group =>   5
Atom  12H    basis set group =>   5
Atom  13H    basis set group =>   5
Atom  14H    basis set group =>   5
Atom  15H    basis set group =>   5
Atom  16H    basis set group =>   5
Atom  17H    basis set group =>   5
Atom  18H    basis set group =>   5
Atom  19H    basis set group =>   5
Atom  20H    basis set group =>   5
Atom  21H    basis set group =>   5
Atom  22H    basis set group =>   5


           ************************************************************
           *        Program running with 6 parallel MPI-processes     *
           *              working on a common directory               *
           ************************************************************
------------------------------------------------------------------------------
                             ORCA STARTUP CALCULATIONS
                           -- RI-GTO INTEGRALS CHOSEN --
------------------------------------------------------------------------------
------------------------------------------------------------------------------
                   ___                                                        
                  /   \      - P O W E R E D   B Y -                         
                 /     \                                                     
                 |  |  |   _    _      __       _____    __    __             
                 |  |  |  | |  | |    /  \     |  _  \  |  |  /  |          
                  \  \/   | |  | |   /    \    | | | |  |  | /  /          
                 / \  \   | |__| |  /  /\  \   | |_| |  |  |/  /          
                |  |  |   |  __  | /  /__\  \  |    /   |      \           
                |  |  |   | |  | | |   __   |  |    \   |  |\   \          
                \     /   | |  | | |  |  |  |  | |\  \  |  | \   \       
                 \___/    |_|  |_| |__|  |__|  |_| \__\ |__|  \__/        
                                                                              
                      - O R C A' S   B I G   F R I E N D -                    
                                      &                                       
                       - I N T E G R A L  F E E D E R -                       
                                                                              
 v1 FN, 2020, v2 2021, v3 2022-2024                                           
------------------------------------------------------------------------------


----------------------
SHARK INTEGRAL PACKAGE
----------------------

Number of atoms                             ...     23
Number of basis functions                   ...    419
Number of shells                            ...    171
Maximum angular momentum                    ...      3
Integral batch strategy                     ... SHARK/LIBINT Hybrid
RI-J (if used) integral strategy            ... SPLIT-RIJ (Revised 2003 algorithm where possible)
Printlevel                                  ...      1
Contraction scheme used                     ... SEGMENTED contraction
Prescreening option                         ... SCHWARTZ
   Thresh                                   ... 1.000e-10
   Tcut                                     ... 1.000e-11
   Tpresel                                  ... 1.000e-11 
Coulomb Range Separation                    ... NOT USED
Exchange Range Separation                   ... NOT USED
Multipole approximations                    ... NOT USED
Finite Nucleus Model                        ... NOT USED
CABS basis                                  ... NOT available
Auxiliary Coulomb fitting basis             ... AVAILABLE
   # of basis functions in Aux-J            ...    673
   # of shells in Aux-J                     ...    227
   Maximum angular momentum in Aux-J        ...      4
Auxiliary J/K fitting basis                 ... NOT available
Auxiliary Correlation fitting basis         ... NOT available
Auxiliary 'external' fitting basis          ... NOT available

Checking pre-screening integrals            ... done (  0.0 sec) Dimension = 171
Check shell pair data                       ... done (  0.0 sec)
Shell pair information
Shell pair cut-off parameter TPreSel        ...   1.0e-11
Total number of shell pairs                 ...     14706
Shell pairs after pre-screening             ...     13435
Total number of primitive shell pairs       ...     45142
Primitive shell pairs kept                  ...     29978
          la=0 lb=0:   3646 shell pairs
          la=1 lb=0:   3925 shell pairs
          la=1 lb=1:   1089 shell pairs
          la=2 lb=0:   1827 shell pairs
          la=2 lb=1:    992 shell pairs
          la=2 lb=2:    247 shell pairs
          la=3 lb=0:    920 shell pairs
          la=3 lb=1:    499 shell pairs
          la=3 lb=2:    230 shell pairs
          la=3 lb=3:     60 shell pairs

Calculating one electron integrals          ... done (  0.0 sec)
Calculating RI/J V-Matrix + Cholesky decomp.... done (  0.0 sec)
Calculating Nuclear repulsion               ... done (  0.0 sec) ENN=    828.177487268451 Eh

Diagonalization of the overlap matrix:
Smallest eigenvalue                        ... 1.842e-04
Time for diagonalization                   ...    0.028 sec
Threshold for overlap eigenvalues          ... 1.000e-07
Number of eigenvalues below threshold      ... 0
Time for construction of square roots      ...    0.018 sec
Total time needed                          ...    0.047 sec

-------------------
DFT GRID GENERATION
-------------------

General Integration Accuracy     IntAcc      ... 4.388
Radial Grid Type                 RadialGrid  ... OptM3 with GC (2021)
Angular Grid (max. ang.)         AngularGrid ... 4 (Lebedev-302)
Angular grid pruning method      GridPruning ... 4 (adaptive)
Weight generation scheme         WeightScheme... mBecke (2022)
Basis function cutoff            BFCut       ... 1.0000e-10
Integration weight cutoff        WCut        ... 1.0000e-14
Partially contracted basis set               ... off
Rotationally invariant grid construction     ... off
Angular grids for H and He will be reduced by one unit

Total number of grid points                  ...   104900
Total number of batches                      ...     1650
Average number of points per batch           ...       63
Average number of grid points per atom       ...     4561

--------------------
COSX GRID GENERATION
--------------------

GRIDX 1
-------
General Integration Accuracy     IntAcc      ... 3.816
Radial Grid Type                 RadialGrid  ... OptM3 with GC (2021)
Angular Grid (max. ang.)         AngularGrid ... 1 (Lebedev-50)
Angular grid pruning method      GridPruning ... 4 (adaptive)
Weight generation scheme         WeightScheme... mBecke (2022)
Basis function cutoff            BFCut       ... 1.0000e-10
Integration weight cutoff        WCut        ... 1.0000e-14
Partially contracted basis set               ... on
Rotationally invariant grid construction     ... off
Angular grids for H and He will be reduced by one unit

Total number of grid points                  ...    14358
Total number of batches                      ...      126
Average number of points per batch           ...      113
Average number of grid points per atom       ...      624
UseSFitting                                  ... on

GRIDX 2
-------
General Integration Accuracy     IntAcc      ... 4.020
Radial Grid Type                 RadialGrid  ... OptM3 with GC (2021)
Angular Grid (max. ang.)         AngularGrid ... 2 (Lebedev-110)
Angular grid pruning method      GridPruning ... 4 (adaptive)
Weight generation scheme         WeightScheme... mBecke (2022)
Basis function cutoff            BFCut       ... 1.0000e-10
Integration weight cutoff        WCut        ... 1.0000e-14
Partially contracted basis set               ... on
Rotationally invariant grid construction     ... off
Angular grids for H and He will be reduced by one unit

Total number of grid points                  ...    28388
Total number of batches                      ...      230
Average number of points per batch           ...      123
Average number of grid points per atom       ...     1234
UseSFitting                                  ... on

GRIDX 3
-------
General Integration Accuracy     IntAcc      ... 4.338
Radial Grid Type                 RadialGrid  ... OptM3 with GC (2021)
Angular Grid (max. ang.)         AngularGrid ... 3 (Lebedev-194)
Angular grid pruning method      GridPruning ... 4 (adaptive)
Weight generation scheme         WeightScheme... mBecke (2022)
Basis function cutoff            BFCut       ... 1.0000e-10
Integration weight cutoff        WCut        ... 1.0000e-14
Partially contracted basis set               ... on
Rotationally invariant grid construction     ... off
Angular grids for H and He will be reduced by one unit

Total number of grid points                  ...    62476
Total number of batches                      ...      500
Average number of points per batch           ...      124
Average number of grid points per atom       ...     2716
UseSFitting                                  ... on
Initializing property integral containers    ... done (  0.0 sec)

SHARK setup successfully completed in   1.9 seconds

Maximum memory used throughout the entire STARTUP-calculation: 40.6 MB


           ************************************************************
           *        Program running with 6 parallel MPI-processes     *
           *              working on a common directory               *
           ************************************************************
-------------------------------------------------------------------------------
                                 ORCA GUESS
                   Start orbitals & Density for SCF / CASSCF
-------------------------------------------------------------------------------

------------
SCF SETTINGS
------------
Hamiltonian:
 Density Functional     Method          .... DFT(GTOs)
 Exchange Functional    Exchange        .... M062X
 Correlation Functional Correlation     .... M062X
 Gradients option       PostSCFGGA      .... off
 Hybrid DFT is turned on
   Fraction HF Exchange ScalHFX         ....  0.540000
   Scaling of DF-GGA-X  ScalDFX         ....  0.460000
   Scaling of DF-GGA-C  ScalDFC         ....  1.000000
   Scaling of DF-LDA-C  ScalLDAC        ....  1.000000
   Perturbative correction              ....  0.000000
 RI-approximation to the Coulomb term is turned on
   Number of AuxJ basis functions       .... 673
   RIJ-COSX (HFX calculated with COS-X)).... on


General Settings:
 Integral files         IntName         .... data/single_point_PO_M06-2x/143061/143061
 Hartree-Fock type      HFTyp           .... RHF
 Total Charge           Charge          ....    0
 Multiplicity           Mult            ....    1
 Number of Electrons    NEL             ....   92
 Basis Dimension        Dim             ....  419
 Nuclear Repulsion      ENuc            ....    828.1774872685 Eh

Convergence Acceleration:
 AO-DIIS                CNVDIIS         .... on
   Start iteration      DIISMaxIt       ....    12
   Startup error        DIISStart       ....  0.200000
   # of expansion vecs  DIISMaxEq       ....     5
   Bias factor          DIISBfac        ....   1.050
   Max. coefficient     DIISMaxC        ....  10.000
 MO-DIIS                CNVKDIIS        .... off
 Trust-Rad. Augm. Hess. CNVTRAH         .... auto
   Auto Start mean grad. ratio tolernc. ....  1.125000
   Auto Start start iteration           ....    50
   Auto Start num. interpolation iter.  ....    10
   Max. Number of Micro iterations      ....    24
   Max. Number of Macro iterations      .... Maxiter - #DIIS iter
   Number of Davidson start vectors     ....     2
   Converg. threshold    (grad. norm)   ....   5.000e-05
   Grad. Scal. Fac. for Micro threshold ....   0.100
   Minimum threshold for Micro iter.    ....   1.000e-02
   NR start threshold (gradient norm)   ....   1.000e-04
   Initial trust radius                 ....   0.400
   Minimum AH scaling param. (alpha)    ....   1.000
   Maximum AH scaling param. (alpha)    .... 1000.000
   Quad. conv. algorithm                .... NR
   White noise on init. David. guess    .... on
   Maximum white noise                  ....   0.010
   Pseudo random numbers                .... off
   Inactive MOs                         .... canonical
   Orbital update algorithm             .... Taylor
   Preconditioner                       .... Diag
   Full preconditioner red. dimension   ....   250
 SOSCF                  CNVSOSCF        .... on
   Start iteration      SOSCFMaxIt      ....   150
   Startup grad/error   SOSCFStart      ....  0.003300
   Hessian update       SOSCFHessUp     .... L-BFGS
 Level Shifting         CNVShift        .... on
   Level shift para.    LevelShift      ....    0.2500
   Turn off err/grad.   ShiftErr        ....    0.0010
 Zerner damping         CNVZerner       .... off
 Static damping         CNVDamp         .... on
   Fraction old density DampFac         ....    0.7000
   Max. Damping (<1)    DampMax         ....    0.9800
   Min. Damping (>=0)   DampMin         ....    0.0000
   Turn off err/grad.   DampErr         ....    0.1000

SCF Procedure:
 Maximum # iterations   MaxIter         ....   125
 SCF integral mode      SCFMode         .... Direct
   Integral package                     .... SHARK and LIBINT hybrid scheme
 Reset frequency        DirectResetFreq ....    20
 Integral Threshold     Thresh          ....  1.000e-10 Eh
 Primitive CutOff       TCut            ....  1.000e-11 Eh

Convergence Tolerance:
 Convergence Check Mode ConvCheckMode   .... Total+1el-Energy
 Convergence forced     ConvForced      .... 0
 Energy Change          TolE            ....  1.000e-06 Eh
 1-El. energy change                    ....  1.000e-03 Eh
 Orbital Gradient       TolG            ....  5.000e-05
 Orbital Rotation angle TolX            ....  5.000e-05
 DIIS Error             TolErr          ....  1.000e-05

------------------------------
INITIAL GUESS: MODEL POTENTIAL
------------------------------
Loading Hartree-Fock densities                     ... done
Calculating cut-offs                               ... done
Initializing the effective Hamiltonian             ... done
Setting up the integral package (SHARK)            ... done
Starting the Coulomb interaction                   ... done (   0.2 sec)
Making the grid                                    ... done (   0.2 sec)
Mapping shells                                     ... done
Starting the XC term evaluation                    ... done (   0.2 sec)
  promolecular density results
     # of electrons  =     92.002910425
     EX              =    -84.580244369
     EC              =     -3.207074451
     EX+EC           =    -87.787318820
Transforming the Hamiltonian                       ... done (   0.0 sec)
Diagonalizing the Hamiltonian                      ... done (   0.0 sec)
Back transforming the eigenvectors                 ... done (   0.0 sec)
Now organizing SCF variables                       ... done
                      ------------------
                      INITIAL GUESS DONE (   0.6 sec)
                      ------------------
             **** ENERGY FILE WAS UPDATED (data/single_point_PO_M06-2x/143061/143061.en.tmp) ****
Finished Guess after   0.7 sec
Maximum memory used throughout the entire GUESS-calculation: 28.1 MB


           ************************************************************
           *        Program running with 6 parallel MPI-processes     *
           *              working on a common directory               *
           ************************************************************

-------------------------------------------------------------------------------------------
                                      ORCA LEAN-SCF
                              memory conserving SCF solver
-------------------------------------------------------------------------------------------

----------------------------------------D-I-I-S--------------------------------------------
Iteration    Energy (Eh)           Delta-E    RMSDP     MaxDP     DIISErr   Damp  Time(sec)
-------------------------------------------------------------------------------------------
               ***  Starting incremental Fock matrix formation  ***
    1    -816.3478863663611946     0.00e+00  1.71e-03  1.01e-01  3.57e-01  0.700   5.7
    2    -816.4918482389711016    -1.44e-01  1.48e-03  1.03e-01  1.53e-01  0.700   3.5
                               ***Turning on AO-DIIS***
    3    -816.5531867978294258    -6.13e-02  6.92e-04  3.73e-02  4.59e-02  0.700   3.4
    4    -816.5906530559155954    -3.75e-02  1.30e-03  4.33e-02  3.18e-02  0.000   3.2
    5    -816.6729308586578782    -8.23e-02  1.94e-04  1.45e-02  5.32e-03  0.000   3.5
                              *** Initializing SOSCF ***
---------------------------------------S-O-S-C-F--------------------------------------
Iteration    Energy (Eh)           Delta-E    RMSDP     MaxDP     MaxGrad    Time(sec)
--------------------------------------------------------------------------------------
    6    -816.6731581997413514    -2.27e-04  6.97e-05  4.73e-03  5.68e-04     3.0
               *** Restarting incremental Fock matrix formation ***
    7    -816.6731756439331775    -1.74e-05  4.06e-05  2.95e-03  2.49e-04     5.5
    8    -816.6731784844890853    -2.84e-06  1.73e-05  1.01e-03  1.70e-04     4.1
    9    -816.6731795059234855    -1.02e-06  6.94e-06  3.46e-04  7.24e-05     3.8
   10    -816.6731796651146169    -1.59e-07  3.90e-06  2.75e-04  3.05e-05     3.6
                 **** Energy Check signals convergence ****

               *****************************************************
               *                     SUCCESS                       *
               *           SCF CONVERGED AFTER  10 CYCLES          *
               *****************************************************

Recomputing exchange energy using gridx3       ... done (    7.463 sec)
Old exchange energy                            :    -46.521345793 Eh
New exchange energy                            :    -46.521374916 Eh
Exchange energy change after final integration :     -0.000029123 Eh
Total energy after final integration           :   -816.673208789 Eh
             **** ENERGY FILE WAS UPDATED (data/single_point_PO_M06-2x/143061/143061.en.tmp) ****

----------------
TOTAL SCF ENERGY
----------------

Total Energy       :       -816.67320878852638 Eh          -22222.80780 eV

Components:
Nuclear Repulsion  :        828.17748726845059 Eh           22535.85513 eV
Electronic Energy  :      -1644.85066693356521 Eh          -44758.66213 eV
One Electron Energy:      -2762.24762079742868 Eh          -75164.57906 eV
Two Electron Energy:       1117.39695386386347 Eh           30405.91692 eV

Virial components:
Potential Energy   :      -1629.81559543810044 Eh          -44349.53704 eV
Kinetic Energy     :        813.14238664957406 Eh           22126.72924 eV
Virial Ratio       :          2.00434219418016

DFT components:
N(Alpha)           :       46.000164346017 electrons
N(Beta)            :       46.000164346017 electrons
N(Total)           :       92.000328692035 electrons
E(XC)              :      -43.049492076693 Eh       

---------------
SCF CONVERGENCE
---------------

  Last Energy change         ...    1.5919e-07  Tolerance :   1.0000e-06
  Last MAX-Density change    ...    2.7509e-04  Tolerance :   1.0000e-05
  Last RMS-Density change    ...    3.8954e-06  Tolerance :   1.0000e-06
  Last DIIS Error            ...    5.6811e-04  Tolerance :   1.0000e-05
  Last Orbital Gradient      ...    3.0475e-05  Tolerance :   5.0000e-05
  Last Orbital Rotation      ...    4.3142e-05  Tolerance :   5.0000e-05


----------------
ORBITAL ENERGIES
----------------

  NO   OCC          E(Eh)            E(eV) 
   0   2.0000     -78.089612     -2124.9264 
   1   2.0000     -19.576148      -532.6941 
   2   2.0000     -14.765260      -401.7832 
   3   2.0000     -14.765242      -401.7827 
   4   2.0000     -14.765225      -401.7822 
   5   2.0000     -10.609830      -288.7081 
   6   2.0000     -10.609819      -288.7079 
   7   2.0000     -10.609769      -288.7065 
   8   2.0000     -10.585553      -288.0476 
   9   2.0000     -10.585545      -288.0473 
  10   2.0000     -10.585476      -288.0454 
  11   2.0000      -6.897413      -187.6881 
  12   2.0000      -5.014311      -136.4463 
  13   2.0000      -5.014309      -136.4463 
  14   2.0000      -5.012493      -136.3969 
  15   2.0000      -1.115367       -30.3507 
  16   2.0000      -1.064888       -28.9771 
  17   2.0000      -1.015632       -27.6368 
  18   2.0000      -1.015586       -27.6355 
  19   2.0000      -0.863724       -23.5031 
  20   2.0000      -0.810519       -22.0554 
  21   2.0000      -0.810486       -22.0544 
  22   2.0000      -0.738679       -20.1005 
  23   2.0000      -0.738596       -20.0982 
  24   2.0000      -0.681950       -18.5568 
  25   2.0000      -0.644114       -17.5272 
  26   2.0000      -0.572219       -15.5709 
  27   2.0000      -0.571139       -15.5415 
  28   2.0000      -0.571117       -15.5409 
  29   2.0000      -0.566207       -15.4073 
  30   2.0000      -0.524719       -14.2783 
  31   2.0000      -0.524630       -14.2759 
  32   2.0000      -0.479363       -13.0441 
  33   2.0000      -0.467599       -12.7240 
  34   2.0000      -0.467535       -12.7223 
  35   2.0000      -0.458651       -12.4805 
  36   2.0000      -0.447716       -12.1830 
  37   2.0000      -0.447618       -12.1803 
  38   2.0000      -0.447247       -12.1702 
  39   2.0000      -0.437235       -11.8978 
  40   2.0000      -0.437159       -11.8957 
  41   2.0000      -0.367411        -9.9978 
  42   2.0000      -0.363431        -9.8894 
  43   2.0000      -0.363409        -9.8889 
  44   2.0000      -0.275453        -7.4955 
  45   2.0000      -0.275415        -7.4944 
  46   0.0000       0.044872         1.2210 
  47   0.0000       0.064847         1.7646 
  48   0.0000       0.081363         2.2140 
  49   0.0000       0.082430         2.2430 
  50   0.0000       0.082457         2.2438 
  51   0.0000       0.088797         2.4163 
  52   0.0000       0.088831         2.4172 
  53   0.0000       0.116014         3.1569 
  54   0.0000       0.116020         3.1571 
  55   0.0000       0.131969         3.5911 
  56   0.0000       0.137268         3.7352 
*Only the first 10 virtual orbitals were printed.

                    ********************************
                    * MULLIKEN POPULATION ANALYSIS *
                    ********************************

-----------------------
MULLIKEN ATOMIC CHARGES
-----------------------
   0 C :   -0.252423
   1 N :   -0.128138
   2 C :   -0.251862
   3 N :   -0.128282
   4 C :   -0.251541
   5 N :   -0.128192
   6 C :   -0.375416
   7 P :    0.671732
   8 O :   -0.584297
   9 C :   -0.376869
  10 C :   -0.375665
  11 H :    0.185087
  12 H :    0.178334
  13 H :    0.178338
  14 H :    0.185059
  15 H :    0.185082
  16 H :    0.178067
  17 H :    0.182113
  18 H :    0.181251
  19 H :    0.181876
  20 H :    0.181936
  21 H :    0.182128
  22 H :    0.181681
Sum of atomic charges:   -0.0000000

--------------------------------
MULLIKEN REDUCED ORBITAL CHARGES
--------------------------------
  0 C s       :     3.296503  s :     3.296503
      pz      :     0.841598  p :     2.810092
      px      :     0.885684
      py      :     1.082811
      dz2     :     0.022336  d :     0.136587
      dxz     :     0.044072
      dyz     :     0.025666
      dx2y2   :     0.022678
      dxy     :     0.021835
      f0      :     0.002488  f :     0.009241
      f+1     :     0.001237
      f-1     :     0.001032
      f+2     :     0.000875
      f-2     :     0.001657
      f+3     :     0.001102
      f-3     :     0.000850

  1 N s       :     3.481446  s :     3.481446
      pz      :     0.999166  p :     3.571644
      px      :     1.475664
      py      :     1.096813
      dz2     :     0.014290  d :     0.071356
      dxz     :     0.016194
      dyz     :     0.016136
      dx2y2   :     0.013521
      dxy     :     0.011216
      f0      :     0.000400  f :     0.003691
      f+1     :     0.000553
      f-1     :     0.000698
      f+2     :     0.000487
      f-2     :     0.000485
      f+3     :     0.000583
      f-3     :     0.000486

  2 C s       :     3.296137  s :     3.296137
      pz      :     1.120669  p :     2.809933
      px      :     0.865986
      py      :     0.823278
      dz2     :     0.019228  d :     0.136550
      dxz     :     0.021052
      dyz     :     0.019812
      dx2y2   :     0.034407
      dxy     :     0.042051
      f0      :     0.000912  f :     0.009243
      f+1     :     0.000558
      f-1     :     0.001032
      f+2     :     0.000821
      f-2     :     0.001476
      f+3     :     0.003093
      f-3     :     0.001351

  3 N s       :     3.480589  s :     3.480589
      pz      :     1.046269  p :     3.572642
      px      :     1.020321
      py      :     1.506052
      dz2     :     0.016827  d :     0.071356
      dxz     :     0.016891
      dyz     :     0.011376
      dx2y2   :     0.009653
      dxy     :     0.016609
      f0      :     0.000679  f :     0.003694
      f+1     :     0.000502
      f-1     :     0.000453
      f+2     :     0.000486
      f-2     :     0.000505
      f+3     :     0.000512
      f-3     :     0.000557

  4 C s       :     3.295787  s :     3.295787
      pz      :     0.834615  p :     2.809946
      px      :     1.131224
      py      :     0.844107
      dz2     :     0.032616  d :     0.136559
      dxz     :     0.021908
      dyz     :     0.043651
      dx2y2   :     0.014062
      dxy     :     0.024323
      f0      :     0.001241  f :     0.009249
      f+1     :     0.000987
      f-1     :     0.002941
      f+2     :     0.001051
      f-2     :     0.001231
      f+3     :     0.000731
      f-3     :     0.001068

  5 N s       :     3.480767  s :     3.480767
      pz      :     1.536147  p :     3.572397
      px      :     1.025146
      py      :     1.011104
      dz2     :     0.009323  d :     0.071336
      dxz     :     0.013000
      dyz     :     0.014925
      dx2y2   :     0.015972
      dxy     :     0.018116
      f0      :     0.000574  f :     0.003692
      f+1     :     0.000534
      f-1     :     0.000544
      f+2     :     0.000440
      f-2     :     0.000441
      f+3     :     0.000782
      f-3     :     0.000377

  6 C s       :     3.283667  s :     3.283667
      pz      :     0.972918  p :     2.994867
      px      :     0.947450
      py      :     1.074499
      dz2     :     0.025994  d :     0.091299
      dxz     :     0.014374
      dyz     :     0.016570
      dx2y2   :     0.018525
      dxy     :     0.015836
      f0      :     0.000527  f :     0.005583
      f+1     :     0.001314
      f-1     :     0.000679
      f+2     :     0.000593
      f-2     :     0.000780
      f+3     :     0.000750
      f-3     :     0.000939

  7 P s       :     5.295807  s :     5.295807
      pz      :     2.780917  p :     8.329038
      px      :     2.752803
      py      :     2.795318
      dz2     :     0.187285  d :     0.642937
      dxz     :     0.088079
      dyz     :     0.087338
      dx2y2   :     0.165669
      dxy     :     0.114566
      f0      :     0.006728  f :     0.060487
      f+1     :     0.011211
      f-1     :     0.008588
      f+2     :     0.010298
      f-2     :     0.005786
      f+3     :     0.010069
      f-3     :     0.007807

  8 O s       :     3.872212  s :     3.872212
      pz      :     1.567633  p :     4.685852
      px      :     1.533063
      py      :     1.585156
      dz2     :     0.004846  d :     0.024985
      dxz     :     0.005617
      dyz     :     0.004231
      dx2y2   :     0.005170
      dxy     :     0.005121
      f0      :     0.000118  f :     0.001247
      f+1     :     0.000206
      f-1     :     0.000121
      f+2     :     0.000197
      f-2     :     0.000288
      f+3     :     0.000158
      f-3     :     0.000159

  9 C s       :     3.284466  s :     3.284466
      pz      :     1.046072  p :     2.995525
      px      :     0.950702
      py      :     0.998751
      dz2     :     0.018191  d :     0.091297
      dxz     :     0.017276
      dyz     :     0.013198
      dx2y2   :     0.030647
      dxy     :     0.011985
      f0      :     0.000522  f :     0.005581
      f+1     :     0.000789
      f-1     :     0.000627
      f+2     :     0.001396
      f-2     :     0.000655
      f+3     :     0.000558
      f-3     :     0.001035

 10 C s       :     3.284150  s :     3.284150
      pz      :     0.992403  p :     2.994587
      px      :     1.005934
      py      :     0.996250
      dz2     :     0.027291  d :     0.091340
      dxz     :     0.013167
      dyz     :     0.011044
      dx2y2   :     0.015643
      dxy     :     0.024196
      f0      :     0.000702  f :     0.005588
      f+1     :     0.001321
      f-1     :     0.000396
      f+2     :     0.000937
      f-2     :     0.000858
      f+3     :     0.000654
      f-3     :     0.000720

 11 H s       :     0.796346  s :     0.796346
      pz      :     0.004695  p :     0.018567
      px      :     0.002823
      py      :     0.011049

 12 H s       :     0.802850  s :     0.802850
      pz      :     0.006494  p :     0.018816
      px      :     0.007269
      py      :     0.005052

 13 H s       :     0.802835  s :     0.802835
      pz      :     0.005705  p :     0.018827
      px      :     0.007881
      py      :     0.005240

 14 H s       :     0.796369  s :     0.796369
      pz      :     0.011448  p :     0.018572
      px      :     0.004487
      py      :     0.002637

 15 H s       :     0.796369  s :     0.796369
      pz      :     0.002640  p :     0.018548
      px      :     0.010118
      py      :     0.005790

 16 H s       :     0.803112  s :     0.803112
      pz      :     0.006031  p :     0.018822
      px      :     0.006933
      py      :     0.005858

 17 H s       :     0.798510  s :     0.798510
      pz      :     0.003880  p :     0.019377
      px      :     0.010335
      py      :     0.005162

 18 H s       :     0.799348  s :     0.799348
      pz      :     0.005696  p :     0.019401
      px      :     0.003461
      py      :     0.010244

 19 H s       :     0.798738  s :     0.798738
      pz      :     0.010729  p :     0.019386
      px      :     0.005157
      py      :     0.003499

 20 H s       :     0.798684  s :     0.798684
      pz      :     0.004225  p :     0.019380
      px      :     0.003750
      py      :     0.011404

 21 H s       :     0.798483  s :     0.798483
      pz      :     0.011488  p :     0.019389
      px      :     0.004031
      py      :     0.003870

 22 H s       :     0.798938  s :     0.798938
      pz      :     0.003213  p :     0.019381
      px      :     0.009501
      py      :     0.006667



                     *******************************
                     * LOEWDIN POPULATION ANALYSIS *
                     *******************************

----------------------
LOEWDIN ATOMIC CHARGES
----------------------
   0 C :   -0.309745
   1 N :    0.059473
   2 C :   -0.309634
   3 N :    0.059568
   4 C :   -0.309564
   5 N :    0.059493
   6 C :   -0.385286
   7 P :    0.560175
   8 O :   -0.323239
   9 C :   -0.385079
  10 C :   -0.385157
  11 H :    0.138152
  12 H :    0.139987
  13 H :    0.139974
  14 H :    0.138123
  15 H :    0.138129
  16 H :    0.139986
  17 H :    0.139122
  18 H :    0.139114
  19 H :    0.139121
  20 H :    0.139109
  21 H :    0.139069
  22 H :    0.139108

-------------------------------
LOEWDIN REDUCED ORBITAL CHARGES
-------------------------------
  0 C s       :     2.798007  s :     2.798007
      pz      :     0.928883  p :     2.901360
      px      :     0.944984
      py      :     1.027492
      dz2     :     0.091490  d :     0.544195
      dxz     :     0.162472
      dyz     :     0.101070
      dx2y2   :     0.094786
      dxy     :     0.094377
      f0      :     0.015632  f :     0.066183
      f+1     :     0.010347
      f-1     :     0.007716
      f+2     :     0.006554
      f-2     :     0.010578
      f+3     :     0.008525
      f-3     :     0.006831

  1 N s       :     2.974665  s :     2.974665
      pz      :     1.117023  p :     3.675663
      px      :     1.384625
      py      :     1.174016
      dz2     :     0.063704  d :     0.270591
      dxz     :     0.051508
      dyz     :     0.071212
      dx2y2   :     0.045076
      dxy     :     0.039091
      f0      :     0.002338  f :     0.019609
      f+1     :     0.002744
      f-1     :     0.004460
      f+2     :     0.003289
      f-2     :     0.002672
      f+3     :     0.002168
      f-3     :     0.001938

  2 C s       :     2.797995  s :     2.797995
      pz      :     1.043040  p :     2.901268
      px      :     0.939463
      py      :     0.918765
      dz2     :     0.084327  d :     0.544176
      dxz     :     0.089311
      dyz     :     0.084140
      dx2y2   :     0.126070
      dxy     :     0.160327
      f0      :     0.006263  f :     0.066195
      f+1     :     0.004055
      f-1     :     0.008089
      f+2     :     0.007522
      f-2     :     0.010383
      f+3     :     0.018274
      f-3     :     0.011609

  3 N s       :     2.974291  s :     2.974291
      pz      :     1.144901  p :     3.675782
      px      :     1.128195
      py      :     1.402686
      dz2     :     0.068233  d :     0.270745
      dxz     :     0.075532
      dyz     :     0.035805
      dx2y2   :     0.038203
      dxy     :     0.052971
      f0      :     0.003905  f :     0.019614
      f+1     :     0.003169
      f-1     :     0.002390
      f+2     :     0.002357
      f-2     :     0.003231
      f+3     :     0.002573
      f-3     :     0.001988

  4 C s       :     2.798007  s :     2.798007
      pz      :     0.923824  p :     2.901168
      px      :     1.046945
      py      :     0.930398
      dz2     :     0.129738  d :     0.544178
      dxz     :     0.094376
      dyz     :     0.155690
      dx2y2   :     0.056541
      dxy     :     0.107833
      f0      :     0.010318  f :     0.066211
      f+1     :     0.007823
      f-1     :     0.017595
      f+2     :     0.009419
      f-2     :     0.008439
      f+3     :     0.005244
      f-3     :     0.007374

  5 N s       :     2.974485  s :     2.974485
      pz      :     1.419482  p :     3.675778
      px      :     1.132593
      py      :     1.123703
      dz2     :     0.034196  d :     0.270637
      dxz     :     0.039066
      dyz     :     0.045211
      dx2y2   :     0.071787
      dxy     :     0.080378
      f0      :     0.001300  f :     0.019608
      f+1     :     0.001941
      f-1     :     0.002392
      f+2     :     0.003010
      f-2     :     0.003254
      f+3     :     0.005153
      f-3     :     0.002558

  6 C s       :     2.855358  s :     2.855358
      pz      :     1.080035  p :     3.097269
      px      :     0.978377
      py      :     1.038857
      dz2     :     0.111839  d :     0.392518
      dxz     :     0.060589
      dyz     :     0.074549
      dx2y2   :     0.072473
      dxy     :     0.073068
      f0      :     0.003871  f :     0.040141
      f+1     :     0.008246
      f-1     :     0.003868
      f+2     :     0.005947
      f-2     :     0.006395
      f+3     :     0.005024
      f-3     :     0.006791

  7 P s       :     4.692071  s :     4.692071
      pz      :     2.788590  p :     8.359891
      px      :     2.776062
      py      :     2.795239
      dz2     :     0.315620  d :     1.180943
      dxz     :     0.186036
      dyz     :     0.174304
      dx2y2   :     0.280170
      dxy     :     0.224813
      f0      :     0.025189  f :     0.206921
      f+1     :     0.035037
      f-1     :     0.027373
      f+2     :     0.032197
      f-2     :     0.027545
      f+3     :     0.030878
      f-3     :     0.028701

  8 O s       :     3.555237  s :     3.555237
      pz      :     1.575770  p :     4.722990
      px      :     1.567441
      py      :     1.579779
      dz2     :     0.005775  d :     0.042883
      dxz     :     0.012164
      dyz     :     0.008046
      dx2y2   :     0.006359
      dxy     :     0.010538
      f0      :     0.000253  f :     0.002129
      f+1     :     0.000266
      f-1     :     0.000187
      f+2     :     0.000259
      f-2     :     0.000645
      f+3     :     0.000239
      f-3     :     0.000280

  9 C s       :     2.855446  s :     2.855446
      pz      :     1.023405  p :     3.097209
      px      :     1.061380
      py      :     1.012425
      dz2     :     0.079000  d :     0.392311
      dxz     :     0.079714
      dyz     :     0.056321
      dx2y2   :     0.118930
      dxy     :     0.058346
      f0      :     0.003864  f :     0.040112
      f+1     :     0.006203
      f-1     :     0.004265
      f+2     :     0.008728
      f-2     :     0.005955
      f+3     :     0.004042
      f-3     :     0.007054

 10 C s       :     2.855423  s :     2.855423
      pz      :     1.002371  p :     3.097137
      px      :     1.009875
      py      :     1.084891
      dz2     :     0.109186  d :     0.392460
      dxz     :     0.061359
      dyz     :     0.046029
      dx2y2   :     0.069588
      dxy     :     0.106299
      f0      :     0.004298  f :     0.040137
      f+1     :     0.008828
      f-1     :     0.003807
      f+2     :     0.007148
      f-2     :     0.006825
      f+3     :     0.003954
      f-3     :     0.005276

 11 H s       :     0.806863  s :     0.806863
      pz      :     0.013721  p :     0.054985
      px      :     0.009792
      py      :     0.031472

 12 H s       :     0.805179  s :     0.805179
      pz      :     0.017877  p :     0.054834
      px      :     0.020371
      py      :     0.016586

 13 H s       :     0.805188  s :     0.805188
      pz      :     0.018432  p :     0.054838
      px      :     0.021328
      py      :     0.015078

 14 H s       :     0.806892  s :     0.806892
      pz      :     0.032745  p :     0.054986
      px      :     0.013338
      py      :     0.008903

 15 H s       :     0.806883  s :     0.806883
      pz      :     0.008937  p :     0.054989
      px      :     0.029649
      py      :     0.016403

 16 H s       :     0.805186  s :     0.805186
      pz      :     0.016988  p :     0.054828
      px      :     0.021496
      py      :     0.016344

 17 H s       :     0.801987  s :     0.801987
      pz      :     0.012762  p :     0.058891
      px      :     0.028846
      py      :     0.017283

 18 H s       :     0.802009  s :     0.802009
      pz      :     0.017860  p :     0.058876
      px      :     0.011223
      py      :     0.029793

 19 H s       :     0.802000  s :     0.802000
      pz      :     0.030753  p :     0.058879
      px      :     0.016433
      py      :     0.011693

 20 H s       :     0.802000  s :     0.802000
      pz      :     0.014532  p :     0.058891
      px      :     0.012242
      py      :     0.032117

 21 H s       :     0.802034  s :     0.802034
      pz      :     0.032302  p :     0.058898
      px      :     0.013819
      py      :     0.012777

 22 H s       :     0.802026  s :     0.802026
      pz      :     0.010993  p :     0.058866
      px      :     0.027215
      py      :     0.020658



                      *****************************
                      * MAYER POPULATION ANALYSIS *
                      *****************************

  NA   - Mulliken gross atomic population
  ZA   - Total nuclear charge
  QA   - Mulliken gross atomic charge
  VA   - Mayer's total valence
  BVA  - Mayer's bonded valence
  FA   - Mayer's free valence

  ATOM       NA         ZA         QA         VA         BVA        FA
  0 C      6.2524     6.0000    -0.2524     3.9914     3.9914    -0.0000
  1 N      7.1281     7.0000    -0.1281     2.6472     2.6472    -0.0000
  2 C      6.2519     6.0000    -0.2519     3.9902     3.9902     0.0000
  3 N      7.1283     7.0000    -0.1283     2.6481     2.6481     0.0000
  4 C      6.2515     6.0000    -0.2515     3.9912     3.9912     0.0000
  5 N      7.1282     7.0000    -0.1282     2.6480     2.6480     0.0000
  6 C      6.3754     6.0000    -0.3754     3.7458     3.7458    -0.0000
  7 P     14.3283    15.0000     0.6717     4.7740     4.7740    -0.0000
  8 O      8.5843     8.0000    -0.5843     2.0005     2.0005     0.0000
  9 C      6.3769     6.0000    -0.3769     3.7444     3.7444    -0.0000
 10 C      6.3757     6.0000    -0.3757     3.7454     3.7454    -0.0000
 11 H      0.8149     1.0000     0.1851     0.9542     0.9542    -0.0000
 12 H      0.8217     1.0000     0.1783     0.9579     0.9579    -0.0000
 13 H      0.8217     1.0000     0.1783     0.9579     0.9579     0.0000
 14 H      0.8149     1.0000     0.1851     0.9544     0.9544     0.0000
 15 H      0.8149     1.0000     0.1851     0.9544     0.9544    -0.0000
 16 H      0.8219     1.0000     0.1781     0.9580     0.9580    -0.0000
 17 H      0.8179     1.0000     0.1821     0.9588     0.9588    -0.0000
 18 H      0.8187     1.0000     0.1813     0.9594     0.9594    -0.0000
 19 H      0.8181     1.0000     0.1819     0.9591     0.9591    -0.0000
 20 H      0.8181     1.0000     0.1819     0.9590     0.9590    -0.0000
 21 H      0.8179     1.0000     0.1821     0.9588     0.9588    -0.0000
 22 H      0.8183     1.0000     0.1817     0.9590     0.9590    -0.0000

  Mayer bond orders larger than 0.100000
B(  0-C ,  1-N ) :   0.9351 B(  0-C ,  5-N ) :   0.9351 B(  0-C , 11-H ) :   0.9886 
B(  0-C , 12-H ) :   0.9822 B(  1-N ,  2-C ) :   0.9350 B(  1-N ,  9-C ) :   0.9038 
B(  2-C ,  3-N ) :   0.9346 B(  2-C , 13-H ) :   0.9823 B(  2-C , 14-H ) :   0.9888 
B(  3-N ,  4-C ) :   0.9356 B(  3-N , 10-C ) :   0.9045 B(  4-C ,  5-N ) :   0.9349 
B(  4-C , 15-H ) :   0.9887 B(  4-C , 16-H ) :   0.9822 B(  5-N ,  6-C ) :   0.9048 
B(  6-C ,  7-P ) :   0.9120 B(  6-C , 17-H ) :   0.9444 B(  6-C , 18-H ) :   0.9446 
B(  7-P ,  8-O ) :   1.9882 B(  7-P ,  9-C ) :   0.9118 B(  7-P , 10-C ) :   0.9119 
B(  9-C , 19-H ) :   0.9447 B(  9-C , 20-H ) :   0.9446 B( 10-C , 21-H ) :   0.9446 
B( 10-C , 22-H ) :   0.9446 

-------
TIMINGS
-------

Total SCF time: 0 days 0 hours 0 min 47 sec 

Total time                  ....      47.260 sec
Sum of individual times     ....      47.248 sec  (100.0%)

SCF preparation             ....       0.173 sec  (  0.4%)
Fock matrix formation       ....      45.976 sec  ( 97.3%)
  Startup                   ....       0.041 sec  (  0.1% of F)
  Split-RI-J                ....       2.839 sec  (  6.2% of F)
  Chain of spheres X        ....      30.218 sec  ( 65.7% of F)
  XC integration            ....      12.732 sec  ( 27.7% of F)
    Basis function eval.    ....       1.769 sec  ( 13.9% of XC)
    Density eval.           ....       4.979 sec  ( 39.1% of XC)
    XC-Functional eval.     ....       0.282 sec  (  2.2% of XC)
    XC-Potential eval.      ....       5.056 sec  ( 39.7% of XC)
Diagonalization             ....       0.000 sec  (  0.0%)
Density matrix formation    ....       0.107 sec  (  0.2%)
Total Energy calculation    ....       0.044 sec  (  0.1%)
Population analysis         ....       0.072 sec  (  0.2%)
Orbital Transformation      ....       0.117 sec  (  0.2%)
Orbital Orthonormalization  ....       0.000 sec  (  0.0%)
DIIS solution               ....       0.527 sec  (  1.1%)
SOSCF solution              ....       0.232 sec  (  0.5%)
Finished LeanSCF after  47.3 sec

Maximum memory used throughout the entire LEANSCF-calculation: 50.4 MB


-------------------------------------------------------------------------------
                          DFT DISPERSION CORRECTION                            
                                                                               
                              DFTD3 V3.1  Rev 1                                
                              USING zero damping                               
-------------------------------------------------------------------------------
The M062X functional is recognized
Active option DFTDOPT                   ...         3   

molecular C6(AA) [au] = 5482.450890 


            DFT-D V3
 parameters
 s6 scaling factor         :     1.0000 
 rs6 scaling factor        :     1.6190 
 s8 scaling factor         :     0.0000 
 rs8 scaling factor        :     1.0000 
 Damping factor alpha6     :    14.0000 
 Damping factor alpha8     :    16.0000 
 ad hoc parameters k1-k3   :    16.0000     1.3333    -4.0000 

 Edisp/kcal,au: -0.479500762789  -0.000764133023 
 E6   /kcal   :  -0.479500763 
 E8   /kcal   :  -0.000000000 
 % E8         :   0.000000000 

-------------------------   ----------------
Dispersion correction           -0.000764133
-------------------------   ----------------


-------------------------   --------------------
FINAL SINGLE POINT ENERGY      -816.673972921550
-------------------------   --------------------



           ************************************************************
           *        Program running with 6 parallel MPI-processes     *
           *              working on a common directory               *
           ************************************************************

------------------------------------------------------------------------------
                              ORCA PROPERTY CALCULATIONS
------------------------------------------------------------------------------

GBWName                                 ... data/single_point_PO_M06-2x/143061/143061.gbw
Number of atoms                         ...     23
Number of basis functions               ...    419
Max core memory                         ...   1024 MB

Electric properties:
Dipole moment                           ... YES
Quadrupole moment                       ...  NO
Static polarizability (Dipole/Dipole)   ...  NO
Static polarizability (Dipole/Quad.)    ...  NO
Static polarizability (Quad./Quad.)     ...  NO
Static polarizability (Velocity)        ...  NO

Atomic electric properties:
Dipole moment                           ...  NO
Quadrupole moment                       ...  NO
Static polarizability                   ...  NO

Choice of electric origin               ... Center of mass
Position of electric origin             ...    -0.467874    -0.352221     0.395879

General magnetic properties:
Magnetizability                         ...  NO

EPR properties:
g-Tensor (aka g-matrix)                 ...  NO
Zero-Field splitting spin-orbit         ...  NO
Zero-field splitting spin-spin          ...  NO
Hyperfine couplings                     ...  NO (   0 nuclei)
Quadrupole couplings                    ...  NO (   0 nuclei)
Contact density                         ...  NO (   0 nuclei)

NMR properties:
Chemical shifts                         ...  NO (   0 nuclei)
Spin-rotation constants                 ...  NO (   0 nuclei)
Spin-spin couplings                     ...  NO (   0 nuclei,    0 pairs)

Choice of magnetic origin               ... GIAO
Position of magnetic origin             ...     0.000000     0.000000     0.000000

Properties with geometric perturbations:
SCF Hessian                             ...  NO
IR spectrum                             ...  NO
VCD spectrum                            ...  NO
X-ray spectroscopy properties:
SCF XES/XAS/RIXS spectra                ...  NO


-------------
DIPOLE MOMENT
-------------

Method             : SCF
Type of density    : Electron Density
Multiplicity       :   1
Irrep              :   0
Energy             :  -816.6732087885263809 Eh
Relativity type    : 
Basis              : AO
                                X                 Y                 Z
Electronic contribution:     -3.901638449      -2.935879422       3.301425971
Nuclear contribution   :      4.878636099       3.672918486      -4.127640988
                        -----------------------------------------
Total Dipole Moment    :      0.976997649       0.737039064      -0.826215017
                        -----------------------------------------
Magnitude (a.u.)       :      1.476611744
Magnitude (Debye)      :      3.753248779



--------------------
Rotational spectrum 
--------------------
 
Rotational constants in cm-1:             0.054561             0.033968             0.033967 
Rotational constants in MHz :          1635.696829          1018.348078          1018.294992 

Dipole components along the rotational axes: 
x,y,z [a.u.] :    -1.476610    -0.000256     0.002117 
x,y,z [Debye]:    -3.753245    -0.000651     0.005381 

 

Dipole moment calculation done in   0.0 sec 

Maximum memory used throughout the entire PROP-calculation: 25.3 MB

--------------------------------
SUGGESTED CITATIONS FOR THIS RUN
--------------------------------

Below you find a list of papers that are relevant to this ORCA run
We neither can nor want to force you to cite these papers, but we appreciate if you do
You receive ORCA, which is the product of decades of hard work by many enthusiastic individuals, for free
The only thing we kindly ask in return is that you cite our papers,
We deeply appreciate it, if you show your appreciation for ORCA by not just citing the generic ORCA reference.

Please note that relegating all ORCA citations to the supporting information does *not* help us.
SI sections are not indexed - citations you put there will not count into any citation statistics
But we need these citations in order to attract the funding resources that allow us to do what we are doing

Therefore, if you are a happy ORCA user, please consider citing a few of the papers listed below in the main body of your paper

In addition to the list printed below, the program has created the file data/single_point_PO_M06-2x/143061/143061.bibtex that contains the list in bibtex format
You can import this file easily into all common literature databanks and citation aid programs


List of essential papers. We consider these as the minimum necessary citations

  1. Neese,F.
     Software update: the ORCA program system, version 5.0
     WIRES Comput. Molec. Sci., 2022 12(1)e1606
     doi.org/10.1002/wcms.1606

List of papers to cite with high priority. The work reported in these papers was absolutely
necessary for this run to complete.
Our perspective: the developers of density functionals and basis sets usually get cited in chemistry papers
Good! But without the algorithms to do something with them, the functionals or basis sets would not do anything.
Hence, in our opinion, the algorithm design and method developments papers are equally worthy of getting cited

  1. Neese,F.
     An improvement of the resolution of the identity approximation for the formation of the Coulomb matrix
     J. Comp. Chem., 2003 24(14)1740-1747
     doi.org/10.1002/jcc.10318
  2. Neese,F.; Wennmohs,F.; Hansen,A.; Becker,U.
     Efficient, approximate and parallel Hartree-Fock and hybrid DFT calculations. A 'chain-of-spheres' algorithm for the Hartree-Fock exchange
     Chem. Phys., 2009 356(1-3)98-109
     doi.org/10.1016/j.chemphys.2008.10.036
  3. Helmich-Paris,B.; de Souza,B.; Neese,F.; Izsák,R.
     An improved chain of spheres for exchange algorithm
     J. Chem. Phys., 2021 155 104109
     doi.org/doi: 10.1063/5.0058766.
  4. Neese,F.
     The SHARK Integral Generation and Digestion System
     J. Comp. Chem., 2022  1-16
     doi.org/10.1002/jcc.26942
  5. Grimme,S.; Antony,J.; Ehrlich,S.; Krieg,H.
     A consistent and accurate ab initio parametrization of density functional dispersion correction (DFT-D) for the 94 elements H-Pu
     J. Chem. Phys., 2010 132 154104-XXXX
     doi.org/10.1063/1.3382344

List of suggested additional citations. These are papers that are important in the 'surrounding' of 
of this run, or papers that preceded the highly important papers. If you like your results we are grateful for a citation.

  1. Izsak,R.; Neese,F.
     An overlap fitted chain of spheres exchange method
     J. Chem. Phys., 2011 135 144105
     doi.org/10.1063/1.3646921
  2. Izsak,R.; Hansen,A.; Neese,F.
     The resolution of identity and chain of spheres approximations for the LPNO-CCSD singles Fock term
     Molec. Phys., 2012 110 2413-2417
     doi.org/10.1080/00268976.2012.687466
  3. Neese,F.
     The ORCA program system
     WIRES Comput. Molec. Sci., 2012 2(1)73-78
     doi.org/10.1002/wcms.81
  4. Izsak,R.; Neese,F.; Klopper,W.
     Robust fitting techniques in the chain of spheres approximation to the Fock exchange: The role of the complementary space
     J. Chem. Phys., 2013 139 
     doi.org/10.1063/1.4819264
  5. Neese,F.
     Software update: the ORCA program system, version 4.0
     WIRES Comput. Molec. Sci., 2018 8(1)1-6
     doi.org/10.1002/wcms.1327
  6. Neese,F.; Wennmohs,F.; Becker,U.; Riplinger,C.
     The ORCA quantum chemistry program package
     J. Chem. Phys., 2020 152 Art. No. L224108
     doi.org/10.1063/5.0004608

List of optional additional citations

  1. Neese,F.
     Approximate second-order SCF convergence for spin unrestricted wavefunctions
     Chem. Phys. Lett., 2000 325(1-3)93-98
     doi.org/10.1016/s0009-2614(00)00662-x

Timings for individual modules:

Sum of individual times          ...       50.379 sec (=   0.840 min)
Startup calculation              ...        1.969 sec (=   0.033 min)   3.9 %
SCF iterations                   ...       48.207 sec (=   0.803 min)  95.7 %
Property calculations            ...        0.203 sec (=   0.003 min)   0.4 %
                             ****ORCA TERMINATED NORMALLY****
TOTAL RUN TIME: 0 days 0 hours 0 minutes 50 seconds 607 msec
