
                                 *****************
                                 * O   R   C   A *
                                 *****************

                                            #,                                       
                                            ###                                      
                                            ####                                     
                                            #####                                    
                                            ######                                   
                                           ########,                                 
                                     ,,################,,,,,                         
                               ,,#################################,,                 
                          ,,##########################################,,             
                       ,#########################################, ''#####,          
                    ,#############################################,,   '####,        
                  ,##################################################,,,,####,       
                ,###########''''           ''''###############################       
              ,#####''   ,,,,##########,,,,          '''####'''          '####       
            ,##' ,,,,###########################,,,                        '##       
           ' ,,###''''                  '''############,,,                           
         ,,##''                                '''############,,,,        ,,,,,,###''
      ,#''                                            '''#######################'''  
     '                                                          ''''####''''         
             ,#######,   #######,   ,#######,      ##                                
            ,#'     '#,  ##    ##  ,#'     '#,    #''#        ,####,   ,####,        
            ##       ##  ##   ,#'  ##            #'  '#       #'       #'  '#        
            ##       ##  #######   ##           ,######,      #####,   #    #        
            '#,     ,#'  ##    ##  '#,     ,#' ,#      #,     #,   #   #,  ,#        
             '#######'   ##     ##  '#######'  #'      '#     '####' # '####'        



                #########################################################
                #                        -***-                          #
                #          Department of theory and spectroscopy        #
                #                                                       #
                #                      Frank Neese                      #
                #                                                       #
                #     Directorship, Architecture, Infrastructure        #
                #                    SHARK, DRIVERS                     #
                #        Core code/Algorithms in most modules           #
                #                                                       #
                #        Max Planck Institute fuer Kohlenforschung      #
                #                Kaiser Wilhelm Platz 1                 #
                #                 D-45470 Muelheim/Ruhr                 #
                #                      Germany                          #
                #                                                       #
                #                  All rights reserved                  #
                #                        -***-                          #
                #########################################################


                         Program Version 6.0.0  -   RELEASE   -


 With contributions from (in alphabetic order):
   Daniel Aravena         : Magnetic Suceptibility
   Michael Atanasov       : Ab Initio Ligand Field Theory (pilot matlab implementation)
   Alexander A. Auer      : GIAO ZORA, VPT2 properties, NMR spectrum
   Ute Becker             : All parallelization in ORCA, NUMFREQ, NUMCALC
   Giovanni Bistoni       : ED, misc. LED, open-shell LED, HFLD
   Martin Brehm           : Molecular dynamics
   Dmytro Bykov           : pre 5.0 version of the SCF Hessian
   Marcos Casanova-Páez   : Triplet and SCS-CIS(D). UHF-(DLPNO)-IP/EA/STEOM-CCSD. UHF-CVS-IP/STEOM-CCSD
   Vijay G. Chilkuri      : MRCI spin determinant printing, contributions to CSF-ICE
   Pauline Colinet        : FMM embedding
   Dipayan Datta          : RHF DLPNO-CCSD density
   Achintya Kumar Dutta   : EOM-CC, STEOM-CC
   Nicolas Foglia         : Exact transition moments, OPA infrastructure, MCD improvements
   Dmitry Ganyushin       : Spin-Orbit,Spin-Spin,Magnetic field MRCI
   Miquel Garcia          : C-PCM and meta-GGA Hessian, CCSD/C-PCM, Gaussian charge scheme
   Tiago L. C. Gouveia    : GS-ROHF, GS-ROCIS
   Yang Guo               : DLPNO-NEVPT2, F12-NEVPT2, CIM, IAO-localization
   Andreas Hansen         : Spin unrestricted coupled pair/coupled cluster methods
   Ingolf Harden          : AUTO-CI MPn and infrastructure 
   Benjamin Helmich-Paris : MC-RPA, TRAH-(SCF,CASSCF), AVAS, COSX integrals, SCF dyn. polar.
   Lee Huntington         : MR-EOM, pCC
   Robert Izsak           : Overlap fitted RIJCOSX, COSX-SCS-MP3, EOM
   Riya Kayal             : Wick's Theorem for AUTO-CI, AUTO-CI UHF-CCSDT
   Emily Kempfer          : AUTO-CI, RHF CISDT and CCSDT
   Christian Kollmar      : KDIIS, OOCD, Brueckner-CCSD(T), CCSD density, CASPT2, CASPT2-K, improved NEVPT2
   Axel Koslowski         : Symmetry handling
   Simone Kossmann        : Meta GGA functionals, TD-DFT gradient, OOMP2, (MP2 Hessian; deprecated post 5.0)
   Lucas Lang             : DCDCAS
   Marvin Lechner         : AUTO-CI (C++ implementation), FIC-MRCC
   Spencer Leger          : CASSCF response
   Dagmar Lenk            : GEPOL surface, SMD, ORCA-2-JSON
   Dimitrios Liakos       : Extrapolation schemes; Compound Job, initial MDCI parallelization
   Dimitrios Manganas     : Further ROCIS development; embedding schemes. LFT, Crystal Embedding
   Dimitrios Pantazis     : SARC Basis sets
   Anastasios Papadopoulos: AUTO-CI, single reference methods and gradients
   Taras Petrenko         : pre 6.0 DFT Hessian and TD-DFT gradient, (ASA, deprecated), ECA, 1-Electron XAS/XES, NRVS
   Peter Pinski           : DLPNO-MP2, DLPNO-MP2 Gradient
   Christoph Reimann      : Effective Core Potentials
   Marius Retegan         : Local ZFS, SOC
   Christoph Riplinger    : Optimizer, TS searches, QM/MM, DLPNO-CCSD(T), (RO)-DLPNO pert. Triples
   Michael Roemelt        : Original ROCIS implementation
   Masaaki Saitow         : Open-shell DLPNO-CCSD energy and density
   Barbara Sandhoefer     : DKH picture change effects
   Kantharuban Sivalingam : CASSCF convergence/infrastructure, NEVPT2 and variants, FIC-MRCI
   Bernardo de Souza      : ESD, SOC TD-DFT
   Georgi Stoychev        : AutoAux, RI-MP2 NMR, DLPNO-MP2 response, X2C
   Van Anh Tran           : RI-MP2 g-tensors
   Willem Van den Heuvel  : Paramagnetic NMR
   Zikuan Wang            : NOTCH, Electric field optimization 
   Frank Wennmohs         : Technical directorship and infrastructure
   Hang Xu                : AUTO-CI-Response properties 


 We gratefully acknowledge several colleagues who have allowed us to
 interface, adapt or use parts of their codes:
   Stefan Grimme, W. Hujo, H. Kruse, P. Pracht,  : VdW corrections, initial TS optimization,
                  C. Bannwarth, S. Ehlert,         DFT functionals, gCP, sTDA/sTD-DF
                  L. Wittmann, M. Mueller
   Ed Valeev, F. Pavosevic, A. Kumar             : LibInt (2-el integral package), F12 methods
   Garnet Chan, S. Sharma, J. Yang, R. Olivares  : DMRG
   Ulf Ekstrom                                   : XCFun DFT Library
   Mihaly Kallay                                 : mrcc  (arbitrary order and MRCC methods)
   Frank Weinhold                                : gennbo (NPA and NBO analysis)
   Simon Mueller                                 : openCOSMO-RS
   Christopher J. Cramer and Donald G. Truhlar   : smd solvation model
   Lars Goerigk                                  : TD-DFT with DH, B97 family of functionals
   V. Asgeirsson, H. Jonsson                     : NEB implementation
   FAccTs GmbH                                   : IRC, NEB, NEB-TS, DLPNO-Multilevel, CI-OPT
                                                   MM, QMMM, 2- and 3-layer-ONIOM, Crystal-QMMM,
                                                   LR-CPCM, SF, NACMEs, symmetry and pop. for TD-DFT,
                                                   nearIR, NL-DFT gradient (VV10), updates on ESD,
                                                   ML-optimized integration grids, MBIS, APM,
                                                   GOAT, DOCKER, SOLVATOR, interface openCOSMO-RS
   S Lehtola, MJT Oliveira, MAL Marques          : LibXC Library
   Liviu Ungur et al                             : ANISO software


 Your calculation uses the libint2 library for the computation of 2-el integrals
 For citations please refer to: http://libint.valeyev.net

 Your ORCA version has been built with support for libXC version: 6.2.2
 For citations please refer to: https://libxc.gitlab.io

 This ORCA versions uses:
   CBLAS   interface :  Fast vector & matrix operations
   LAPACKE interface :  Fast linear algebra routines
   Shared memory     :  Shared parallel matrices


Your calculation utilizes the atom-pairwise dispersion correction
with the Becke-Johnson damping scheme (D3BJ)


Warning: RI is on but no J-basis has been assigned. Assigning Def2/J (nothing to worry about!)
================================================================================

----- Orbital basis set information -----
Your calculation utilizes the basis: def2-SVP
   F. Weigend and R. Ahlrichs, Phys. Chem. Chem. Phys. 7, 3297 (2005).

----- AuxJ basis set information -----
Your calculation utilizes the auxiliary basis: def2/J
   F. Weigend, Phys. Chem. Chem. Phys. 8, 1057 (2006).

================================================================================
                                        WARNINGS
                       Please study these warnings very carefully!
================================================================================


WARNING: Geometry Optimization
  ===> : Switching off AutoStart
         For restart on a previous wavefunction, please use MOREAD

================================================================================
                                       INPUT FILE
================================================================================
NAME = data/geom_opt_PO_BP86/143061/143061.inp
|  1> ! RI BP86 def2-SVP D3BJ TIGHTSCF Opt
|  2> %pal
|  3> nprocs 6
|  4> end
|  5> 
|  6> * xyz 0 1
|  7> C      0.814603   -0.547321   -1.449949
|  8> N      1.362174   -0.674999   -0.105439
|  9> C      1.554732    0.644387    0.482766
| 10> N      0.311540    1.404607    0.502276
| 11> C     -0.227428    1.515256   -0.847210
| 12> N     -0.434700    0.203060   -1.446396
| 13> C     -1.531271   -0.536563   -0.811182
| 14> P     -1.039491   -0.782478    0.880545
| 15> O     -2.033925   -1.531038    1.722922
| 16> C      0.556413   -1.556729    0.746798
| 17> C     -0.664258    0.859445    1.452867
| 18> H      0.673231   -1.535282   -1.907428
| 19> H      1.544563   -0.045702   -2.099631
| 20> H      2.315215    1.195152   -0.087210
| 21> H      1.975573    0.561664    1.493405
| 22> H     -1.160342    2.094058   -0.846841
| 23> H      0.459559    2.101935   -1.472035
| 24> H     -2.466767    0.029369   -0.874257
| 25> H     -1.697916   -1.492481   -1.318982
| 26> H      1.023275   -1.676073    1.730265
| 27> H      0.477179   -2.555362    0.304232
| 28> H     -0.248505    0.841266    2.465896
| 29> H     -1.563453    1.483827    1.484587
| 30> **                         ****END OF INPUT****
================================================================================

                       *****************************
                       * Geometry Optimization Run *
                       *****************************

Geometry optimization settings:
Update method            Update   .... BFGS
Choice of coordinates    CoordSys .... (2022) Redundant Internals
Initial Hessian          InHess   .... Almloef's Model
Max. no of cycles        MaxIter  .... 69

Convergence Tolerances:
Energy Change            TolE     ....  5.0000e-06 Eh
Max. Gradient            TolMAXG  ....  3.0000e-04 Eh/bohr
RMS Gradient             TolRMSG  ....  1.0000e-04 Eh/bohr
Max. Displacement        TolMAXD  ....  4.0000e-03 bohr
RMS Displacement         TolRMSD  ....  2.0000e-03 bohr
Strict Convergence                .... False

------------------------------------------------------------------------------
                        ORCA OPTIMIZATION COORDINATE SETUP
------------------------------------------------------------------------------

The optimization will be done in redundant internal coordinates (2022)
Making redundant internal coordinates   ...  (2022 redundants) done
Evaluating the initial hessian          ...  (Almloef) done
Evaluating the coordinates              ...  done
Calculating the B-matrix                .... done
Calculating the G-matrix                .... done
Diagonalizing the G-matrix              .... done
The first mode is                       ....   76
The number of degrees of freedom        ....   63

    -----------------------------------------------------------------
                    Redundant Internal Coordinates


    -----------------------------------------------------------------
         Definition                    Initial Value    Approx d2E/dq
    -----------------------------------------------------------------
      1. B(N   1,C   0)                  1.4573         0.436955   
      2. B(C   2,N   1)                  1.4573         0.436955   
      3. B(N   3,C   2)                  1.4573         0.436956   
      4. B(C   4,N   3)                  1.4573         0.436956   
      5. B(N   5,C   4)                  1.4573         0.436955   
      6. B(N   5,C   0)                  1.4573         0.436956   
      7. B(C   6,N   5)                  1.4673         0.421238   
      8. B(P   7,C   6)                  1.7788         0.503347   
      9. B(O   8,P   7)                  1.5029         1.242152   
     10. B(C   9,P   7)                  1.7788         0.503347   
     11. B(C   9,N   1)                  1.4673         0.421238   
     12. B(C  10,P   7)                  1.7788         0.503346   
     13. B(C  10,N   3)                  1.4673         0.421238   
     14. B(H  11,C   0)                  1.0979         0.349825   
     15. B(H  12,C   0)                  1.0984         0.349118   
     16. B(H  13,C   2)                  1.0984         0.349119   
     17. B(H  14,C   2)                  1.0979         0.349825   
     18. B(H  15,C   4)                  1.0979         0.349825   
     19. B(H  16,C   4)                  1.0984         0.349118   
     20. B(H  17,C   6)                  1.0952         0.353318   
     21. B(H  18,C   6)                  1.0952         0.353317   
     22. B(H  19,C   9)                  1.0952         0.353318   
     23. B(H  20,C   9)                  1.0952         0.353317   
     24. B(H  21,C  10)                  1.0952         0.353318   
     25. B(H  22,C  10)                  1.0952         0.353317   
     26. A(H  11,C   0,H  12)          104.4811         0.288121   
     27. A(N   1,C   0,H  11)          110.7307         0.329230   
     28. A(N   1,C   0,N   5)          111.4050         0.378694   
     29. A(N   1,C   0,H  12)          109.6326         0.329120   
     30. A(N   5,C   0,H  12)          109.6326         0.329120   
     31. A(N   5,C   0,H  11)          110.7307         0.329230   
     32. A(C   2,N   1,C   9)          112.4677         0.376302   
     33. A(C   0,N   1,C   2)          110.0411         0.378694   
     34. A(C   0,N   1,C   9)          112.4677         0.376302   
     35. A(N   3,C   2,H  13)          109.6326         0.329120   
     36. A(N   1,C   2,H  13)          109.6326         0.329120   
     37. A(N   1,C   2,H  14)          110.7307         0.329230   
     38. A(N   1,C   2,N   3)          111.4050         0.378694   
     39. A(H  13,C   2,H  14)          104.4811         0.288121   
     40. A(N   3,C   2,H  14)          110.7307         0.329230   
     41. A(C   2,N   3,C   4)          110.0411         0.378694   
     42. A(C   2,N   3,C  10)          112.4677         0.376302   
     43. A(C   4,N   3,C  10)          112.4677         0.376302   
     44. A(N   5,C   4,H  16)          109.6326         0.329120   
     45. A(N   3,C   4,N   5)          111.4050         0.378694   
     46. A(H  15,C   4,H  16)          104.4811         0.288121   
     47. A(N   3,C   4,H  16)          109.6326         0.329120   
     48. A(N   3,C   4,H  15)          110.7307         0.329230   
     49. A(N   5,C   4,H  15)          110.7307         0.329230   
     50. A(C   0,N   5,C   6)          112.4677         0.376302   
     51. A(C   0,N   5,C   4)          110.0412         0.378694   
     52. A(C   4,N   5,C   6)          112.4677         0.376302   
     53. A(H  17,C   6,H  18)          107.1192         0.289110   
     54. A(P   7,C   6,H  18)          111.2455         0.360964   
     55. A(N   5,C   6,H  18)          110.6685         0.327783   
     56. A(P   7,C   6,H  17)          111.2454         0.360964   
     57. A(N   5,C   6,H  17)          110.6685         0.327783   
     58. A(N   5,C   6,P   7)          105.9492         0.413523   
     59. A(O   8,P   7,C   9)          114.7696         0.539399   
     60. A(C   6,P   7,C   9)          103.6917         0.458618   
     61. A(C   6,P   7,O   8)          114.7695         0.539399   
     62. A(C   9,P   7,C  10)          103.6917         0.458618   
     63. A(O   8,P   7,C  10)          114.7695         0.539399   
     64. A(C   6,P   7,C  10)          103.6917         0.458618   
     65. A(N   1,C   9,P   7)          105.9492         0.413523   
     66. A(H  19,C   9,H  20)          107.1192         0.289110   
     67. A(P   7,C   9,H  20)          111.2454         0.360964   
     68. A(N   1,C   9,H  20)          110.6686         0.327783   
     69. A(P   7,C   9,H  19)          111.2454         0.360964   
     70. A(N   1,C   9,H  19)          110.6686         0.327783   
     71. A(H  21,C  10,H  22)          107.1193         0.289110   
     72. A(P   7,C  10,H  22)          111.2454         0.360963   
     73. A(N   3,C  10,H  22)          110.6685         0.327783   
     74. A(P   7,C  10,H  21)          111.2454         0.360964   
     75. A(N   3,C  10,H  21)          110.6685         0.327783   
     76. A(N   3,C  10,P   7)          105.9493         0.413523   
     77. D(C   9,N   1,C   0,N   5)     69.4341         0.016279   
     78. D(C   2,N   1,C   0,N   5)    -56.7987         0.016279   
     79. D(C   9,N   1,C   0,H  11)    -54.2686         0.016279   
     80. D(C   2,N   1,C   0,H  12)     64.7342         0.016279   
     81. D(C   2,N   1,C   0,H  11)    179.4986         0.016279   
     82. D(N   3,C   2,N   1,C   9)    -69.4341         0.016279   
     83. D(N   3,C   2,N   1,C   0)     56.7987         0.016279   
     84. D(H  13,C   2,N   1,C   9)    169.0330         0.016279   
     85. D(H  14,C   2,N   1,C   0)   -179.4986         0.016279   
     86. D(H  13,C   2,N   1,C   0)    -64.7342         0.016279   
     87. D(C   4,N   3,C   2,N   1)    -56.7987         0.016280   
     88. D(C   4,N   3,C   2,H  14)    179.4986         0.016280   
     89. D(C  10,N   3,C   2,N   1)     69.4341         0.016280   
     90. D(C  10,N   3,C   2,H  13)   -169.0330         0.016280   
     91. D(C   4,N   3,C   2,H  13)     64.7343         0.016280   
     92. D(H  16,C   4,N   3,C   2)    -64.7342         0.016280   
     93. D(H  15,C   4,N   3,C  10)     54.2686         0.016280   
     94. D(H  15,C   4,N   3,C   2)   -179.4986         0.016280   
     95. D(N   5,C   4,N   3,C  10)    -69.4341         0.016280   
     96. D(N   5,C   4,N   3,C   2)     56.7987         0.016280   
     97. D(C   6,N   5,C   4,N   3)     69.4341         0.016279   
     98. D(C   6,N   5,C   4,H  15)    -54.2687         0.016279   
     99. D(C   0,N   5,C   4,H  16)     64.7342         0.016279   
    100. D(C   0,N   5,C   4,H  15)    179.4986         0.016279   
    101. D(C   0,N   5,C   4,N   3)    -56.7987         0.016279   
    102. D(C   4,N   5,C   0,H  12)    -64.7342         0.016280   
    103. D(C   4,N   5,C   0,H  11)   -179.4986         0.016280   
    104. D(C   6,N   5,C   0,H  11)     54.2686         0.016280   
    105. D(C   4,N   5,C   0,N   1)     56.7987         0.016280   
    106. D(C   6,N   5,C   0,N   1)    -69.4341         0.016280   
    107. D(P   7,C   6,N   5,C   0)     62.4565         0.015130   
    108. D(H  18,C   6,N   5,C   0)    -58.2478         0.015130   
    109. D(H  17,C   6,N   5,C   4)     58.2477         0.015130   
    110. D(H  17,C   6,N   5,C   0)   -176.8393         0.015130   
    111. D(P   7,C   6,N   5,C   4)    -62.4565         0.015130   
    112. D(C   9,P   7,C   6,H  18)     66.2969         0.005259   
    113. D(C   9,P   7,C   6,H  17)   -174.3618         0.005259   
    114. D(C   9,P   7,C   6,N   5)    -54.0325         0.005259   
    115. D(O   8,P   7,C   6,H  18)    -59.6707         0.005259   
    116. D(O   8,P   7,C   6,H  17)     59.6706         0.005259   
    117. D(O   8,P   7,C   6,N   5)    180.0000         0.005259   
    118. D(H  19,C   9,P   7,C  10)     66.2969         0.005259   
    119. D(H  19,C   9,P   7,O   8)    -59.6706         0.005259   
    120. D(H  19,C   9,P   7,C   6)    174.3619         0.005259   
    121. D(N   1,C   9,P   7,C  10)    -54.0325         0.005259   
    122. D(N   1,C   9,P   7,O   8)   -180.0000         0.005259   
    123. D(N   1,C   9,P   7,C   6)     54.0325         0.005259   
    124. D(H  20,C   9,N   1,C   0)     58.2477         0.015130   
    125. D(H  19,C   9,N   1,C   2)    -58.2477         0.015130   
    126. D(H  19,C   9,N   1,C   0)    176.8393         0.015130   
    127. D(P   7,C   9,N   1,C   2)     62.4565         0.015130   
    128. D(P   7,C   9,N   1,C   0)    -62.4565         0.015130   
    129. D(H  21,C  10,P   7,O   8)     59.6706         0.005258   
    130. D(H  21,C  10,P   7,C   6)   -174.3619         0.005258   
    131. D(N   3,C  10,P   7,C   9)     54.0325         0.005258   
    132. D(N   3,C  10,P   7,O   8)   -180.0000         0.005258   
    133. D(N   3,C  10,P   7,C   6)    -54.0325         0.005258   
    134. D(H  22,C  10,N   3,C   2)    176.8394         0.015130   
    135. D(H  21,C  10,N   3,C   4)   -176.8393         0.015130   
    136. D(H  21,C  10,N   3,C   2)     58.2478         0.015130   
    137. D(P   7,C  10,N   3,C   4)     62.4565         0.015130   
    138. D(H  21,C  10,P   7,C   9)    -66.2969         0.005258   
    139. D(P   7,C  10,N   3,C   2)    -62.4565         0.015130   
    -----------------------------------------------------------------

Number of atoms                         .... 23
Number of degrees of freedom            .... 139


         *************************************************************
         *                GEOMETRY OPTIMIZATION CYCLE   1            *
         *************************************************************
---------------------------------
CARTESIAN COORDINATES (ANGSTROEM)
---------------------------------
  C      0.814603   -0.547321   -1.449949
  N      1.362174   -0.674999   -0.105439
  C      1.554732    0.644387    0.482766
  N      0.311540    1.404607    0.502276
  C     -0.227428    1.515256   -0.847210
  N     -0.434700    0.203060   -1.446396
  C     -1.531271   -0.536563   -0.811182
  P     -1.039491   -0.782478    0.880545
  O     -2.033925   -1.531038    1.722922
  C      0.556413   -1.556729    0.746798
  C     -0.664258    0.859445    1.452867
  H      0.673231   -1.535282   -1.907428
  H      1.544563   -0.045702   -2.099631
  H      2.315215    1.195152   -0.087210
  H      1.975573    0.561664    1.493405
  H     -1.160342    2.094058   -0.846841
  H      0.459559    2.101935   -1.472035
  H     -2.466767    0.029369   -0.874257
  H     -1.697916   -1.492481   -1.318982
  H      1.023275   -1.676073    1.730265
  H      0.477179   -2.555362    0.304232
  H     -0.248505    0.841266    2.465896
  H     -1.563453    1.483827    1.484587

----------------------------
CARTESIAN COORDINATES (A.U.)
----------------------------
  NO LB      ZA    FRAG     MASS         X           Y           Z
   0 C     6.0000    0    12.011    1.539377   -1.034287   -2.740007
   1 N     7.0000    0    14.007    2.574136   -1.275563   -0.199251
   2 C     6.0000    0    12.011    2.938018    1.217715    0.912296
   3 N     7.0000    0    14.007    0.588725    2.654323    0.949164
   4 C     6.0000    0    12.011   -0.429777    2.863419   -1.600995
   5 N     7.0000    0    14.007   -0.821464    0.383728   -2.733292
   6 C     6.0000    0    12.011   -2.893683   -1.013957   -1.532912
   7 P    15.0000    0    30.974   -1.964353   -1.478669    1.663989
   8 O     8.0000    0    15.999   -3.843561   -2.893243    3.255851
   9 C     6.0000    0    12.011    1.051468   -2.941791    1.411244
  10 C     6.0000    0    12.011   -1.255266    1.624116    2.745521
  11 H     1.0000    0     1.008    1.272222   -2.901263   -3.604517
  12 H     1.0000    0     1.008    2.918801   -0.086364   -3.967728
  13 H     1.0000    0     1.008    4.375122    2.258510   -0.164803
  14 H     1.0000    0     1.008    3.733292    1.061391    2.822126
  15 H     1.0000    0     1.008   -2.192729    3.957196   -1.600298
  16 H     1.0000    0     1.008    0.868441    3.972082   -2.781743
  17 H     1.0000    0     1.008   -4.661514    0.055499   -1.652106
  18 H     1.0000    0     1.008   -3.208596   -2.820380   -2.492515
  19 H     1.0000    0     1.008    1.933710   -3.167319    3.269727
  20 H     1.0000    0     1.008    0.901738   -4.828934    0.574915
  21 H     1.0000    0     1.008   -0.469606    1.589762    4.659868
  22 H     1.0000    0     1.008   -2.954498    2.804027    2.805463

--------------------------------
INTERNAL COORDINATES (ANGSTROEM)
--------------------------------
 C      0   0   0     0.000000000000     0.00000000     0.00000000
 N      1   0   0     1.457341007392     0.00000000     0.00000000
 C      2   1   0     1.457341113942   110.04114616     0.00000000
 N      3   2   1     1.457340535827   111.40498953    56.79873236
 C      4   3   2     1.457340787332   110.04114903   303.20127781
 N      1   2   3     1.457340816274   111.40496526   303.20127760
 C      6   1   2     1.467312838479   112.46771520   290.56593342
 P      7   6   1     1.778837260166   105.94924983    62.45649248
 O      8   7   6     1.502943799377   114.76953319   179.99996693
 C      2   1   3     1.467312674991   112.46771550   126.23280223
 C      4   3   2     1.467312711159   112.46771988    69.43405739
 H      1   2   3     1.097879781828   110.73066217   179.49859100
 H      1   2   3     1.098430664123   109.63259675    64.73416394
 H      3   2   1     1.098430297784   109.63264971   295.26578656
 H      3   2   1     1.097880426245   110.73065678   180.50142903
 H      5   4   3     1.097879967374   110.73071086   180.50140882
 H      5   4   3     1.098430547570   109.63257525   295.26581006
 H      7   6   1     1.095175899235   110.66849735   183.16070937
 H      7   6   1     1.095176067465   110.66849428   301.75220528
 H     10   2   1     1.095175993833   110.66855968   176.83931777
 H     10   2   1     1.095176040553   110.66856879    58.24772550
 H     11   4   3     1.095175231591   110.66853019    58.24775018
 H     11   4   3     1.095176099241   110.66852393   176.83936127

---------------------------
INTERNAL COORDINATES (A.U.)
---------------------------
 C      0   0   0     0.000000000000     0.00000000     0.00000000
 N      1   0   0     2.753975387703     0.00000000     0.00000000
 C      2   1   0     2.753975589054   110.04114616     0.00000000
 N      3   2   1     2.753974496575   111.40498953    56.79873236
 C      4   3   2     2.753974971850   110.04114903   303.20127781
 N      1   2   3     2.753975026544   111.40496526   303.20127760
 C      6   1   2     2.772819417512   112.46771520   290.56593342
 P      7   6   1     3.361515258528   105.94924983    62.45649248
 O      8   7   6     2.840152175497   114.76953319   179.99996693
 C      2   1   3     2.772819108565   112.46771550   126.23280223
 C      4   3   2     2.772819176912   112.46771988    69.43405739
 H      1   2   3     2.074692115624   110.73066217   179.49859100
 H      1   2   3     2.075733132293   109.63259675    64.73416394
 H      3   2   1     2.075732440013   109.63264971   295.26578656
 H      3   2   1     2.074693333395   110.73065678   180.50142903
 H      5   4   3     2.074692466255   110.73071086   180.50140882
 H      5   4   3     2.075732912041   109.63257525   295.26581006
 H      7   6   1     2.069582518025   110.66849735   183.16070937
 H      7   6   1     2.069582835934   110.66849428   301.75220528
 H     10   2   1     2.069582696790   110.66855968   176.83931777
 H     10   2   1     2.069582785077   110.66856879    58.24772550
 H     11   4   3     2.069581256361   110.66853019    58.24775018
 H     11   4   3     2.069582895982   110.66852393   176.83936127

---------------------
BASIS SET INFORMATION
---------------------
There are 5 groups of distinct atoms

 Group   1 Type C   : 7s4p1d contracted to 3s2p1d pattern {511/31/1}
 Group   2 Type N   : 7s4p1d contracted to 3s2p1d pattern {511/31/1}
 Group   3 Type P   : 10s7p1d contracted to 4s3p1d pattern {5311/511/1}
 Group   4 Type O   : 7s4p1d contracted to 3s2p1d pattern {511/31/1}
 Group   5 Type H   : 4s1p contracted to 2s1p pattern {31/1}

Atom   0C    basis set group =>   1
Atom   1N    basis set group =>   2
Atom   2C    basis set group =>   1
Atom   3N    basis set group =>   2
Atom   4C    basis set group =>   1
Atom   5N    basis set group =>   2
Atom   6C    basis set group =>   1
Atom   7P    basis set group =>   3
Atom   8O    basis set group =>   4
Atom   9C    basis set group =>   1
Atom  10C    basis set group =>   1
Atom  11H    basis set group =>   5
Atom  12H    basis set group =>   5
Atom  13H    basis set group =>   5
Atom  14H    basis set group =>   5
Atom  15H    basis set group =>   5
Atom  16H    basis set group =>   5
Atom  17H    basis set group =>   5
Atom  18H    basis set group =>   5
Atom  19H    basis set group =>   5
Atom  20H    basis set group =>   5
Atom  21H    basis set group =>   5
Atom  22H    basis set group =>   5
---------------------------------
AUXILIARY/J BASIS SET INFORMATION
---------------------------------
There are 5 groups of distinct atoms

 Group   1 Type C   : 12s5p4d2f1g contracted to 6s4p3d1f1g pattern {711111/2111/211/2/1}
 Group   2 Type N   : 12s5p4d2f1g contracted to 6s4p3d1f1g pattern {711111/2111/211/2/1}
 Group   3 Type P   : 14s5p5d2f1g contracted to 8s4p3d1f1g pattern {71111111/2111/311/2/1}
 Group   4 Type O   : 12s5p4d2f1g contracted to 6s4p3d1f1g pattern {711111/2111/211/2/1}
 Group   5 Type H   : 5s2p1d contracted to 3s1p1d pattern {311/2/1}

Atom   0C    basis set group =>   1
Atom   1N    basis set group =>   2
Atom   2C    basis set group =>   1
Atom   3N    basis set group =>   2
Atom   4C    basis set group =>   1
Atom   5N    basis set group =>   2
Atom   6C    basis set group =>   1
Atom   7P    basis set group =>   3
Atom   8O    basis set group =>   4
Atom   9C    basis set group =>   1
Atom  10C    basis set group =>   1
Atom  11H    basis set group =>   5
Atom  12H    basis set group =>   5
Atom  13H    basis set group =>   5
Atom  14H    basis set group =>   5
Atom  15H    basis set group =>   5
Atom  16H    basis set group =>   5
Atom  17H    basis set group =>   5
Atom  18H    basis set group =>   5
Atom  19H    basis set group =>   5
Atom  20H    basis set group =>   5
Atom  21H    basis set group =>   5
Atom  22H    basis set group =>   5


           ************************************************************
           *        Program running with 6 parallel MPI-processes     *
           *              working on a common directory               *
           ************************************************************
------------------------------------------------------------------------------
                             ORCA STARTUP CALCULATIONS
                           -- RI-GTO INTEGRALS CHOSEN --
------------------------------------------------------------------------------
------------------------------------------------------------------------------
                   ___                                                        
                  /   \      - P O W E R E D   B Y -                         
                 /     \                                                     
                 |  |  |   _    _      __       _____    __    __             
                 |  |  |  | |  | |    /  \     |  _  \  |  |  /  |          
                  \  \/   | |  | |   /    \    | | | |  |  | /  /          
                 / \  \   | |__| |  /  /\  \   | |_| |  |  |/  /          
                |  |  |   |  __  | /  /__\  \  |    /   |      \           
                |  |  |   | |  | | |   __   |  |    \   |  |\   \          
                \     /   | |  | | |  |  |  |  | |\  \  |  | \   \       
                 \___/    |_|  |_| |__|  |__|  |_| \__\ |__|  \__/        
                                                                              
                      - O R C A' S   B I G   F R I E N D -                    
                                      &                                       
                       - I N T E G R A L  F E E D E R -                       
                                                                              
 v1 FN, 2020, v2 2021, v3 2022-2024                                           
------------------------------------------------------------------------------


----------------------
SHARK INTEGRAL PACKAGE
----------------------

Number of atoms                             ...     23
Number of basis functions                   ...    218
Number of shells                            ...    104
Maximum angular momentum                    ...      2
Integral batch strategy                     ... SHARK/LIBINT Hybrid
RI-J (if used) integral strategy            ... SPLIT-RIJ (Revised 2003 algorithm where possible)
Printlevel                                  ...      1
Contraction scheme used                     ... SEGMENTED contraction
Prescreening option                         ... SCHWARTZ
   Thresh                                   ... 2.500e-11
   Tcut                                     ... 2.500e-12
   Tpresel                                  ... 2.500e-12 
Coulomb Range Separation                    ... NOT USED
Exchange Range Separation                   ... NOT USED
Multipole approximations                    ... NOT USED
Finite Nucleus Model                        ... NOT USED
CABS basis                                  ... NOT available
Auxiliary Coulomb fitting basis             ... AVAILABLE
   # of basis functions in Aux-J            ...    673
   # of shells in Aux-J                     ...    227
   Maximum angular momentum in Aux-J        ...      4
Auxiliary J/K fitting basis                 ... NOT available
Auxiliary Correlation fitting basis         ... NOT available
Auxiliary 'external' fitting basis          ... NOT available

Checking pre-screening integrals            ... done (  0.0 sec) Dimension = 104
Check shell pair data                       ... done (  0.0 sec)
Shell pair information
Shell pair cut-off parameter TPreSel        ...   2.5e-12
Total number of shell pairs                 ...      5460
Shell pairs after pre-screening             ...      5246
Total number of primitive shell pairs       ...     19890
Primitive shell pairs kept                  ...     13801
          la=0 lb=0:   1623 shell pairs
          la=1 lb=0:   1955 shell pairs
          la=1 lb=1:    606 shell pairs
          la=2 lb=0:    617 shell pairs
          la=2 lb=1:    379 shell pairs
          la=2 lb=2:     66 shell pairs

Calculating one electron integrals          ... done (  0.0 sec)
Calculating RI/J V-Matrix + Cholesky decomp.... done (  0.0 sec)
Calculating Nuclear repulsion               ... done (  0.0 sec) ENN=    847.252856510336 Eh

Diagonalization of the overlap matrix:
Smallest eigenvalue                        ... 9.108e-04
Time for diagonalization                   ...    0.005 sec
Threshold for overlap eigenvalues          ... 1.000e-07
Number of eigenvalues below threshold      ... 0
Time for construction of square roots      ...    0.005 sec
Total time needed                          ...    0.011 sec

-------------------
DFT GRID GENERATION
-------------------

General Integration Accuracy     IntAcc      ... 4.388
Radial Grid Type                 RadialGrid  ... OptM3 with GC (2021)
Angular Grid (max. ang.)         AngularGrid ... 4 (Lebedev-302)
Angular grid pruning method      GridPruning ... 4 (adaptive)
Weight generation scheme         WeightScheme... mBecke (2022)
Basis function cutoff            BFCut       ... 1.0000e-11
Integration weight cutoff        WCut        ... 1.0000e-14
Partially contracted basis set               ... off
Rotationally invariant grid construction     ... off
Angular grids for H and He will be reduced by one unit

Total number of grid points                  ...   104769
Total number of batches                      ...     1649
Average number of points per batch           ...       63
Average number of grid points per atom       ...     4555
Initializing property integral containers    ... done (  0.0 sec)

SHARK setup successfully completed in   0.7 seconds

Maximum memory used throughout the entire STARTUP-calculation: 29.7 MB


           ************************************************************
           *        Program running with 6 parallel MPI-processes     *
           *              working on a common directory               *
           ************************************************************
-------------------------------------------------------------------------------
                                 ORCA GUESS
                   Start orbitals & Density for SCF / CASSCF
-------------------------------------------------------------------------------

------------
SCF SETTINGS
------------
Hamiltonian:
 Density Functional     Method          .... DFT(GTOs)
 Exchange Functional    Exchange        .... B88
   X-Alpha parameter    XAlpha          ....  0.666667
   Becke's b parameter  XBeta           ....  0.004200
 Correlation Functional Correlation     .... P86
 LDA part of GGA corr.  LDAOpt          .... PW91-LDA
 Gradients option       PostSCFGGA      .... off
   NL short-range parameter             ....  4.400000
 RI-approximation to the Coulomb term is turned on
   Number of AuxJ basis functions       .... 673


General Settings:
 Integral files         IntName         .... data/geom_opt_PO_BP86/143061/143061
 Hartree-Fock type      HFTyp           .... RHF
 Total Charge           Charge          ....    0
 Multiplicity           Mult            ....    1
 Number of Electrons    NEL             ....   92
 Basis Dimension        Dim             ....  218
 Nuclear Repulsion      ENuc            ....    847.2528565103 Eh

Convergence Acceleration:
 AO-DIIS                CNVDIIS         .... on
   Start iteration      DIISMaxIt       ....    12
   Startup error        DIISStart       ....  0.200000
   # of expansion vecs  DIISMaxEq       ....     5
   Bias factor          DIISBfac        ....   1.050
   Max. coefficient     DIISMaxC        ....  10.000
 MO-DIIS                CNVKDIIS        .... off
 Trust-Rad. Augm. Hess. CNVTRAH         .... auto
   Auto Start mean grad. ratio tolernc. ....  1.125000
   Auto Start start iteration           ....    50
   Auto Start num. interpolation iter.  ....    10
   Max. Number of Micro iterations      ....    24
   Max. Number of Macro iterations      .... Maxiter - #DIIS iter
   Number of Davidson start vectors     ....     2
   Converg. threshold    (grad. norm)   ....   1.000e-05
   Grad. Scal. Fac. for Micro threshold ....   0.100
   Minimum threshold for Micro iter.    ....   1.000e-02
   NR start threshold (gradient norm)   ....   1.000e-04
   Initial trust radius                 ....   0.400
   Minimum AH scaling param. (alpha)    ....   1.000
   Maximum AH scaling param. (alpha)    .... 1000.000
   Quad. conv. algorithm                .... NR
   White noise on init. David. guess    .... on
   Maximum white noise                  ....   0.010
   Pseudo random numbers                .... off
   Inactive MOs                         .... canonical
   Orbital update algorithm             .... Taylor
   Preconditioner                       .... Diag
   Full preconditioner red. dimension   ....   250
 SOSCF                  CNVSOSCF        .... on
   Start iteration      SOSCFMaxIt      ....   150
   Startup grad/error   SOSCFStart      ....  0.003300
   Hessian update       SOSCFHessUp     .... L-BFGS
 Level Shifting         CNVShift        .... on
   Level shift para.    LevelShift      ....    0.2500
   Turn off err/grad.   ShiftErr        ....    0.0010
 Zerner damping         CNVZerner       .... off
 Static damping         CNVDamp         .... on
   Fraction old density DampFac         ....    0.7000
   Max. Damping (<1)    DampMax         ....    0.9800
   Min. Damping (>=0)   DampMin         ....    0.0000
   Turn off err/grad.   DampErr         ....    0.1000

SCF Procedure:
 Maximum # iterations   MaxIter         ....   125
 SCF integral mode      SCFMode         .... Direct
   Integral package                     .... SHARK and LIBINT hybrid scheme
 Reset frequency        DirectResetFreq ....    20
 Integral Threshold     Thresh          ....  2.500e-11 Eh
 Primitive CutOff       TCut            ....  2.500e-12 Eh

Convergence Tolerance:
 Convergence Check Mode ConvCheckMode   .... Total+1el-Energy
 Convergence forced     ConvForced      .... 0
 Energy Change          TolE            ....  1.000e-08 Eh
 1-El. energy change                    ....  1.000e-05 Eh
 Orbital Gradient       TolG            ....  1.000e-05
 Orbital Rotation angle TolX            ....  1.000e-05
 DIIS Error             TolErr          ....  5.000e-07

------------------------------
INITIAL GUESS: MODEL POTENTIAL
------------------------------
Loading Hartree-Fock densities                     ... done
Calculating cut-offs                               ... done
Initializing the effective Hamiltonian             ... done
Setting up the integral package (SHARK)            ... done
Starting the Coulomb interaction                   ... done (   0.1 sec)
Making the grid                                    ... done (   0.1 sec)
Mapping shells                                     ... done
Starting the XC term evaluation                    ... done (   0.1 sec)
  promolecular density results
     # of electrons  =     92.004115171
     EX              =    -85.163441891
     EC              =     -3.547622741
     EX+EC           =    -88.711064631
Transforming the Hamiltonian                       ... done (   0.0 sec)
Diagonalizing the Hamiltonian                      ... done (   0.0 sec)
Back transforming the eigenvectors                 ... done (   0.0 sec)
Now organizing SCF variables                       ... done
                      ------------------
                      INITIAL GUESS DONE (   0.3 sec)
                      ------------------
             **** ENERGY FILE WAS UPDATED (data/geom_opt_PO_BP86/143061/143061.en.tmp) ****
Finished Guess after   0.3 sec
Maximum memory used throughout the entire GUESS-calculation: 16.4 MB


           ************************************************************
           *        Program running with 6 parallel MPI-processes     *
           *              working on a common directory               *
           ************************************************************

-------------------------------------------------------------------------------------------
                                      ORCA LEAN-SCF
                              memory conserving SCF solver
-------------------------------------------------------------------------------------------

----------------------------------------D-I-I-S--------------------------------------------
Iteration    Energy (Eh)           Delta-E    RMSDP     MaxDP     DIISErr   Damp  Time(sec)
-------------------------------------------------------------------------------------------
               ***  Starting incremental Fock matrix formation  ***
    1    -815.9455598793937270     0.00e+00  5.70e-03  1.94e-01  3.42e-01  0.700   0.4
    2    -816.0966962901635497    -1.51e-01  3.45e-03  1.21e-01  8.83e-02  0.700   0.4
                               ***Turning on AO-DIIS***
    3    -816.1412523483655832    -4.46e-02  1.08e-03  2.34e-02  2.26e-02  0.700   0.4
    4    -816.1732240326335841    -3.20e-02  1.78e-03  5.02e-02  1.44e-02  0.000   0.4
    5    -816.2456119882718895    -7.24e-02  5.55e-04  2.04e-02  5.64e-03  0.000   0.5
                              *** Initializing SOSCF ***
---------------------------------------S-O-S-C-F--------------------------------------
Iteration    Energy (Eh)           Delta-E    RMSDP     MaxDP     MaxGrad    Time(sec)
--------------------------------------------------------------------------------------
    6    -816.2461904579150769    -5.78e-04  1.74e-04  3.66e-03  2.84e-03     0.4
               *** Restarting incremental Fock matrix formation ***
    7    -816.2462692928969545    -7.88e-05  1.58e-04  5.07e-03  3.02e-04     0.5
    8    -816.2462702980332097    -1.01e-06  6.08e-05  1.58e-03  4.33e-04     0.4
    9    -816.2462760274137281    -5.73e-06  5.40e-05  1.09e-03  2.46e-04     0.4
   10    -816.2462760488241429    -2.14e-08  2.07e-05  4.29e-04  1.96e-04     0.4
   11    -816.2462779861861009    -1.94e-06  2.44e-05  6.14e-04  5.91e-05     0.4
   12    -816.2462780577369585    -7.16e-08  1.10e-05  3.43e-04  5.09e-05     0.4
   13    -816.2462782538485726    -1.96e-07  3.70e-06  1.65e-04  1.04e-05     0.4
   14    -816.2462782651272164    -1.13e-08  2.24e-06  7.38e-05  1.31e-05     0.4
   15    -816.2462782692531391    -4.13e-09  5.62e-07  2.32e-05  1.68e-06     0.4
                 **** Energy Check signals convergence ****

               *****************************************************
               *                     SUCCESS                       *
               *           SCF CONVERGED AFTER  15 CYCLES          *
               *****************************************************

             **** ENERGY FILE WAS UPDATED (data/geom_opt_PO_BP86/143061/143061.en.tmp) ****

----------------
TOTAL SCF ENERGY
----------------

Total Energy       :       -816.24627826925314 Eh          -22211.19043 eV

Components:
Nuclear Repulsion  :        847.25285651033630 Eh           23054.92232 eV
Electronic Energy  :      -1663.49913477958944 Eh          -45266.11274 eV
One Electron Energy:      -2799.76738333787307 Eh          -76185.54370 eV
Two Electron Energy:       1136.26824855828363 Eh           30919.43096 eV

Virial components:
Potential Energy   :      -1626.82035485939105 Eh          -44268.03240 eV
Kinetic Energy     :        810.57407659013791 Eh           22056.84197 eV
Virial Ratio       :          2.00699775855524

DFT components:
N(Alpha)           :       46.000195707632 electrons
N(Beta)            :       46.000195707632 electrons
N(Total)           :       92.000391415264 electrons
E(X)               :      -86.374761117042 Eh       
E(C)               :       -3.530712738689 Eh       
E(XC)              :      -89.905473855731 Eh       

---------------
SCF CONVERGENCE
---------------

  Last Energy change         ...    4.1259e-09  Tolerance :   1.0000e-08
  Last MAX-Density change    ...    2.3213e-05  Tolerance :   1.0000e-07
  Last RMS-Density change    ...    5.6187e-07  Tolerance :   5.0000e-09
  Last DIIS Error            ...    2.8363e-03  Tolerance :   5.0000e-07
  Last Orbital Gradient      ...    1.6782e-06  Tolerance :   1.0000e-05
  Last Orbital Rotation      ...    3.2514e-06  Tolerance :   1.0000e-05


----------------
ORBITAL ENERGIES
----------------

  NO   OCC          E(Eh)            E(eV) 
   0   2.0000     -76.388845     -2078.6462 
   1   2.0000     -18.692409      -508.6463 
   2   2.0000     -14.020138      -381.5073 
   3   2.0000     -14.020132      -381.5072 
   4   2.0000     -14.020003      -381.5037 
   5   2.0000      -9.975116      -271.4367 
   6   2.0000      -9.975109      -271.4365 
   7   2.0000      -9.975104      -271.4364 
   8   2.0000      -9.946564      -270.6598 
   9   2.0000      -9.946556      -270.6596 
  10   2.0000      -9.946547      -270.6593 
  11   2.0000      -6.353797      -172.8956 
  12   2.0000      -4.575112      -124.4951 
  13   2.0000      -4.574102      -124.4676 
  14   2.0000      -4.574101      -124.4676 
  15   2.0000      -0.928070       -25.2541 
  16   2.0000      -0.835791       -22.7430 
  17   2.0000      -0.828503       -22.5447 
  18   2.0000      -0.828498       -22.5446 
  19   2.0000      -0.706163       -19.2157 
  20   2.0000      -0.654603       -17.8127 
  21   2.0000      -0.654600       -17.8126 
  22   2.0000      -0.592118       -16.1124 
  23   2.0000      -0.592114       -16.1122 
  24   2.0000      -0.538693       -14.6586 
  25   2.0000      -0.522341       -14.2136 
  26   2.0000      -0.458726       -12.4826 
  27   2.0000      -0.458720       -12.4824 
  28   2.0000      -0.458143       -12.4667 
  29   2.0000      -0.453432       -12.3385 
  30   2.0000      -0.419223       -11.4076 
  31   2.0000      -0.419219       -11.4075 
  32   2.0000      -0.367080        -9.9888 
  33   2.0000      -0.367073        -9.9886 
  34   2.0000      -0.358665        -9.7598 
  35   2.0000      -0.358661        -9.7596 
  36   2.0000      -0.358061        -9.7433 
  37   2.0000      -0.347345        -9.4517 
  38   2.0000      -0.332768        -9.0551 
  39   2.0000      -0.332766        -9.0550 
  40   2.0000      -0.314824        -8.5668 
  41   2.0000      -0.241579        -6.5737 
  42   2.0000      -0.221278        -6.0213 
  43   2.0000      -0.221277        -6.0212 
  44   2.0000      -0.165991        -4.5168 
  45   2.0000      -0.165988        -4.5168 
  46   0.0000       0.011658         0.3172 
  47   0.0000       0.030645         0.8339 
  48   0.0000       0.039442         1.0733 
  49   0.0000       0.039456         1.0736 
  50   0.0000       0.062441         1.6991 
  51   0.0000       0.062452         1.6994 
  52   0.0000       0.066343         1.8053 
  53   0.0000       0.090394         2.4597 
  54   0.0000       0.096044         2.6135 
  55   0.0000       0.096047         2.6136 
  56   0.0000       0.108637         2.9562 
*Only the first 10 virtual orbitals were printed.

                    ********************************
                    * MULLIKEN POPULATION ANALYSIS *
                    ********************************

-----------------------
MULLIKEN ATOMIC CHARGES
-----------------------
   0 C :    0.172362
   1 N :   -0.307491
   2 C :    0.172192
   3 N :   -0.307245
   4 C :    0.172373
   5 N :   -0.307450
   6 C :    0.058680
   7 P :    0.238439
   8 O :   -0.459858
   9 C :    0.059172
  10 C :    0.058439
  11 H :    0.022292
  12 H :    0.021287
  13 H :    0.021273
  14 H :    0.022341
  15 H :    0.022271
  16 H :    0.021298
  17 H :    0.053306
  18 H :    0.053262
  19 H :    0.053165
  20 H :    0.053238
  21 H :    0.053358
  22 H :    0.053295
Sum of atomic charges:   -0.0000000

--------------------------------
MULLIKEN REDUCED ORBITAL CHARGES
--------------------------------
  0 C s       :     2.953217  s :     2.953217
      pz      :     0.920176  p :     2.812338
      px      :     0.903063
      py      :     0.989098
      dz2     :     0.013625  d :     0.062084
      dxz     :     0.017510
      dyz     :     0.010265
      dx2y2   :     0.009597
      dxy     :     0.011087

  1 N s       :     3.469042  s :     3.469042
      pz      :     1.076632  p :     3.810602
      px      :     1.560528
      py      :     1.173442
      dz2     :     0.005529  d :     0.027846
      dxz     :     0.006437
      dyz     :     0.006588
      dx2y2   :     0.005203
      dxy     :     0.004089

  2 C s       :     2.953264  s :     2.953264
      pz      :     1.005776  p :     2.812457
      px      :     0.940909
      py      :     0.865772
      dz2     :     0.009072  d :     0.062086
      dxz     :     0.009134
      dyz     :     0.009337
      dx2y2   :     0.015890
      dxy     :     0.018653

  3 N s       :     3.468934  s :     3.468934
      pz      :     1.123399  p :     3.810465
      px      :     1.099957
      py      :     1.587109
      dz2     :     0.006761  d :     0.027845
      dxz     :     0.007025
      dyz     :     0.003968
      dx2y2   :     0.003384
      dxy     :     0.006707

  4 C s       :     2.953181  s :     2.953181
      pz      :     0.879443  p :     2.812361
      px      :     1.006175
      py      :     0.926743
      dz2     :     0.015662  d :     0.062085
      dxz     :     0.010054
      dyz     :     0.017482
      dx2y2   :     0.008088
      dxy     :     0.010800

  5 N s       :     3.469031  s :     3.469031
      pz      :     1.618955  p :     3.810573
      px      :     1.104135
      py      :     1.087482
      dz2     :     0.003452  d :     0.027846
      dxz     :     0.004727
      dyz     :     0.005840
      dx2y2   :     0.006248
      dxy     :     0.007579

  6 C s       :     3.023357  s :     3.023357
      pz      :     0.972093  p :     2.878211
      px      :     0.920629
      py      :     0.985489
      dz2     :     0.010434  d :     0.039752
      dxz     :     0.006321
      dyz     :     0.006680
      dx2y2   :     0.007457
      dxy     :     0.008860

  7 P s       :     5.346778  s :     5.346778
      pz      :     2.968386  p :     8.899859
      px      :     2.956911
      py      :     2.974563
      dz2     :     0.139536  d :     0.514924
      dxz     :     0.079725
      dyz     :     0.074896
      dx2y2   :     0.123342
      dxy     :     0.097425

  8 O s       :     3.809763  s :     3.809763
      pz      :     1.551789  p :     4.637944
      px      :     1.514373
      py      :     1.571782
      dz2     :     0.002266  d :     0.012151
      dxz     :     0.002824
      dyz     :     0.002092
      dx2y2   :     0.002427
      dxy     :     0.002543

  9 C s       :     3.023112  s :     3.023112
      pz      :     0.968726  p :     2.877965
      px      :     0.952260
      py      :     0.956980
      dz2     :     0.007287  d :     0.039751
      dxz     :     0.007621
      dyz     :     0.007528
      dx2y2   :     0.010941
      dxy     :     0.006375

 10 C s       :     3.023452  s :     3.023452
      pz      :     0.948093  p :     2.878356
      px      :     0.946668
      py      :     0.983595
      dz2     :     0.010302  d :     0.039753
      dxz     :     0.008496
      dyz     :     0.004781
      dx2y2   :     0.006562
      dxy     :     0.009613

 11 H s       :     0.957817  s :     0.957817
      pz      :     0.005155  p :     0.019891
      px      :     0.003402
      py      :     0.011334

 12 H s       :     0.958857  s :     0.958857
      pz      :     0.006706  p :     0.019855
      px      :     0.007264
      py      :     0.005885

 13 H s       :     0.958870  s :     0.958870
      pz      :     0.006551  p :     0.019857
      px      :     0.008042
      py      :     0.005263

 14 H s       :     0.957770  s :     0.957770
      pz      :     0.011805  p :     0.019889
      px      :     0.005110
      py      :     0.002974

 15 H s       :     0.957838  s :     0.957838
      pz      :     0.003068  p :     0.019892
      px      :     0.010635
      py      :     0.006189

 16 H s       :     0.958848  s :     0.958848
      pz      :     0.006034  p :     0.019855
      px      :     0.007616
      py      :     0.006205

 17 H s       :     0.924647  s :     0.924647
      pz      :     0.004958  p :     0.022046
      px      :     0.010554
      py      :     0.006534

 18 H s       :     0.924689  s :     0.924689
      pz      :     0.006666  p :     0.022049
      px      :     0.004211
      py      :     0.011171

 19 H s       :     0.924787  s :     0.924787
      pz      :     0.011451  p :     0.022048
      px      :     0.006094
      py      :     0.004504

 20 H s       :     0.924712  s :     0.924712
      pz      :     0.005514  p :     0.022050
      px      :     0.004744
      py      :     0.011792

 21 H s       :     0.924596  s :     0.924596
      pz      :     0.011866  p :     0.022046
      px      :     0.005161
      py      :     0.005019

 22 H s       :     0.924656  s :     0.924656
      pz      :     0.004224  p :     0.022049
      px      :     0.010154
      py      :     0.007671



                     *******************************
                     * LOEWDIN POPULATION ANALYSIS *
                     *******************************

----------------------
LOEWDIN ATOMIC CHARGES
----------------------
   0 C :    0.049958
   1 N :   -0.138102
   2 C :    0.049931
   3 N :   -0.138076
   4 C :    0.049951
   5 N :   -0.138100
   6 C :   -0.116150
   7 P :    0.771999
   8 O :   -0.513190
   9 C :   -0.116106
  10 C :   -0.116186
  11 H :    0.023951
  12 H :    0.026963
  13 H :    0.026964
  14 H :    0.023961
  15 H :    0.023951
  16 H :    0.026966
  17 H :    0.033567
  18 H :    0.033540
  19 H :    0.033530
  20 H :    0.033549
  21 H :    0.033576
  22 H :    0.033553

-------------------------------
LOEWDIN REDUCED ORBITAL CHARGES
-------------------------------
  0 C s       :     2.834181  s :     2.834181
      pz      :     0.951128  p :     2.965966
      px      :     0.966326
      py      :     1.048513
      dz2     :     0.034189  d :     0.149895
      dxz     :     0.041926
      dyz     :     0.023209
      dx2y2   :     0.022669
      dxy     :     0.027902

  1 N s       :     3.143140  s :     3.143140
      pz      :     1.144581  p :     3.933217
      px      :     1.554756
      py      :     1.233880
      dz2     :     0.013390  d :     0.061745
      dxz     :     0.013842
      dyz     :     0.016006
      dx2y2   :     0.010574
      dxy     :     0.007933

  2 C s       :     2.834181  s :     2.834181
      pz      :     1.064217  p :     2.965993
      px      :     0.962146
      py      :     0.939630
      dz2     :     0.022962  d :     0.149894
      dxz     :     0.020907
      dyz     :     0.021926
      dx2y2   :     0.038215
      dxy     :     0.045884

  3 N s       :     3.143133  s :     3.143133
      pz      :     1.188992  p :     3.933197
      px      :     1.161793
      py      :     1.582413
      dz2     :     0.016217  d :     0.061746
      dxz     :     0.017255
      dyz     :     0.007277
      dx2y2   :     0.006476
      dxy     :     0.014521

  4 C s       :     2.834181  s :     2.834181
      pz      :     0.944999  p :     2.965975
      px      :     1.068151
      py      :     0.952825
      dz2     :     0.038978  d :     0.149893
      dxz     :     0.024083
      dyz     :     0.041408
      dx2y2   :     0.019503
      dxy     :     0.025921

  5 N s       :     3.143136  s :     3.143136
      pz      :     1.608058  p :     3.933218
      px      :     1.170815
      py      :     1.154345
      dz2     :     0.006127  d :     0.061745
      dxz     :     0.009028
      dyz     :     0.012126
      dx2y2   :     0.015462
      dxy     :     0.019002

  6 C s       :     2.888877  s :     2.888877
      pz      :     1.080709  p :     3.127189
      px      :     0.994179
      py      :     1.052301
      dz2     :     0.027603  d :     0.100084
      dxz     :     0.015187
      dyz     :     0.016949
      dx2y2   :     0.017542
      dxy     :     0.022803

  7 P s       :     4.925596  s :     4.925596
      pz      :     2.860594  p :     8.575260
      px      :     2.846565
      py      :     2.868101
      dz2     :     0.202127  d :     0.727145
      dxz     :     0.109835
      dyz     :     0.101631
      dx2y2   :     0.174599
      dxy     :     0.138952

  8 O s       :     3.655268  s :     3.655268
      pz      :     1.616563  p :     4.839097
      px      :     1.593814
      py      :     1.628719
      dz2     :     0.002633  d :     0.018825
      dxz     :     0.005224
      dyz     :     0.003535
      dx2y2   :     0.002946
      dxy     :     0.004487

  9 C s       :     2.888868  s :     2.888868
      pz      :     1.036978  p :     3.127152
      px      :     1.060986
      py      :     1.029188
      dz2     :     0.018178  d :     0.100086
      dxz     :     0.019275
      dyz     :     0.018793
      dx2y2   :     0.027253
      dxy     :     0.016587

 10 C s       :     2.888878  s :     2.888878
      pz      :     1.018899  p :     3.127224
      px      :     1.020819
      py      :     1.087505
      dz2     :     0.025848  d :     0.100084
      dxz     :     0.021603
      dyz     :     0.011288
      dx2y2   :     0.016578
      dxy     :     0.024767

 11 H s       :     0.911946  s :     0.911946
      pz      :     0.016590  p :     0.064103
      px      :     0.010859
      py      :     0.036654

 12 H s       :     0.909060  s :     0.909060
      pz      :     0.021668  p :     0.063977
      px      :     0.024031
      py      :     0.018278

 13 H s       :     0.909059  s :     0.909059
      pz      :     0.020366  p :     0.063977
      px      :     0.025937
      py      :     0.017674

 14 H s       :     0.911936  s :     0.911936
      pz      :     0.038036  p :     0.064103
      px      :     0.016181
      py      :     0.009886

 15 H s       :     0.911947  s :     0.911947
      pz      :     0.010029  p :     0.064102
      px      :     0.034061
      py      :     0.020012

 16 H s       :     0.909057  s :     0.909057
      pz      :     0.020099  p :     0.063977
      px      :     0.024041
      py      :     0.019837

 17 H s       :     0.896652  s :     0.896652
      pz      :     0.015061  p :     0.069781
      px      :     0.035213
      py      :     0.019507

 18 H s       :     0.896679  s :     0.896679
      pz      :     0.021666  p :     0.069781
      px      :     0.012688
      py      :     0.035427

 19 H s       :     0.896692  s :     0.896692
      pz      :     0.036776  p :     0.069778
      px      :     0.019730
      py      :     0.013272

 20 H s       :     0.896670  s :     0.896670
      pz      :     0.016151  p :     0.069780
      px      :     0.014278
      py      :     0.039351

 21 H s       :     0.896642  s :     0.896642
      pz      :     0.039474  p :     0.069781
      px      :     0.015360
      py      :     0.014947

 22 H s       :     0.896665  s :     0.896665
      pz      :     0.012245  p :     0.069782
      px      :     0.032434
      py      :     0.025103



                      *****************************
                      * MAYER POPULATION ANALYSIS *
                      *****************************

  NA   - Mulliken gross atomic population
  ZA   - Total nuclear charge
  QA   - Mulliken gross atomic charge
  VA   - Mayer's total valence
  BVA  - Mayer's bonded valence
  FA   - Mayer's free valence

  ATOM       NA         ZA         QA         VA         BVA        FA
  0 C      5.8276     6.0000     0.1724     4.1175     4.1175    -0.0000
  1 N      7.3075     7.0000    -0.3075     3.1269     3.1269    -0.0000
  2 C      5.8278     6.0000     0.1722     4.1176     4.1176    -0.0000
  3 N      7.3072     7.0000    -0.3072     3.1268     3.1268    -0.0000
  4 C      5.8276     6.0000     0.1724     4.1175     4.1175    -0.0000
  5 N      7.3074     7.0000    -0.3074     3.1268     3.1268    -0.0000
  6 C      5.9413     6.0000     0.0587     3.8349     3.8349    -0.0000
  7 P     14.7616    15.0000     0.2384     5.0481     5.0481    -0.0000
  8 O      8.4599     8.0000    -0.4599     2.1117     2.1117    -0.0000
  9 C      5.9408     6.0000     0.0592     3.8349     3.8349    -0.0000
 10 C      5.9416     6.0000     0.0584     3.8351     3.8351    -0.0000
 11 H      0.9777     1.0000     0.0223     0.9917     0.9917    -0.0000
 12 H      0.9787     1.0000     0.0213     0.9902     0.9902    -0.0000
 13 H      0.9787     1.0000     0.0213     0.9903     0.9903    -0.0000
 14 H      0.9777     1.0000     0.0223     0.9917     0.9917    -0.0000
 15 H      0.9777     1.0000     0.0223     0.9917     0.9917    -0.0000
 16 H      0.9787     1.0000     0.0213     0.9902     0.9902    -0.0000
 17 H      0.9467     1.0000     0.0533     0.9959     0.9959    -0.0000
 18 H      0.9467     1.0000     0.0533     0.9958     0.9958    -0.0000
 19 H      0.9468     1.0000     0.0532     0.9958     0.9958    -0.0000
 20 H      0.9468     1.0000     0.0532     0.9959     0.9959    -0.0000
 21 H      0.9466     1.0000     0.0534     0.9958     0.9958    -0.0000
 22 H      0.9467     1.0000     0.0533     0.9959     0.9959    -0.0000

  Mayer bond orders larger than 0.100000
B(  0-C ,  1-N ) :   1.0434 B(  0-C ,  5-N ) :   1.0433 B(  0-C , 11-H ) :   0.9317 
B(  0-C , 12-H ) :   0.9301 B(  1-N ,  2-C ) :   1.0433 B(  1-N ,  9-C ) :   0.9465 
B(  2-C ,  3-N ) :   1.0434 B(  2-C , 13-H ) :   0.9301 B(  2-C , 14-H ) :   0.9317 
B(  3-N ,  4-C ) :   1.0433 B(  3-N , 10-C ) :   0.9464 B(  4-C ,  5-N ) :   1.0434 
B(  4-C , 15-H ) :   0.9317 B(  4-C , 16-H ) :   0.9301 B(  5-N ,  6-C ) :   0.9465 
B(  6-C ,  7-P ) :   0.9266 B(  6-C , 17-H ) :   0.9257 B(  6-C , 18-H ) :   0.9257 
B(  7-P ,  8-O ) :   1.9510 B(  7-P ,  9-C ) :   0.9265 B(  7-P , 10-C ) :   0.9266 
B(  9-C , 19-H ) :   0.9257 B(  9-C , 20-H ) :   0.9257 B( 10-C , 21-H ) :   0.9257 
B( 10-C , 22-H ) :   0.9257 

-------
TIMINGS
-------

Total SCF time: 0 days 0 hours 0 min 6 sec 

Total time                  ....       6.482 sec
Sum of individual times     ....       6.423 sec  ( 99.1%)

SCF preparation             ....       0.094 sec  (  1.5%)
Fock matrix formation       ....       5.896 sec  ( 91.0%)
  Startup                   ....       0.032 sec  (  0.5% of F)
  Split-RI-J                ....       1.640 sec  ( 27.8% of F)
  XC integration            ....       4.084 sec  ( 69.3% of F)
    Basis function eval.    ....       1.121 sec  ( 27.4% of XC)
    Density eval.           ....       1.064 sec  ( 26.1% of XC)
    XC-Functional eval.     ....       0.116 sec  (  2.8% of XC)
    XC-Potential eval.      ....       1.095 sec  ( 26.8% of XC)
Diagonalization             ....       0.000 sec  (  0.0%)
Density matrix formation    ....       0.077 sec  (  1.2%)
Total Energy calculation    ....       0.031 sec  (  0.5%)
Population analysis         ....       0.034 sec  (  0.5%)
Orbital Transformation      ....       0.028 sec  (  0.4%)
Orbital Orthonormalization  ....       0.000 sec  (  0.0%)
DIIS solution               ....       0.138 sec  (  2.1%)
SOSCF solution              ....       0.125 sec  (  1.9%)
Finished LeanSCF after   6.5 sec

Maximum memory used throughout the entire LEANSCF-calculation: 22.2 MB


-------------------------------------------------------------------------------
                          DFT DISPERSION CORRECTION                            
                                                                               
                              DFTD3 V3.1  Rev 1                                
                          USING Becke-Johnson damping                          
-------------------------------------------------------------------------------
The BP86 functional is recognized
Active option DFTDOPT                   ...         4   

molecular C6(AA) [au] = 5479.572758 


            DFT-D V3
 parameters
 s6 scaling factor         :     1.0000 
 a1 scaling factor         :     0.3946 
 s8 scaling factor         :     3.2822 
 a2 scaling factor         :     4.8516 
 ad hoc parameters k1-k3   :    16.0000     1.3333    -4.0000 

 Edisp/kcal,au: -32.172985025360  -0.051270909720 
 E6   /kcal   : -11.854549402 
 E8   /kcal   : -20.318435624 
 % E8         :  63.153716100 

-------------------------   ----------------
Dispersion correction           -0.051270910
-------------------------   ----------------


-------------------------   --------------------
FINAL SINGLE POINT ENERGY      -816.297549178974
-------------------------   --------------------



           ************************************************************
           *        Program running with 6 parallel MPI-processes     *
           *              working on a common directory               *
           ************************************************************
------------------------------------------------------------------------------
                         ORCA SCF GRADIENT CALCULATION
------------------------------------------------------------------------------

Nuc. rep. gradient        (SHARK) ... done (  0.0 sec)
HCore & Overlap gradient  (SHARK) ... done (  0.1 sec)
Split-RIJ-J gradient      (SHARK) ... done (  0.4 sec)
XC gradient                       ... done (  2.2 sec)
Dispersion correction             ... done (  0.1 sec)

-------------------
DISPERSION GRADIENT
-------------------

   1   C   :    0.000349884   -0.000207566   -0.000604757
   2   N   :    0.000582296   -0.000258347   -0.000063693
   3   C   :    0.000650231    0.000276034    0.000179548
   4   N   :    0.000151835    0.000593700    0.000185297
   5   C   :   -0.000072977    0.000629436   -0.000360162
   6   N   :   -0.000153911    0.000101408   -0.000613104
   7   C   :   -0.000624113   -0.000206211   -0.000373330
   8   P   :   -0.000871613   -0.000656108    0.000738337
   9   O   :   -0.000536709   -0.000404008    0.000454642
  10   C   :    0.000269074   -0.000642675    0.000293230
  11   C   :   -0.000253173    0.000391052    0.000595312
  12   H   :    0.000163640   -0.000262621   -0.000391241
  13   H   :    0.000285263   -0.000017296   -0.000393577
  14   H   :    0.000433242    0.000220969   -0.000007157
  15   H   :    0.000409688    0.000133550    0.000251270
  16   H   :   -0.000182773    0.000423062   -0.000190867
  17   H   :    0.000076924    0.000395087   -0.000273068
  18   H   :   -0.000403600   -0.000018637   -0.000188844
  19   H   :   -0.000305560   -0.000212695   -0.000245553
  20   H   :    0.000192734   -0.000310041    0.000256184
  21   H   :    0.000123099   -0.000422163    0.000074344
  22   H   :   -0.000057903    0.000186066    0.000401160
  23   H   :   -0.000225578    0.000268002    0.000276028

Difference to translation invariance:
           :   -0.0000000000   -0.0000000000   -0.0000000000

Difference to rotation invariance:
           :   -0.0000000000    0.0000000000   -0.0000000000

Norm of the Dispersion gradient    ...    0.0030952311
RMS gradient                       ...    0.0003726220
MAX gradient                       ...    0.0008716135

------------------
CARTESIAN GRADIENT
------------------

   1   C   :    0.002547255   -0.004497874   -0.006171391
   2   N   :   -0.033296373    0.013918136    0.004357485
   3   C   :    0.006489714    0.002079457    0.004339762
   4   N   :   -0.009334879   -0.033555796   -0.009599659
   5   C   :   -0.003149290    0.006559607   -0.003064290
   6   N   :    0.007803150   -0.006334263    0.034818803
   7   C   :   -0.013998547   -0.011907116    0.016454884
   8   P   :    0.049060536    0.036924541   -0.041599461
   9   O   :    0.014380910    0.010848398   -0.012144142
  10   C   :   -0.018570431   -0.009681370    0.013086602
  11   C   :   -0.015981678   -0.014968660    0.011557562
  12   H   :    0.004433079    0.008636806   -0.000307333
  13   H   :   -0.004997677   -0.008055701    0.001447903
  14   H   :   -0.002301038   -0.003701187    0.008519514
  15   H   :    0.001110485    0.003231641   -0.009113581
  16   H   :    0.009222377   -0.000717673   -0.003080964
  17   H   :   -0.008872317   -0.000413599    0.003644457
  18   H   :    0.008671086   -0.005150963   -0.001245773
  19   H   :    0.001391175    0.009627434    0.003130954
  20   H   :   -0.002778806    0.000555163   -0.009786793
  21   H   :    0.002513340    0.009002155    0.004066409
  22   H   :   -0.003565475    0.001966419   -0.009335753
  23   H   :    0.009223404   -0.004365555    0.000024804

Difference to translation invariance:
           :   -0.0000000000   -0.0000000000    0.0000000000

Difference to rotation invariance:
           :   -0.0021856545   -0.0020073057    0.0014487479

Norm of the Cartesian gradient     ...    0.1145416172
RMS gradient                       ...    0.0137891903
MAX gradient                       ...    0.0490605364

-------
TIMINGS
-------

Total SCF gradient time     ....        2.799 sec

One electron gradient       ....       0.095 sec  (  3.4%)
RI-J Coulomb gradient       ....       0.433 sec  ( 15.5%)
XC gradient                 ....       2.195 sec  ( 78.4%)

Maximum memory used throughout the entire SCFGRAD-calculation: 32.1 MB
------------------------------------------------------------------------------
                         ORCA GEOMETRY RELAXATION STEP
------------------------------------------------------------------------------

Reading the OPT-File                    .... done
Getting information on internals        .... done
Copying old internal coords+grads       .... done
Making the new internal coordinates     .... (2022 redundants) done
Validating the new internal coordinates .... (2022 redundants) done
Calculating the B-matrix                .... done
Calculating the G,G- and P matrices     .... done
Transforming gradient to internals      .... done
Projecting the internal gradient        .... done
Number of atoms                         ....  23
Number of internal coordinates          .... 139
Current Energy                          ....  -816.297549179 Eh
Current gradient norm                   ....     0.114541617 Eh/bohr
Maximum allowed component of the step   ....  0.300
Current trust radius                    ....  0.300
Evaluating the initial hessian          ....  (Almloef) done
Projecting the Hessian                  .... done
Forming the augmented Hessian           .... done
Diagonalizing the augmented Hessian     .... done
Last element of RFO vector              ....  0.965558220
Lowest eigenvalues of augmented Hessian:
 -0.021639483  0.030546345  0.031718831  0.035870499  0.037738054
Length of the computed step             ....  0.269468055
The final length of the internal step   ....  0.269468055
Converting the step to Cartesian space:
 Initial RMS(Int)=    0.0228559821
Transforming coordinates:
 Iter   0:  RMS(Cart)=    0.0311923364 RMS(Int)=    1.4070173041
done
Storing new coordinates                 .... done

                                .--------------------.
          ----------------------|Geometry convergence|-------------------------
          Item                value                   Tolerance       Converged
          ---------------------------------------------------------------------
          RMS gradient        0.0075906113            0.0001000000      NO
          MAX gradient        0.0309407507            0.0003000000      NO
          RMS step            0.0228559821            0.0020000000      NO
          MAX step            0.0604107084            0.0040000000      NO
          ........................................................
          Max(Bonds)      0.0320      Max(Angles)    2.66
          Max(Dihed)        2.54      Max(Improp)    0.00
          ---------------------------------------------------------------------

The optimization has not yet converged - more geometry cycles are needed


    ---------------------------------------------------------------------------
                         Redundant Internal Coordinates
                            (Angstroem and degrees)

        Definition                    Value    dE/dq     Step     New-Value
    ----------------------------------------------------------------------------
     1. B(N   1,C   0)                1.4573 -0.007645  0.0089    1.4662   
     2. B(C   2,N   1)                1.4573 -0.007465  0.0090    1.4663   
     3. B(N   3,C   2)                1.4573 -0.007038  0.0087    1.4660   
     4. B(C   4,N   3)                1.4573 -0.009002  0.0088    1.4662   
     5. B(N   5,C   4)                1.4573 -0.008825  0.0089    1.4662   
     6. B(N   5,C   0)                1.4573 -0.009223  0.0091    1.4664   
     7. B(C   6,N   5)                1.4673 -0.014751  0.0164    1.4837   
     8. B(P   7,C   6)                1.7788 -0.030496  0.0319    1.8107   
     9. B(O   8,P   7)                1.5029 -0.021725  0.0091    1.5120   
    10. B(C   9,P   7)                1.7788 -0.030941  0.0320    1.8108   
    11. B(C   9,N   1)                1.4673 -0.014771  0.0170    1.4843   
    12. B(C  10,P   7)                1.7788 -0.030729  0.0319    1.8107   
    13. B(C  10,N   3)                1.4673 -0.012360  0.0161    1.4834   
    14. B(H  11,C   0)                1.0979 -0.008216  0.0117    1.1096   
    15. B(H  12,C   0)                1.0984 -0.007856  0.0112    1.1096   
    16. B(H  13,C   2)                1.0984 -0.007866  0.0112    1.1097   
    17. B(H  14,C   2)                1.0979 -0.008211  0.0117    1.1096   
[...]
                     *******************************

----------------------
LOEWDIN ATOMIC CHARGES
----------------------
   0 C :    0.053336
   1 N :   -0.134701
   2 C :    0.053371
   3 N :   -0.134607
   4 C :    0.053414
   5 N :   -0.134752
   6 C :   -0.128271
   7 P :    0.774391
   8 O :   -0.486867
   9 C :   -0.128193
  10 C :   -0.128237
  11 H :    0.024604
  12 H :    0.026832
  13 H :    0.026819
  14 H :    0.024601
  15 H :    0.024601
  16 H :    0.026826
  17 H :    0.031133
  18 H :    0.031159
  19 H :    0.031113
  20 H :    0.031133
  21 H :    0.031126
  22 H :    0.031170

-------------------------------
LOEWDIN REDUCED ORBITAL CHARGES
-------------------------------
  0 C s       :     2.848636  s :     2.848636
      pz      :     0.950592  p :     2.955476
      px      :     0.961649
      py      :     1.043235
      dz2     :     0.031353  d :     0.142551
      dxz     :     0.039496
      dyz     :     0.021440
      dx2y2   :     0.022009
      dxy     :     0.028253

  1 N s       :     3.169259  s :     3.169259
      pz      :     1.144716  p :     3.905657
      px      :     1.534678
      py      :     1.226263
      dz2     :     0.012522  d :     0.059785
      dxz     :     0.013734
      dyz     :     0.015254
      dx2y2   :     0.010378
      dxy     :     0.007897

  2 C s       :     2.848648  s :     2.848648
      pz      :     1.058377  p :     2.955429
      px      :     0.961911
      py      :     0.935141
      dz2     :     0.023075  d :     0.142551
      dxz     :     0.019259
      dyz     :     0.022015
      dx2y2   :     0.035142
      dxy     :     0.043061

  3 N s       :     3.168848  s :     3.168848
      pz      :     1.184271  p :     3.905950
      px      :     1.161514
      py      :     1.560165
      dz2     :     0.015617  d :     0.059808
      dxz     :     0.016506
      dyz     :     0.007230
      dx2y2   :     0.006119
      dxy     :     0.014337

  4 C s       :     2.848652  s :     2.848652
      pz      :     0.941034  p :     2.955372
      px      :     1.061393
      py      :     0.952945
      dz2     :     0.036893  d :     0.142562
      dxz     :     0.024248
      dyz     :     0.038621
      dx2y2   :     0.018756
      dxy     :     0.024045

  5 N s       :     3.169063  s :     3.169063
      pz      :     1.584776  p :     3.905901
      px      :     1.166733
      py      :     1.154392
      dz2     :     0.005920  d :     0.059787
      dxz     :     0.009089
      dyz     :     0.012092
      dx2y2   :     0.014516
      dxy     :     0.018170

  6 C s       :     2.915429  s :     2.915429
      pz      :     1.073891  p :     3.118618
      px      :     0.994008
      py      :     1.050719
      dz2     :     0.025490  d :     0.094224
      dxz     :     0.013546
      dyz     :     0.016948
      dx2y2   :     0.016588
      dxy     :     0.021651

  7 P s       :     4.993329  s :     4.993329
      pz      :     2.864051  p :     8.584580
      px      :     2.848136
      py      :     2.872393
      dz2     :     0.186519  d :     0.647699
      dxz     :     0.092789
      dyz     :     0.086139
      dx2y2   :     0.162210
      dxy     :     0.120043

  8 O s       :     3.672783  s :     3.672783
      pz      :     1.602616  p :     4.795446
      px      :     1.577755
      py      :     1.615075
      dz2     :     0.002610  d :     0.018638
      dxz     :     0.005166
      dyz     :     0.003489
      dx2y2   :     0.002917
      dxy     :     0.004457

  9 C s       :     2.915523  s :     2.915523
      pz      :     1.035565  p :     3.118508
      px      :     1.054379
      py      :     1.028564
      dz2     :     0.017129  d :     0.094162
      dxz     :     0.019282
      dyz     :     0.017410
      dx2y2   :     0.026275
      dxy     :     0.014066

 10 C s       :     2.915496  s :     2.915496
      pz      :     1.018304  p :     3.118537
      px      :     1.019197
      py      :     1.081037
      dz2     :     0.024842  d :     0.094203
      dxz     :     0.020173
      dyz     :     0.009524
      dx2y2   :     0.014743
      dxy     :     0.024921

 11 H s       :     0.913054  s :     0.913054
      pz      :     0.015424  p :     0.062342
      px      :     0.010333
      py      :     0.036585

 12 H s       :     0.910906  s :     0.910906
      pz      :     0.020506  p :     0.062262
      px      :     0.023536
      py      :     0.018220

 13 H s       :     0.910913  s :     0.910913
      pz      :     0.020385  p :     0.062268
      px      :     0.024679
      py      :     0.017204

 14 H s       :     0.913059  s :     0.913059
      pz      :     0.038046  p :     0.062340
      px      :     0.014885
      py      :     0.009409

 15 H s       :     0.913056  s :     0.913056
      pz      :     0.009431  p :     0.062343
      px      :     0.034157
      py      :     0.018754

 16 H s       :     0.910915  s :     0.910915
      pz      :     0.019509  p :     0.062259
      px      :     0.024155
      py      :     0.018595

 17 H s       :     0.901477  s :     0.901477
      pz      :     0.014260  p :     0.067390
      px      :     0.034262
      py      :     0.018868

 18 H s       :     0.901469  s :     0.901469
      pz      :     0.020934  p :     0.067372
      px      :     0.012049
      py      :     0.034389

 19 H s       :     0.901507  s :     0.901507
      pz      :     0.035741  p :     0.067380
      px      :     0.019014
      py      :     0.012626

 20 H s       :     0.901476  s :     0.901476
      pz      :     0.015504  p :     0.067391
      px      :     0.013427
      py      :     0.038460

 21 H s       :     0.901480  s :     0.901480
      pz      :     0.038511  p :     0.067394
      px      :     0.014755
      py      :     0.014128

 22 H s       :     0.901464  s :     0.901464
      pz      :     0.011605  p :     0.067366
      px      :     0.031334
      py      :     0.024427



                      *****************************
                      * MAYER POPULATION ANALYSIS *
                      *****************************

  NA   - Mulliken gross atomic population
  ZA   - Total nuclear charge
  QA   - Mulliken gross atomic charge
  VA   - Mayer's total valence
  BVA  - Mayer's bonded valence
  FA   - Mayer's free valence

  ATOM       NA         ZA         QA         VA         BVA        FA
  0 C      5.8327     6.0000     0.1673     4.0891     4.0891    -0.0000
  1 N      7.2947     7.0000    -0.2947     3.1274     3.1274    -0.0000
  2 C      5.8328     6.0000     0.1672     4.0895     4.0895    -0.0000
  3 N      7.2947     7.0000    -0.2947     3.1277     3.1277    -0.0000
  4 C      5.8327     6.0000     0.1673     4.0893     4.0893    -0.0000
  5 N      7.2948     7.0000    -0.2948     3.1274     3.1274    -0.0000
  6 C      6.0233     6.0000    -0.0233     3.8463     3.8463    -0.0000
  7 P     14.6183    15.0000     0.3817     4.7592     4.7592    -0.0000
  8 O      8.4441     8.0000    -0.4441     2.1277     2.1277    -0.0000
  9 C      6.0232     6.0000    -0.0232     3.8464     3.8464    -0.0000
 10 C      6.0236     6.0000    -0.0236     3.8464     3.8464    -0.0000
 11 H      0.9737     1.0000     0.0263     0.9920     0.9920    -0.0000
 12 H      0.9737     1.0000     0.0263     0.9890     0.9890    -0.0000
 13 H      0.9737     1.0000     0.0263     0.9890     0.9890    -0.0000
 14 H      0.9737     1.0000     0.0263     0.9920     0.9920    -0.0000
 15 H      0.9737     1.0000     0.0263     0.9921     0.9921    -0.0000
 16 H      0.9737     1.0000     0.0263     0.9890     0.9890    -0.0000
 17 H      0.9405     1.0000     0.0595     0.9881     0.9881    -0.0000
 18 H      0.9405     1.0000     0.0595     0.9881     0.9881    -0.0000
 19 H      0.9406     1.0000     0.0594     0.9880     0.9880    -0.0000
 20 H      0.9405     1.0000     0.0595     0.9881     0.9881    -0.0000
 21 H      0.9405     1.0000     0.0595     0.9881     0.9881    -0.0000
 22 H      0.9404     1.0000     0.0596     0.9880     0.9880    -0.0000

  Mayer bond orders larger than 0.100000
B(  0-C ,  1-N ) :   1.0333 B(  0-C ,  5-N ) :   1.0335 B(  0-C , 11-H ) :   0.9337 
B(  0-C , 12-H ) :   0.9324 B(  1-N ,  2-C ) :   1.0334 B(  1-N ,  9-C ) :   0.9663 
B(  2-C ,  3-N ) :   1.0335 B(  2-C , 13-H ) :   0.9324 B(  2-C , 14-H ) :   0.9336 
B(  3-N ,  4-C ) :   1.0336 B(  3-N , 10-C ) :   0.9662 B(  4-C ,  5-N ) :   1.0333 
B(  4-C , 15-H ) :   0.9336 B(  4-C , 16-H ) :   0.9324 B(  5-N ,  6-C ) :   0.9662 
B(  6-C ,  7-P ) :   0.8745 B(  6-C , 17-H ) :   0.9317 B(  6-C , 18-H ) :   0.9318 
B(  7-P ,  8-O ) :   1.9144 B(  7-P ,  9-C ) :   0.8743 B(  7-P , 10-C ) :   0.8742 
B(  9-C , 19-H ) :   0.9318 B(  9-C , 20-H ) :   0.9318 B( 10-C , 21-H ) :   0.9317 
B( 10-C , 22-H ) :   0.9318 

-------
TIMINGS
-------

Total SCF time: 0 days 0 hours 0 min 2 sec 

Total time                  ....       2.943 sec
Sum of individual times     ....       2.890 sec  ( 98.2%)

SCF preparation             ....       0.077 sec  (  2.6%)
Fock matrix formation       ....       2.585 sec  ( 87.8%)
  Startup                   ....       0.017 sec  (  0.7% of F)
  Split-RI-J                ....       0.719 sec  ( 27.8% of F)
  XC integration            ....       1.781 sec  ( 68.9% of F)
    Basis function eval.    ....       0.542 sec  ( 30.4% of XC)
    Density eval.           ....       0.476 sec  ( 26.7% of XC)
    XC-Functional eval.     ....       0.043 sec  (  2.4% of XC)
    XC-Potential eval.      ....       0.402 sec  ( 22.6% of XC)
Diagonalization             ....       0.000 sec  (  0.0%)
Density matrix formation    ....       0.034 sec  (  1.2%)
Total Energy calculation    ....       0.017 sec  (  0.6%)
Population analysis         ....       0.049 sec  (  1.7%)
Orbital Transformation      ....       0.014 sec  (  0.5%)
Orbital Orthonormalization  ....       0.000 sec  (  0.0%)
DIIS solution               ....       0.018 sec  (  0.6%)
SOSCF solution              ....       0.096 sec  (  3.3%)
Finished LeanSCF after   3.0 sec

Maximum memory used throughout the entire LEANSCF-calculation: 22.7 MB


-------------------------------------------------------------------------------
                          DFT DISPERSION CORRECTION                            
                                                                               
                              DFTD3 V3.1  Rev 1                                
                          USING Becke-Johnson damping                          
-------------------------------------------------------------------------------
The BP86 functional is recognized
Active option DFTDOPT                   ...         4   

molecular C6(AA) [au] = 5482.450890 


            DFT-D V3
 parameters
 s6 scaling factor         :     1.0000 
 a1 scaling factor         :     0.3946 
 s8 scaling factor         :     3.2822 
 a2 scaling factor         :     4.8516 
 ad hoc parameters k1-k3   :    16.0000     1.3333    -4.0000 

 Edisp/kcal,au: -31.554483431479  -0.050285264796 
 E6   /kcal   : -11.633817784 
 E8   /kcal   : -19.920665648 
 % E8         :  63.131014934 

-------------------------   ----------------
Dispersion correction           -0.050285265
-------------------------   ----------------


-------------------------   --------------------
FINAL SINGLE POINT ENERGY      -816.318669593695
-------------------------   --------------------

                                *** OPTIMIZATION RUN DONE ***



           ************************************************************
           *        Program running with 6 parallel MPI-processes     *
           *              working on a common directory               *
           ************************************************************

------------------------------------------------------------------------------
                              ORCA PROPERTY CALCULATIONS
------------------------------------------------------------------------------

GBWName                                 ... data/geom_opt_PO_BP86/143061/143061.gbw
Number of atoms                         ...     23
Number of basis functions               ...    218
Max core memory                         ...   1024 MB

Electric properties:
Dipole moment                           ... YES
Quadrupole moment                       ...  NO
Static polarizability (Dipole/Dipole)   ...  NO
Static polarizability (Dipole/Quad.)    ...  NO
Static polarizability (Quad./Quad.)     ...  NO
Static polarizability (Velocity)        ...  NO

Atomic electric properties:
Dipole moment                           ...  NO
Quadrupole moment                       ...  NO
Static polarizability                   ...  NO

Choice of electric origin               ... Center of mass
Position of electric origin             ...    -0.467874    -0.352221     0.395879

General magnetic properties:
Magnetizability                         ...  NO

EPR properties:
g-Tensor (aka g-matrix)                 ...  NO
Zero-Field splitting spin-orbit         ...  NO
Zero-field splitting spin-spin          ...  NO
Hyperfine couplings                     ...  NO (   0 nuclei)
Quadrupole couplings                    ...  NO (   0 nuclei)
Contact density                         ...  NO (   0 nuclei)

NMR properties:
Chemical shifts                         ...  NO (   0 nuclei)
Spin-rotation constants                 ...  NO (   0 nuclei)
Spin-spin couplings                     ...  NO (   0 nuclei,    0 pairs)

Choice of magnetic origin               ... GIAO
Position of magnetic origin             ...     0.000000     0.000000     0.000000

Properties with geometric perturbations:
SCF Hessian                             ...  NO
IR spectrum                             ...  NO
VCD spectrum                            ...  NO
X-ray spectroscopy properties:
SCF XES/XAS/RIXS spectra                ...  NO


-------------
DIPOLE MOMENT
-------------

Method             : SCF
Type of density    : Electron Density
Multiplicity       :   1
Irrep              :   0
Energy             :  -816.2683843288989465 Eh
Relativity type    : 
Basis              : AO
                                X                 Y                 Z
Electronic contribution:     -4.023203584      -3.027432258       3.404439335
Nuclear contribution   :      4.878636099       3.672918486      -4.127640988
                        -----------------------------------------
Total Dipole Moment    :      0.855432514       0.645486228      -0.723201653
                        -----------------------------------------
Magnitude (a.u.)       :      1.292841014
Magnitude (Debye)      :      3.286140705



--------------------
Rotational spectrum 
--------------------
 
Rotational constants in cm-1:             0.054561             0.033968             0.033967 
Rotational constants in MHz :          1635.696829          1018.348078          1018.294992 

Dipole components along the rotational axes: 
x,y,z [a.u.] :    -1.292839    -0.000373     0.002064 
x,y,z [Debye]:    -3.286136    -0.000949     0.005246 

 

Dipole moment calculation done in   0.0 sec 

Maximum memory used throughout the entire PROP-calculation: 11.0 MB

--------------------------------
SUGGESTED CITATIONS FOR THIS RUN
--------------------------------

Below you find a list of papers that are relevant to this ORCA run
We neither can nor want to force you to cite these papers, but we appreciate if you do
You receive ORCA, which is the product of decades of hard work by many enthusiastic individuals, for free
The only thing we kindly ask in return is that you cite our papers,
We deeply appreciate it, if you show your appreciation for ORCA by not just citing the generic ORCA reference.

Please note that relegating all ORCA citations to the supporting information does *not* help us.
SI sections are not indexed - citations you put there will not count into any citation statistics
But we need these citations in order to attract the funding resources that allow us to do what we are doing

Therefore, if you are a happy ORCA user, please consider citing a few of the papers listed below in the main body of your paper

In addition to the list printed below, the program has created the file data/geom_opt_PO_BP86/143061/143061.bibtex that contains the list in bibtex format
You can import this file easily into all common literature databanks and citation aid programs


List of essential papers. We consider these as the minimum necessary citations

  1. Neese,F.
     Software update: the ORCA program system, version 5.0
     WIRES Comput. Molec. Sci., 2022 12(1)e1606
     doi.org/10.1002/wcms.1606

List of papers to cite with high priority. The work reported in these papers was absolutely
necessary for this run to complete.
Our perspective: the developers of density functionals and basis sets usually get cited in chemistry papers
Good! But without the algorithms to do something with them, the functionals or basis sets would not do anything.
Hence, in our opinion, the algorithm design and method developments papers are equally worthy of getting cited

  1. Neese,F.
     An improvement of the resolution of the identity approximation for the formation of the Coulomb matrix
     J. Comp. Chem., 2003 24(14)1740-1747
     doi.org/10.1002/jcc.10318
  2. Neese,F.
     The SHARK Integral Generation and Digestion System
     J. Comp. Chem., 2022  1-16
     doi.org/10.1002/jcc.26942
  3. Grimme,S.; Antony,J.; Ehrlich,S.; Krieg,H.
     A consistent and accurate ab initio parametrization of density functional dispersion correction (DFT-D) for the 94 elements H-Pu
     J. Chem. Phys., 2010 132 154104-XXXX
     doi.org/10.1063/1.3382344
  4. Grimme,S.; Ehrlich,S.; Goerigk,L.
     Effect of the damping function in dispersion corrected density functional theory
     J. Comput. Chem., 2011 32(7)1456-1465
     doi.org/10.1002/jcc.21759

List of suggested additional citations. These are papers that are important in the 'surrounding' of 
of this run, or papers that preceded the highly important papers. If you like your results we are grateful for a citation.

  1. Neese,F.
     The ORCA program system
     WIRES Comput. Molec. Sci., 2012 2(1)73-78
     doi.org/10.1002/wcms.81
  2. Neese,F.
     Software update: the ORCA program system, version 4.0
     WIRES Comput. Molec. Sci., 2018 8(1)1-6
     doi.org/10.1002/wcms.1327
  3. Neese,F.; Wennmohs,F.; Becker,U.; Riplinger,C.
     The ORCA quantum chemistry program package
     J. Chem. Phys., 2020 152 Art. No. L224108
     doi.org/10.1063/5.0004608

List of optional additional citations

  1. Neese,F.
     Approximate second-order SCF convergence for spin unrestricted wavefunctions
     Chem. Phys. Lett., 2000 325(1-3)93-98
     doi.org/10.1016/s0009-2614(00)00662-x

Timings for individual modules:

Sum of individual times          ...       53.200 sec (=   0.887 min)
Startup calculation              ...        5.481 sec (=   0.091 min)  10.3 %
SCF iterations                   ...       30.270 sec (=   0.504 min)  56.9 %
Property calculations            ...        0.141 sec (=   0.002 min)   0.3 %
SCF Gradient evaluation          ...       17.240 sec (=   0.287 min)  32.4 %
Geometry relaxation              ...        0.068 sec (=   0.001 min)   0.1 %
                             ****ORCA TERMINATED NORMALLY****
TOTAL RUN TIME: 0 days 0 hours 0 minutes 54 seconds 448 msec
