
                                 *****************
                                 * O   R   C   A *
                                 *****************

                                            #,                                       
                                            ###                                      
                                            ####                                     
                                            #####                                    
                                            ######                                   
                                           ########,                                 
                                     ,,################,,,,,                         
                               ,,#################################,,                 
                          ,,##########################################,,             
                       ,#########################################, ''#####,          
                    ,#############################################,,   '####,        
                  ,##################################################,,,,####,       
                ,###########''''           ''''###############################       
              ,#####''   ,,,,##########,,,,          '''####'''          '####       
            ,##' ,,,,###########################,,,                        '##       
           ' ,,###''''                  '''############,,,                           
         ,,##''                                '''############,,,,        ,,,,,,###''
      ,#''                                            '''#######################'''  
     '                                                          ''''####''''         
             ,#######,   #######,   ,#######,      ##                                
            ,#'     '#,  ##    ##  ,#'     '#,    #''#        ,####,   ,####,        
            ##       ##  ##   ,#'  ##            #'  '#       #'       #'  '#        
            ##       ##  #######   ##           ,######,      #####,   #    #        
            '#,     ,#'  ##    ##  '#,     ,#' ,#      #,     #,   #   #,  ,#        
             '#######'   ##     ##  '#######'  #'      '#     '####' # '####'        



                #########################################################
                #                        -***-                          #
                #          Department of theory and spectroscopy        #
                #                                                       #
                #                      Frank Neese                      #
                #                                                       #
                #     Directorship, Architecture, Infrastructure        #
                #                    SHARK, DRIVERS                     #
                #        Core code/Algorithms in most modules           #
                #                                                       #
                #        Max Planck Institute fuer Kohlenforschung      #
                #                Kaiser Wilhelm Platz 1                 #
                #                 D-45470 Muelheim/Ruhr                 #
                #                      Germany                          #
                #                                                       #
                #                  All rights reserved                  #
                #                        -***-                          #
                #########################################################


                         Program Version 6.0.0  -   RELEASE   -


 With contributions from (in alphabetic order):
   Daniel Aravena         : Magnetic Suceptibility
   Michael Atanasov       : Ab Initio Ligand Field Theory (pilot matlab implementation)
   Alexander A. Auer      : GIAO ZORA, VPT2 properties, NMR spectrum
   Ute Becker             : All parallelization in ORCA, NUMFREQ, NUMCALC
   Giovanni Bistoni       : ED, misc. LED, open-shell LED, HFLD
   Martin Brehm           : Molecular dynamics
   Dmytro Bykov           : pre 5.0 version of the SCF Hessian
   Marcos Casanova-Páez   : Triplet and SCS-CIS(D). UHF-(DLPNO)-IP/EA/STEOM-CCSD. UHF-CVS-IP/STEOM-CCSD
   Vijay G. Chilkuri      : MRCI spin determinant printing, contributions to CSF-ICE
   Pauline Colinet        : FMM embedding
   Dipayan Datta          : RHF DLPNO-CCSD density
   Achintya Kumar Dutta   : EOM-CC, STEOM-CC
   Nicolas Foglia         : Exact transition moments, OPA infrastructure, MCD improvements
   Dmitry Ganyushin       : Spin-Orbit,Spin-Spin,Magnetic field MRCI
   Miquel Garcia          : C-PCM and meta-GGA Hessian, CCSD/C-PCM, Gaussian charge scheme
   Tiago L. C. Gouveia    : GS-ROHF, GS-ROCIS
   Yang Guo               : DLPNO-NEVPT2, F12-NEVPT2, CIM, IAO-localization
   Andreas Hansen         : Spin unrestricted coupled pair/coupled cluster methods
   Ingolf Harden          : AUTO-CI MPn and infrastructure 
   Benjamin Helmich-Paris : MC-RPA, TRAH-(SCF,CASSCF), AVAS, COSX integrals, SCF dyn. polar.
   Lee Huntington         : MR-EOM, pCC
   Robert Izsak           : Overlap fitted RIJCOSX, COSX-SCS-MP3, EOM
   Riya Kayal             : Wick's Theorem for AUTO-CI, AUTO-CI UHF-CCSDT
   Emily Kempfer          : AUTO-CI, RHF CISDT and CCSDT
   Christian Kollmar      : KDIIS, OOCD, Brueckner-CCSD(T), CCSD density, CASPT2, CASPT2-K, improved NEVPT2
   Axel Koslowski         : Symmetry handling
   Simone Kossmann        : Meta GGA functionals, TD-DFT gradient, OOMP2, (MP2 Hessian; deprecated post 5.0)
   Lucas Lang             : DCDCAS
   Marvin Lechner         : AUTO-CI (C++ implementation), FIC-MRCC
   Spencer Leger          : CASSCF response
   Dagmar Lenk            : GEPOL surface, SMD, ORCA-2-JSON
   Dimitrios Liakos       : Extrapolation schemes; Compound Job, initial MDCI parallelization
   Dimitrios Manganas     : Further ROCIS development; embedding schemes. LFT, Crystal Embedding
   Dimitrios Pantazis     : SARC Basis sets
   Anastasios Papadopoulos: AUTO-CI, single reference methods and gradients
   Taras Petrenko         : pre 6.0 DFT Hessian and TD-DFT gradient, (ASA, deprecated), ECA, 1-Electron XAS/XES, NRVS
   Peter Pinski           : DLPNO-MP2, DLPNO-MP2 Gradient
   Christoph Reimann      : Effective Core Potentials
   Marius Retegan         : Local ZFS, SOC
   Christoph Riplinger    : Optimizer, TS searches, QM/MM, DLPNO-CCSD(T), (RO)-DLPNO pert. Triples
   Michael Roemelt        : Original ROCIS implementation
   Masaaki Saitow         : Open-shell DLPNO-CCSD energy and density
   Barbara Sandhoefer     : DKH picture change effects
   Kantharuban Sivalingam : CASSCF convergence/infrastructure, NEVPT2 and variants, FIC-MRCI
   Bernardo de Souza      : ESD, SOC TD-DFT
   Georgi Stoychev        : AutoAux, RI-MP2 NMR, DLPNO-MP2 response, X2C
   Van Anh Tran           : RI-MP2 g-tensors
   Willem Van den Heuvel  : Paramagnetic NMR
   Zikuan Wang            : NOTCH, Electric field optimization 
   Frank Wennmohs         : Technical directorship and infrastructure
   Hang Xu                : AUTO-CI-Response properties 


 We gratefully acknowledge several colleagues who have allowed us to
 interface, adapt or use parts of their codes:
   Stefan Grimme, W. Hujo, H. Kruse, P. Pracht,  : VdW corrections, initial TS optimization,
                  C. Bannwarth, S. Ehlert,         DFT functionals, gCP, sTDA/sTD-DF
                  L. Wittmann, M. Mueller
   Ed Valeev, F. Pavosevic, A. Kumar             : LibInt (2-el integral package), F12 methods
   Garnet Chan, S. Sharma, J. Yang, R. Olivares  : DMRG
   Ulf Ekstrom                                   : XCFun DFT Library
   Mihaly Kallay                                 : mrcc  (arbitrary order and MRCC methods)
   Frank Weinhold                                : gennbo (NPA and NBO analysis)
   Simon Mueller                                 : openCOSMO-RS
   Christopher J. Cramer and Donald G. Truhlar   : smd solvation model
   Lars Goerigk                                  : TD-DFT with DH, B97 family of functionals
   V. Asgeirsson, H. Jonsson                     : NEB implementation
   FAccTs GmbH                                   : IRC, NEB, NEB-TS, DLPNO-Multilevel, CI-OPT
                                                   MM, QMMM, 2- and 3-layer-ONIOM, Crystal-QMMM,
                                                   LR-CPCM, SF, NACMEs, symmetry and pop. for TD-DFT,
                                                   nearIR, NL-DFT gradient (VV10), updates on ESD,
                                                   ML-optimized integration grids, MBIS, APM,
                                                   GOAT, DOCKER, SOLVATOR, interface openCOSMO-RS
   S Lehtola, MJT Oliveira, MAL Marques          : LibXC Library
   Liviu Ungur et al                             : ANISO software


 Your calculation uses the libint2 library for the computation of 2-el integrals
 For citations please refer to: http://libint.valeyev.net

 Your ORCA version has been built with support for libXC version: 6.2.2
 For citations please refer to: https://libxc.gitlab.io

 This ORCA versions uses:
   CBLAS   interface :  Fast vector & matrix operations
   LAPACKE interface :  Fast linear algebra routines
   Shared memory     :  Shared parallel matrices


Your calculation utilizes the atom-pairwise dispersion correction
with the Becke-Johnson damping scheme (D3BJ)


Warning: RI is on but no J-basis has been assigned. Assigning Def2/J (nothing to worry about!)
================================================================================

----- Orbital basis set information -----
Your calculation utilizes the basis: def2-SVP
   F. Weigend and R. Ahlrichs, Phys. Chem. Chem. Phys. 7, 3297 (2005).

----- AuxJ basis set information -----
Your calculation utilizes the auxiliary basis: def2/J
   F. Weigend, Phys. Chem. Chem. Phys. 8, 1057 (2006).

================================================================================
                                        WARNINGS
                       Please study these warnings very carefully!
================================================================================


WARNING: Geometry Optimization
  ===> : Switching off AutoStart
         For restart on a previous wavefunction, please use MOREAD

================================================================================
                                       INPUT FILE
================================================================================
NAME = data/geom_opt_P_BP86/143061/143061.inp
|  1> ! RI BP86 def2-SVP D3BJ TIGHTSCF Opt
|  2> %pal
|  3> nprocs 6
|  4> end
|  5> 
|  6> * xyz 0 1
|  7> C     -0.354281    1.604614   -0.251965
|  8> N     -0.985615    0.761620    0.745860
|  9> C     -1.612444   -0.386852    0.118983
| 10> N     -0.630079   -1.144464   -0.633253
| 11> C      0.002039   -0.305674   -1.634120
| 12> N      0.625315    0.842619   -1.003385
| 13> C      1.799489    0.499333   -0.226224
| 14> P      1.232683   -0.572262    1.108714
| 15> C     -0.098406    0.403905    1.834625
| 16> C      0.320463   -1.841722    0.209842
| 17> H      0.100204    2.492767    0.207708
| 18> H     -1.114465    2.010864   -0.933228
| 19> H     -2.419228   -0.054364   -0.548541
| 20> H     -2.118213   -1.018622    0.861772
| 21> H     -0.744947    0.029821   -2.366577
| 22> H      0.728473   -0.875488   -2.229332
| 23> H      2.284114    1.402622    0.161093
| 24> H      2.545809   -0.000364   -0.854012
| 25> H     -0.638180   -0.160458    2.603355
| 26> H      0.285860    1.302148    2.330917
| 27> H      0.988573   -2.465211   -0.394888
| 28> H     -0.197162   -2.524831    0.892656
| 29> **                         ****END OF INPUT****
================================================================================

                       *****************************
                       * Geometry Optimization Run *
                       *****************************

Geometry optimization settings:
Update method            Update   .... BFGS
Choice of coordinates    CoordSys .... (2022) Redundant Internals
Initial Hessian          InHess   .... Almloef's Model
Max. no of cycles        MaxIter  .... 66

Convergence Tolerances:
Energy Change            TolE     ....  5.0000e-06 Eh
Max. Gradient            TolMAXG  ....  3.0000e-04 Eh/bohr
RMS Gradient             TolRMSG  ....  1.0000e-04 Eh/bohr
Max. Displacement        TolMAXD  ....  4.0000e-03 bohr
RMS Displacement         TolRMSD  ....  2.0000e-03 bohr
Strict Convergence                .... False

------------------------------------------------------------------------------
                        ORCA OPTIMIZATION COORDINATE SETUP
------------------------------------------------------------------------------

The optimization will be done in redundant internal coordinates (2022)
Making redundant internal coordinates   ...  (2022 redundants) done
Evaluating the initial hessian          ...  (Almloef) done
Evaluating the coordinates              ...  done
Calculating the B-matrix                .... done
Calculating the G-matrix                .... done
Diagonalizing the G-matrix              .... done
The first mode is                       ....   72
The number of degrees of freedom        ....   60

    -----------------------------------------------------------------
                    Redundant Internal Coordinates


    -----------------------------------------------------------------
         Definition                    Initial Value    Approx d2E/dq
    -----------------------------------------------------------------
      1. B(N   1,C   0)                  1.4508         0.447551   
      2. B(C   2,N   1)                  1.4508         0.447550   
      3. B(N   3,C   2)                  1.4508         0.447551   
      4. B(C   4,N   3)                  1.4508         0.447551   
      5. B(N   5,C   4)                  1.4508         0.447551   
      6. B(N   5,C   0)                  1.4508         0.447551   
      7. B(C   6,N   5)                  1.4493         0.450034   
      8. B(P   7,C   6)                  1.8032         0.460201   
      9. B(C   8,P   7)                  1.8032         0.460200   
     10. B(C   8,N   1)                  1.4493         0.450034   
     11. B(C   9,P   7)                  1.8032         0.460201   
     12. B(C   9,N   3)                  1.4493         0.450034   
     13. B(H  10,C   0)                  1.0985         0.349047   
     14. B(H  11,C   0)                  1.0987         0.348833   
     15. B(H  12,C   2)                  1.0987         0.348834   
     16. B(H  13,C   2)                  1.0985         0.349047   
     17. B(H  14,C   4)                  1.0987         0.348833   
     18. B(H  15,C   4)                  1.0985         0.349047   
     19. B(H  16,C   6)                  1.0958         0.352491   
     20. B(H  17,C   6)                  1.0958         0.352490   
     21. B(H  18,C   8)                  1.0958         0.352491   
     22. B(H  19,C   8)                  1.0958         0.352491   
     23. B(H  20,C   9)                  1.0958         0.352491   
     24. B(H  21,C   9)                  1.0958         0.352490   
     25. A(N   1,C   0,N   5)          110.1730         0.381853   
     26. A(N   5,C   0,H  11)          109.8913         0.330381   
     27. A(N   1,C   0,H  11)          109.8912         0.330381   
     28. A(N   1,C   0,H  10)          111.2248         0.330415   
     29. A(N   5,C   0,H  10)          111.2247         0.330415   
     30. A(H  10,C   0,H  11)          104.2876         0.287983   
     31. A(C   0,N   1,C   2)          110.5359         0.381853   
     32. A(C   0,N   1,C   8)          113.1847         0.382220   
     33. A(C   2,N   1,C   8)          113.1848         0.382220   
     34. A(N   3,C   2,H  13)          111.2248         0.330415   
     35. A(N   1,C   2,H  13)          111.2247         0.330415   
     36. A(N   3,C   2,H  12)          109.8913         0.330381   
     37. A(N   1,C   2,H  12)          109.8913         0.330381   
     38. A(H  12,C   2,H  13)          104.2876         0.287984   
     39. A(N   1,C   2,N   3)          110.1730         0.381853   
     40. A(C   2,N   3,C   4)          110.5360         0.381853   
     41. A(C   4,N   3,C   9)          113.1848         0.382220   
     42. A(C   2,N   3,C   9)          113.1848         0.382220   
     43. A(N   5,C   4,H  14)          109.8913         0.330381   
     44. A(N   3,C   4,H  14)          109.8913         0.330381   
     45. A(N   3,C   4,N   5)          110.1730         0.381853   
     46. A(H  14,C   4,H  15)          104.2876         0.287983   
     47. A(N   3,C   4,H  15)          111.2248         0.330415   
     48. A(N   5,C   4,H  15)          111.2248         0.330415   
     49. A(C   0,N   5,C   6)          113.1848         0.382220   
     50. A(C   0,N   5,C   4)          110.5360         0.381853   
     51. A(C   4,N   5,C   6)          113.1848         0.382220   
     52. A(H  16,C   6,H  17)          106.0919         0.288897   
     53. A(N   5,C   6,H  17)          110.6451         0.331255   
     54. A(N   5,C   6,P   7)          106.4437         0.411802   
     55. A(P   7,C   6,H  16)          111.5435         0.355362   
     56. A(N   5,C   6,H  16)          110.6450         0.331255   
     57. A(P   7,C   6,H  17)          111.5435         0.355361   
     58. A(C   6,P   7,C   8)          102.0253         0.443924   
     59. A(C   8,P   7,C   9)          102.0253         0.443924   
     60. A(C   6,P   7,C   9)          102.0253         0.443924   
     61. A(N   1,C   8,P   7)          106.4437         0.411802   
     62. A(P   7,C   8,H  19)          111.5436         0.355361   
     63. A(N   1,C   8,H  19)          110.6450         0.331255   
     64. A(P   7,C   8,H  18)          111.5435         0.355361   
     65. A(N   1,C   8,H  18)          110.6450         0.331255   
     66. A(H  18,C   8,H  19)          106.0919         0.288898   
     67. A(H  20,C   9,H  21)          106.0919         0.288897   
     68. A(P   7,C   9,H  21)          111.5435         0.355361   
     69. A(N   3,C   9,H  21)          110.6451         0.331255   
     70. A(P   7,C   9,H  20)          111.5435         0.355361   
     71. A(N   3,C   9,H  20)          110.6450         0.331255   
     72. A(N   3,C   9,P   7)          106.4437         0.411802   
     73. D(C   2,N   1,C   0,N   5)    -57.7690         0.017085   
     74. D(C   2,N   1,C   0,H  11)     63.4560         0.017085   
     75. D(C   2,N   1,C   0,H  10)    178.4211         0.017085   
     76. D(C   8,N   1,C   0,H  10)    -53.4243         0.017085   
     77. D(C   8,N   1,C   0,N   5)     70.3855         0.017085   
     78. D(H  12,C   2,N   1,C   0)    -63.4560         0.017085   
     79. D(H  12,C   2,N   1,C   8)    168.3895         0.017085   
     80. D(N   3,C   2,N   1,C   0)     57.7690         0.017085   
     81. D(H  13,C   2,N   1,C   0)   -178.4211         0.017085   
     82. D(N   3,C   2,N   1,C   8)    -70.3855         0.017085   
     83. D(C   4,N   3,C   2,H  12)     63.4559         0.017085   
     84. D(C   9,N   3,C   2,H  12)   -168.3895         0.017085   
     85. D(C   4,N   3,C   2,H  13)    178.4211         0.017085   
     86. D(C   9,N   3,C   2,N   1)     70.3855         0.017085   
     87. D(C   4,N   3,C   2,N   1)    -57.7691         0.017085   
     88. D(H  15,C   4,N   3,C   2)   -178.4211         0.017085   
     89. D(H  14,C   4,N   3,C   9)    168.3895         0.017085   
     90. D(H  14,C   4,N   3,C   2)    -63.4559         0.017085   
     91. D(N   5,C   4,N   3,C   9)    -70.3856         0.017085   
     92. D(N   5,C   4,N   3,C   2)     57.7690         0.017085   
     93. D(C   6,N   5,C   4,H  14)   -168.3895         0.017085   
     94. D(C   0,N   5,C   4,H  15)    178.4211         0.017085   
     95. D(C   0,N   5,C   4,N   3)    -57.7690         0.017085   
     96. D(C   6,N   5,C   4,N   3)     70.3856         0.017085   
     97. D(C   6,N   5,C   0,H  10)     53.4244         0.017085   
     98. D(C   0,N   5,C   4,H  14)     63.4560         0.017085   
     99. D(C   6,N   5,C   0,N   1)    -70.3855         0.017085   
    100. D(C   4,N   5,C   0,H  11)    -63.4559         0.017085   
    101. D(C   4,N   5,C   0,H  10)   -178.4210         0.017085   
    102. D(C   4,N   5,C   0,N   1)     57.7691         0.017085   
    103. D(P   7,C   6,N   5,C   0)     63.3838         0.017277   
    104. D(H  17,C   6,N   5,C   0)   -175.2609         0.017277   
    105. D(H  16,C   6,N   5,C   4)    175.2609         0.017277   
    106. D(H  16,C   6,N   5,C   0)    -57.9716         0.017277   
    107. D(P   7,C   6,N   5,C   4)    -63.3838         0.017277   
    108. D(C   9,P   7,C   6,H  16)    173.4093         0.004392   
    109. D(C   9,P   7,C   6,N   5)     52.6292         0.004392   
    110. D(C   8,P   7,C   6,H  17)   -173.4093         0.004392   
    111. D(C   8,P   7,C   6,H  16)     68.1508         0.004392   
    112. D(C   8,P   7,C   6,N   5)    -52.6293         0.004392   
    113. D(H  19,C   8,P   7,C   6)    -68.1508         0.004392   
    114. D(H  18,C   8,P   7,C   9)     68.1508         0.004392   
    115. D(H  18,C   8,P   7,C   6)    173.4093         0.004392   
    116. D(N   1,C   8,P   7,C   9)    -52.6292         0.004392   
    117. D(N   1,C   8,P   7,C   6)     52.6293         0.004392   
    118. D(H  19,C   8,N   1,C   0)     57.9717         0.017277   
    119. D(H  18,C   8,N   1,C   2)    -57.9716         0.017277   
    120. D(H  18,C   8,N   1,C   0)    175.2609         0.017277   
    121. D(P   7,C   8,N   1,C   2)     63.3837         0.017277   
    122. D(P   7,C   8,N   1,C   0)    -63.3838         0.017277   
    123. D(H  21,C   9,P   7,C   6)   -173.4093         0.004392   
    124. D(H  20,C   9,P   7,C   6)     68.1508         0.004392   
    125. D(N   3,C   9,P   7,C   8)     52.6293         0.004392   
    126. D(N   3,C   9,P   7,C   6)    -52.6292         0.004392   
    127. D(H  21,C   9,N   3,C   2)     57.9716         0.017277   
    128. D(H  20,C   9,N   3,C   4)    -57.9716         0.017277   
    129. D(H  20,C   9,N   3,C   2)    175.2608         0.017277   
    130. D(H  20,C   9,P   7,C   8)    173.4093         0.004392   
    131. D(P   7,C   9,N   3,C   4)     63.3838         0.017277   
    132. D(P   7,C   9,N   3,C   2)    -63.3838         0.017277   
    -----------------------------------------------------------------

Number of atoms                         .... 22
Number of degrees of freedom            .... 132


         *************************************************************
         *                GEOMETRY OPTIMIZATION CYCLE   1            *
         *************************************************************
---------------------------------
CARTESIAN COORDINATES (ANGSTROEM)
---------------------------------
  C     -0.354281    1.604614   -0.251965
  N     -0.985615    0.761620    0.745860
  C     -1.612444   -0.386852    0.118983
  N     -0.630079   -1.144464   -0.633253
  C      0.002039   -0.305674   -1.634120
  N      0.625315    0.842619   -1.003385
  C      1.799489    0.499333   -0.226224
  P      1.232683   -0.572262    1.108714
  C     -0.098406    0.403905    1.834625
  C      0.320463   -1.841722    0.209842
  H      0.100204    2.492767    0.207708
  H     -1.114465    2.010864   -0.933228
  H     -2.419228   -0.054364   -0.548541
  H     -2.118213   -1.018622    0.861772
  H     -0.744947    0.029821   -2.366577
  H      0.728473   -0.875488   -2.229332
  H      2.284114    1.402622    0.161093
  H      2.545809   -0.000364   -0.854012
  H     -0.638180   -0.160458    2.603355
  H      0.285860    1.302148    2.330917
  H      0.988573   -2.465211   -0.394888
  H     -0.197162   -2.524831    0.892656

----------------------------
CARTESIAN COORDINATES (A.U.)
----------------------------
  NO LB      ZA    FRAG     MASS         X           Y           Z
   0 C     6.0000    0    12.011   -0.669494    3.032281   -0.476145
   1 N     7.0000    0    14.007   -1.862542    1.439253    1.409471
   2 C     6.0000    0    12.011   -3.047078   -0.731044    0.224845
   3 N     7.0000    0    14.007   -1.190677   -2.162724   -1.196675
   4 C     6.0000    0    12.011    0.003853   -0.577640   -3.088039
   5 N     7.0000    0    14.007    1.181674    1.592319   -1.896123
   6 C     6.0000    0    12.011    3.400541    0.943603   -0.427501
   7 P    15.0000    0    30.974    2.329433   -1.081418    2.095166
   8 C     6.0000    0    12.011   -0.185960    0.763270    3.466939
   9 C     6.0000    0    12.011    0.605587   -3.480350    0.396544
  10 H     1.0000    0     1.008    0.189358    4.710647    0.392511
  11 H     1.0000    0     1.008   -2.106034    3.799982   -1.763545
  12 H     1.0000    0     1.008   -4.571678   -0.102733   -1.036592
  13 H     1.0000    0     1.008   -4.002842   -1.924917    1.628513
  14 H     1.0000    0     1.008   -1.407746    0.056354   -4.472182
  15 H     1.0000    0     1.008    1.376614   -1.654433   -4.212827
  16 H     1.0000    0     1.008    4.316350    2.650571    0.304422
  17 H     1.0000    0     1.008    4.810882   -0.000688   -1.613849
  18 H     1.0000    0     1.008   -1.205985   -0.303222    4.919628
  19 H     1.0000    0     1.008    0.540197    2.460703    4.404795
  20 H     1.0000    0     1.008    1.868132   -4.658574   -0.746230
  21 H     1.0000    0     1.008   -0.372582   -4.771239    1.686875

--------------------------------
INTERNAL COORDINATES (ANGSTROEM)
--------------------------------
 C      0   0   0     0.000000000000     0.00000000     0.00000000
 N      1   0   0     1.450819159722     0.00000000     0.00000000
 C      2   1   0     1.450819528113   110.53593917     0.00000000
 N      3   2   1     1.450819056762   110.17304672    57.76903061
 C      4   3   2     1.450819279481   110.53598784   302.23092811
 N      5   4   3     1.450819225903   110.17299195    57.76904855
 C      6   5   4     1.449313313260   113.18475847    70.38555663
 P      7   6   5     1.803231640557   106.44369655   296.61621024
 C      2   1   3     1.449313305028   113.18473368   128.15453760
 C      4   3   2     1.449312937689   113.18475591    70.38553425
 H      1   2   3     1.098486064346   111.22481687   178.42111748
 H      1   2   3     1.098652834850   109.89123593    63.45601960
 H      3   2   1     1.098652348733   109.89125254   296.54403263
 H      3   2   1     1.098485827301   111.22470881   181.57892710
 H      5   4   3     1.098652918837   109.89127220   296.54406709
 H      5   4   3     1.098486083615   111.22479532   181.57894358
 H      7   6   5     1.095813335671   110.64504197   175.26087831
 H      7   6   5     1.095814038582   110.64506282    57.97152717
 H      9   2   1     1.095813569794   110.64502992   175.26091780
 H      9   2   1     1.095813211761   110.64501924    57.97165607
 H     10   4   3     1.095813797194   110.64500745   175.26083147
 H     10   4   3     1.095814083274   110.64506011    57.97156408

---------------------------
INTERNAL COORDINATES (A.U.)
---------------------------
 C      0   0   0     0.000000000000     0.00000000     0.00000000
 N      1   0   0     2.741650881721     0.00000000     0.00000000
 C      2   1   0     2.741651577878   110.53593917     0.00000000
 N      3   2   1     2.741650687155   110.17304672    57.76903061
 C      4   3   2     2.741651108032   110.53598784   302.23092811
 N      5   4   3     2.741651006784   110.17299195    57.76904855
 C      6   5   4     2.738805244308   113.18475847    70.38555663
 P      7   6   5     3.407613956674   106.44369655   296.61621024
 C      2   1   3     2.738805228751   113.18473368   128.15453760
 C      4   3   2     2.738804534581   113.18475591    70.38553425
 H      1   2   3     2.075837823543   111.22481687   178.42111748
 H      1   2   3     2.076152974124   109.89123593    63.45601960
 H      3   2   1     2.076152055494   109.89125254   296.54403263
 H      3   2   1     2.075837375594   111.22470881   181.57892710
 H      5   4   3     2.076153132836   109.89127220   296.54406709
 H      5   4   3     2.075837859956   111.22479532   181.57894358
 H      7   6   5     2.070787098317   110.64504197   175.26087831
 H      7   6   5     2.070788426626   110.64506282    57.97152717
 H      9   2   1     2.070787540746   110.64502992   175.26091780
 H      9   2   1     2.070786864160   110.64501924    57.97165607
 H     10   4   3     2.070787970469   110.64500745   175.26083147
 H     10   4   3     2.070788511082   110.64506011    57.97156408

---------------------
BASIS SET INFORMATION
---------------------
There are 4 groups of distinct atoms

 Group   1 Type C   : 7s4p1d contracted to 3s2p1d pattern {511/31/1}
 Group   2 Type N   : 7s4p1d contracted to 3s2p1d pattern {511/31/1}
 Group   3 Type P   : 10s7p1d contracted to 4s3p1d pattern {5311/511/1}
 Group   4 Type H   : 4s1p contracted to 2s1p pattern {31/1}

Atom   0C    basis set group =>   1
Atom   1N    basis set group =>   2
Atom   2C    basis set group =>   1
Atom   3N    basis set group =>   2
Atom   4C    basis set group =>   1
Atom   5N    basis set group =>   2
Atom   6C    basis set group =>   1
Atom   7P    basis set group =>   3
Atom   8C    basis set group =>   1
Atom   9C    basis set group =>   1
Atom  10H    basis set group =>   4
Atom  11H    basis set group =>   4
Atom  12H    basis set group =>   4
Atom  13H    basis set group =>   4
Atom  14H    basis set group =>   4
Atom  15H    basis set group =>   4
Atom  16H    basis set group =>   4
Atom  17H    basis set group =>   4
Atom  18H    basis set group =>   4
Atom  19H    basis set group =>   4
Atom  20H    basis set group =>   4
Atom  21H    basis set group =>   4
---------------------------------
AUXILIARY/J BASIS SET INFORMATION
---------------------------------
There are 4 groups of distinct atoms

 Group   1 Type C   : 12s5p4d2f1g contracted to 6s4p3d1f1g pattern {711111/2111/211/2/1}
 Group   2 Type N   : 12s5p4d2f1g contracted to 6s4p3d1f1g pattern {711111/2111/211/2/1}
 Group   3 Type P   : 14s5p5d2f1g contracted to 8s4p3d1f1g pattern {71111111/2111/311/2/1}
 Group   4 Type H   : 5s2p1d contracted to 3s1p1d pattern {311/2/1}

Atom   0C    basis set group =>   1
Atom   1N    basis set group =>   2
Atom   2C    basis set group =>   1
Atom   3N    basis set group =>   2
Atom   4C    basis set group =>   1
Atom   5N    basis set group =>   2
Atom   6C    basis set group =>   1
Atom   7P    basis set group =>   3
Atom   8C    basis set group =>   1
Atom   9C    basis set group =>   1
Atom  10H    basis set group =>   4
Atom  11H    basis set group =>   4
Atom  12H    basis set group =>   4
Atom  13H    basis set group =>   4
Atom  14H    basis set group =>   4
Atom  15H    basis set group =>   4
Atom  16H    basis set group =>   4
Atom  17H    basis set group =>   4
Atom  18H    basis set group =>   4
Atom  19H    basis set group =>   4
Atom  20H    basis set group =>   4
Atom  21H    basis set group =>   4


           ************************************************************
           *        Program running with 6 parallel MPI-processes     *
           *              working on a common directory               *
           ************************************************************
------------------------------------------------------------------------------
                             ORCA STARTUP CALCULATIONS
                           -- RI-GTO INTEGRALS CHOSEN --
------------------------------------------------------------------------------
------------------------------------------------------------------------------
                   ___                                                        
                  /   \      - P O W E R E D   B Y -                         
                 /     \                                                     
                 |  |  |   _    _      __       _____    __    __             
                 |  |  |  | |  | |    /  \     |  _  \  |  |  /  |          
                  \  \/   | |  | |   /    \    | | | |  |  | /  /          
                 / \  \   | |__| |  /  /\  \   | |_| |  |  |/  /          
                |  |  |   |  __  | /  /__\  \  |    /   |      \           
                |  |  |   | |  | | |   __   |  |    \   |  |\   \          
                \     /   | |  | | |  |  |  |  | |\  \  |  | \   \       
                 \___/    |_|  |_| |__|  |__|  |_| \__\ |__|  \__/        
                                                                              
                      - O R C A' S   B I G   F R I E N D -                    
                                      &                                       
                       - I N T E G R A L  F E E D E R -                       
                                                                              
 v1 FN, 2020, v2 2021, v3 2022-2024                                           
------------------------------------------------------------------------------


----------------------
SHARK INTEGRAL PACKAGE
----------------------

Number of atoms                             ...     22
Number of basis functions                   ...    204
Number of shells                            ...     98
Maximum angular momentum                    ...      2
Integral batch strategy                     ... SHARK/LIBINT Hybrid
RI-J (if used) integral strategy            ... SPLIT-RIJ (Revised 2003 algorithm where possible)
Printlevel                                  ...      1
Contraction scheme used                     ... SEGMENTED contraction
Prescreening option                         ... SCHWARTZ
   Thresh                                   ... 2.500e-11
   Tcut                                     ... 2.500e-12
   Tpresel                                  ... 2.500e-12 
Coulomb Range Separation                    ... NOT USED
Exchange Range Separation                   ... NOT USED
Multipole approximations                    ... NOT USED
Finite Nucleus Model                        ... NOT USED
CABS basis                                  ... NOT available
Auxiliary Coulomb fitting basis             ... AVAILABLE
   # of basis functions in Aux-J            ...    624
   # of shells in Aux-J                     ...    212
   Maximum angular momentum in Aux-J        ...      4
Auxiliary J/K fitting basis                 ... NOT available
Auxiliary Correlation fitting basis         ... NOT available
Auxiliary 'external' fitting basis          ... NOT available

Checking pre-screening integrals            ... done (  0.0 sec) Dimension = 98
Check shell pair data                       ... done (  0.0 sec)
Shell pair information
Shell pair cut-off parameter TPreSel        ...   2.5e-12
Total number of shell pairs                 ...      4851
Shell pairs after pre-screening             ...      4728
Total number of primitive shell pairs       ...     17567
Primitive shell pairs kept                  ...     12566
          la=0 lb=0:   1483 shell pairs
          la=1 lb=0:   1767 shell pairs
          la=1 lb=1:    543 shell pairs
          la=2 lb=0:    550 shell pairs
          la=2 lb=1:    330 shell pairs
          la=2 lb=2:     55 shell pairs

Calculating one electron integrals          ... done (  0.0 sec)
Calculating RI/J V-Matrix + Cholesky decomp.... done (  0.0 sec)
Calculating Nuclear repulsion               ... done (  0.0 sec) ENN=    724.067674403381 Eh

Diagonalization of the overlap matrix:
Smallest eigenvalue                        ... 1.049e-03
Time for diagonalization                   ...    0.004 sec
Threshold for overlap eigenvalues          ... 1.000e-07
Number of eigenvalues below threshold      ... 0
Time for construction of square roots      ...    0.004 sec
Total time needed                          ...    0.009 sec

-------------------
DFT GRID GENERATION
-------------------

General Integration Accuracy     IntAcc      ... 4.388
Radial Grid Type                 RadialGrid  ... OptM3 with GC (2021)
Angular Grid (max. ang.)         AngularGrid ... 4 (Lebedev-302)
Angular grid pruning method      GridPruning ... 4 (adaptive)
Weight generation scheme         WeightScheme... mBecke (2022)
Basis function cutoff            BFCut       ... 1.0000e-11
Integration weight cutoff        WCut        ... 1.0000e-14
Partially contracted basis set               ... off
Rotationally invariant grid construction     ... off
Angular grids for H and He will be reduced by one unit

Total number of grid points                  ...    98905
Total number of batches                      ...     1556
Average number of points per batch           ...       63
Average number of grid points per atom       ...     4496
Initializing property integral containers    ... done (  0.0 sec)

SHARK setup successfully completed in   0.6 seconds

Maximum memory used throughout the entire STARTUP-calculation: 26.9 MB


           ************************************************************
           *        Program running with 6 parallel MPI-processes     *
           *              working on a common directory               *
           ************************************************************
-------------------------------------------------------------------------------
                                 ORCA GUESS
                   Start orbitals & Density for SCF / CASSCF
-------------------------------------------------------------------------------

------------
SCF SETTINGS
------------
Hamiltonian:
 Density Functional     Method          .... DFT(GTOs)
 Exchange Functional    Exchange        .... B88
   X-Alpha parameter    XAlpha          ....  0.666667
   Becke's b parameter  XBeta           ....  0.004200
 Correlation Functional Correlation     .... P86
 LDA part of GGA corr.  LDAOpt          .... PW91-LDA
 Gradients option       PostSCFGGA      .... off
   NL short-range parameter             ....  4.400000
 RI-approximation to the Coulomb term is turned on
   Number of AuxJ basis functions       .... 624


General Settings:
 Integral files         IntName         .... data/geom_opt_P_BP86/143061/143061
 Hartree-Fock type      HFTyp           .... RHF
 Total Charge           Charge          ....    0
 Multiplicity           Mult            ....    1
 Number of Electrons    NEL             ....   84
 Basis Dimension        Dim             ....  204
 Nuclear Repulsion      ENuc            ....    724.0676744034 Eh

Convergence Acceleration:
 AO-DIIS                CNVDIIS         .... on
   Start iteration      DIISMaxIt       ....    12
   Startup error        DIISStart       ....  0.200000
   # of expansion vecs  DIISMaxEq       ....     5
   Bias factor          DIISBfac        ....   1.050
   Max. coefficient     DIISMaxC        ....  10.000
 MO-DIIS                CNVKDIIS        .... off
 Trust-Rad. Augm. Hess. CNVTRAH         .... auto
   Auto Start mean grad. ratio tolernc. ....  1.125000
   Auto Start start iteration           ....    50
   Auto Start num. interpolation iter.  ....    10
   Max. Number of Micro iterations      ....    24
   Max. Number of Macro iterations      .... Maxiter - #DIIS iter
   Number of Davidson start vectors     ....     2
   Converg. threshold    (grad. norm)   ....   1.000e-05
   Grad. Scal. Fac. for Micro threshold ....   0.100
   Minimum threshold for Micro iter.    ....   1.000e-02
   NR start threshold (gradient norm)   ....   1.000e-04
   Initial trust radius                 ....   0.400
   Minimum AH scaling param. (alpha)    ....   1.000
   Maximum AH scaling param. (alpha)    .... 1000.000
   Quad. conv. algorithm                .... NR
   White noise on init. David. guess    .... on
   Maximum white noise                  ....   0.010
   Pseudo random numbers                .... off
   Inactive MOs                         .... canonical
   Orbital update algorithm             .... Taylor
   Preconditioner                       .... Diag
   Full preconditioner red. dimension   ....   250
 SOSCF                  CNVSOSCF        .... on
   Start iteration      SOSCFMaxIt      ....   150
   Startup grad/error   SOSCFStart      ....  0.003300
   Hessian update       SOSCFHessUp     .... L-BFGS
 Level Shifting         CNVShift        .... on
   Level shift para.    LevelShift      ....    0.2500
   Turn off err/grad.   ShiftErr        ....    0.0010
 Zerner damping         CNVZerner       .... off
 Static damping         CNVDamp         .... on
   Fraction old density DampFac         ....    0.7000
   Max. Damping (<1)    DampMax         ....    0.9800
   Min. Damping (>=0)   DampMin         ....    0.0000
   Turn off err/grad.   DampErr         ....    0.1000

SCF Procedure:
 Maximum # iterations   MaxIter         ....   125
 SCF integral mode      SCFMode         .... Direct
   Integral package                     .... SHARK and LIBINT hybrid scheme
 Reset frequency        DirectResetFreq ....    20
 Integral Threshold     Thresh          ....  2.500e-11 Eh
 Primitive CutOff       TCut            ....  2.500e-12 Eh

Convergence Tolerance:
 Convergence Check Mode ConvCheckMode   .... Total+1el-Energy
 Convergence forced     ConvForced      .... 0
 Energy Change          TolE            ....  1.000e-08 Eh
 1-El. energy change                    ....  1.000e-05 Eh
 Orbital Gradient       TolG            ....  1.000e-05
 Orbital Rotation angle TolX            ....  1.000e-05
 DIIS Error             TolErr          ....  5.000e-07

------------------------------
INITIAL GUESS: MODEL POTENTIAL
------------------------------
Loading Hartree-Fock densities                     ... done
Calculating cut-offs                               ... done
Initializing the effective Hamiltonian             ... done
Setting up the integral package (SHARK)            ... done
Starting the Coulomb interaction                   ... done (   0.1 sec)
Making the grid                                    ... done (   0.1 sec)
Mapping shells                                     ... done
Starting the XC term evaluation                    ... done (   0.1 sec)
  promolecular density results
     # of electrons  =     83.998607402
     EX              =    -76.946737077
     EC              =     -3.234527832
     EX+EC           =    -80.181264909
Transforming the Hamiltonian                       ... done (   0.0 sec)
Diagonalizing the Hamiltonian                      ... done (   0.0 sec)
Back transforming the eigenvectors                 ... done (   0.0 sec)
Now organizing SCF variables                       ... done
                      ------------------
                      INITIAL GUESS DONE (   0.3 sec)
                      ------------------
             **** ENERGY FILE WAS UPDATED (data/geom_opt_P_BP86/143061/143061.en.tmp) ****
Finished Guess after   0.3 sec
Maximum memory used throughout the entire GUESS-calculation: 14.8 MB


           ************************************************************
           *        Program running with 6 parallel MPI-processes     *
           *              working on a common directory               *
           ************************************************************

-------------------------------------------------------------------------------------------
                                      ORCA LEAN-SCF
                              memory conserving SCF solver
-------------------------------------------------------------------------------------------

----------------------------------------D-I-I-S--------------------------------------------
Iteration    Energy (Eh)           Delta-E    RMSDP     MaxDP     DIISErr   Damp  Time(sec)
-------------------------------------------------------------------------------------------
               ***  Starting incremental Fock matrix formation  ***
    1    -740.8512854739240083     0.00e+00  3.21e-03  1.20e-01  1.23e-01  0.700   0.5
    2    -740.9453569479287580    -9.41e-02  2.40e-03  1.20e-01  5.18e-02  0.700   0.4
                               ***Turning on AO-DIIS***
    3    -740.9778559165436036    -3.25e-02  1.19e-03  7.27e-02  1.74e-02  0.700   0.4
    4    -740.9981940627606036    -2.03e-02  2.09e-03  1.19e-01  1.05e-02  0.000   0.4
    5    -741.0436552668213608    -4.55e-02  4.29e-04  2.79e-02  3.92e-03  0.000   0.4
                              *** Initializing SOSCF ***
---------------------------------------S-O-S-C-F--------------------------------------
Iteration    Energy (Eh)           Delta-E    RMSDP     MaxDP     MaxGrad    Time(sec)
--------------------------------------------------------------------------------------
    6    -741.0440544938933272    -3.99e-04  1.43e-04  6.90e-03  1.07e-03     0.4
               *** Restarting incremental Fock matrix formation ***
    7    -741.0440915135161504    -3.70e-05  1.28e-04  1.68e-03  3.07e-04     0.4
    8    -741.0440943744276865    -2.86e-06  2.99e-05  7.31e-04  3.34e-04     0.4
    9    -741.0440979475017684    -3.57e-06  3.44e-05  8.97e-04  1.28e-04     0.3
   10    -741.0440983256314667    -3.78e-07  1.33e-05  2.78e-04  6.97e-05     0.4
   11    -741.0440985806424123    -2.55e-07  9.02e-06  3.55e-04  3.03e-05     0.3
   12    -741.0440986128971872    -3.23e-08  4.72e-06  2.26e-04  2.17e-05     0.3
   13    -741.0440986395560685    -2.67e-08  7.33e-07  1.16e-05  2.65e-06     0.3
   14    -741.0440986271767088     1.24e-08  2.76e-07  1.42e-05  1.22e-06     0.3
                  *** Gradient check signals convergence ***

               *****************************************************
               *                     SUCCESS                       *
               *           SCF CONVERGED AFTER  14 CYCLES          *
               *****************************************************

             **** ENERGY FILE WAS UPDATED (data/geom_opt_P_BP86/143061/143061.en.tmp) ****

----------------
TOTAL SCF ENERGY
----------------

Total Energy       :       -741.04409862717671 Eh          -20164.83508 eV

Components:
Nuclear Repulsion  :        724.06767440338103 Eh           19702.88310 eV
Electronic Energy  :      -1465.11177303055774 Eh          -39867.71818 eV
One Electron Energy:      -2451.10174776262193 Eh          -66697.86941 eV
Two Electron Energy:        985.98997473206418 Eh           26830.15123 eV

Virial components:
Potential Energy   :      -1477.10449888886933 Eh          -40194.05684 eV
Kinetic Energy     :        736.06040026169251 Eh           20029.22176 eV
Virial Ratio       :          2.00677077365351

DFT components:
N(Alpha)           :       42.000355669668 electrons
N(Beta)            :       42.000355669668 electrons
N(Total)           :       84.000711339336 electrons
E(X)               :      -78.048561839537 Eh       
E(C)               :       -3.214537854681 Eh       
E(XC)              :      -81.263099694218 Eh       

---------------
SCF CONVERGENCE
---------------

  Last Energy change         ...   -1.2379e-08  Tolerance :   1.0000e-08
  Last MAX-Density change    ...    1.4207e-05  Tolerance :   1.0000e-07
  Last RMS-Density change    ...    2.7584e-07  Tolerance :   5.0000e-09
  Last DIIS Error            ...    1.0700e-03  Tolerance :   5.0000e-07
  Last Orbital Gradient      ...    1.2239e-06  Tolerance :   1.0000e-05
  Last Orbital Rotation      ...    2.2706e-06  Tolerance :   1.0000e-05


----------------
ORBITAL ENERGIES
----------------

  NO   OCC          E(Eh)            E(eV) 
   0   2.0000     -76.303514     -2076.3242 
   1   2.0000     -13.999710      -380.9515 
   2   2.0000     -13.999705      -380.9513 
   3   2.0000     -13.999556      -380.9473 
   4   2.0000      -9.961193      -271.0578 
   5   2.0000      -9.961184      -271.0576 
   6   2.0000      -9.961175      -271.0574 
   7   2.0000      -9.937938      -270.4250 
   8   2.0000      -9.937924      -270.4247 
   9   2.0000      -9.937911      -270.4243 
  10   2.0000      -6.280064      -170.8892 
  11   2.0000      -4.500616      -122.4680 
  12   2.0000      -4.500613      -122.4679 
  13   2.0000      -4.497797      -122.3913 
  14   2.0000      -0.914608       -24.8877 
  15   2.0000      -0.815218       -22.1832 
  16   2.0000      -0.815216       -22.1832 
  17   2.0000      -0.702011       -19.1027 
  18   2.0000      -0.641430       -17.4542 
  19   2.0000      -0.641427       -17.4541 
  20   2.0000      -0.575243       -15.6532 
  21   2.0000      -0.575241       -15.6531 
  22   2.0000      -0.535667       -14.5762 
  23   2.0000      -0.510878       -13.9017 
  24   2.0000      -0.446404       -12.1473 
  25   2.0000      -0.446400       -12.1472 
  26   2.0000      -0.445233       -12.1154 
  27   2.0000      -0.440230       -11.9793 
  28   2.0000      -0.400074       -10.8866 
  29   2.0000      -0.400072       -10.8865 
  30   2.0000      -0.353766        -9.6265 
  31   2.0000      -0.353760        -9.6263 
  32   2.0000      -0.345667        -9.4061 
  33   2.0000      -0.338611        -9.2141 
  34   2.0000      -0.338605        -9.2139 
  35   2.0000      -0.331972        -9.0334 
  36   2.0000      -0.315712        -8.5910 
  37   2.0000      -0.315712        -8.5909 
  38   2.0000      -0.276679        -7.5288 
  39   2.0000      -0.159835        -4.3493 
  40   2.0000      -0.159833        -4.3493 
  41   2.0000      -0.149077        -4.0566 
  42   0.0000       0.024371         0.6632 
  43   0.0000       0.052139         1.4188 
  44   0.0000       0.052142         1.4188 
  45   0.0000       0.052231         1.4213 
  46   0.0000       0.057343         1.5604 
  47   0.0000       0.057357         1.5608 
  48   0.0000       0.081405         2.2151 
  49   0.0000       0.081426         2.2157 
  50   0.0000       0.094157         2.5621 
  51   0.0000       0.115211         3.1351 
  52   0.0000       0.117698         3.2027 
*Only the first 10 virtual orbitals were printed.

                    ********************************
                    * MULLIKEN POPULATION ANALYSIS *
                    ********************************

-----------------------
MULLIKEN ATOMIC CHARGES
-----------------------
   0 C :    0.188503
   1 N :   -0.304549
   2 C :    0.189064
   3 N :   -0.304713
   4 C :    0.188621
   5 N :   -0.304260
   6 C :    0.027051
   7 P :   -0.088297
   8 C :    0.027275
   9 C :    0.027583
  10 H :    0.013085
  11 H :    0.010230
  12 H :    0.010077
  13 H :    0.013071
  14 H :    0.010270
  15 H :    0.013020
  16 H :    0.047354
  17 H :    0.047396
  18 H :    0.047321
  19 H :    0.047338
  20 H :    0.047273
  21 H :    0.047287
Sum of atomic charges:   -0.0000000

--------------------------------
MULLIKEN REDUCED ORBITAL CHARGES
--------------------------------
  0 C s       :     2.944762  s :     2.944762
      pz      :     0.914875  p :     2.803628
      px      :     0.930393
      py      :     0.958361
      dz2     :     0.007995  d :     0.063106
      dxz     :     0.018265
      dyz     :     0.014057
      dx2y2   :     0.009819
      dxy     :     0.012971

  1 N s       :     3.447270  s :     3.447270
      pz      :     1.170735  p :     3.829426
      px      :     1.402918
      py      :     1.255773
      dz2     :     0.004666  d :     0.027852
      dxz     :     0.006831
      dyz     :     0.006833
      dx2y2   :     0.004447
      dxy     :     0.005075

  2 C s       :     2.944441  s :     2.944441
      pz      :     0.954593  p :     2.803390
      px      :     0.959163
      py      :     0.889634
      dz2     :     0.005103  d :     0.063105
      dxz     :     0.013803
      dyz     :     0.016255
      dx2y2   :     0.012689
      dxy     :     0.015255

  3 N s       :     3.447338  s :     3.447338
      pz      :     1.223352  p :     3.829523
      px      :     1.226277
      py      :     1.379893
      dz2     :     0.003864  d :     0.027853
      dxz     :     0.007687
      dyz     :     0.006209
      dx2y2   :     0.004145
      dxy     :     0.005948

  4 C s       :     2.944677  s :     2.944677
      pz      :     0.955896  p :     2.803596
      px      :     0.967276
      py      :     0.880423
      dz2     :     0.010388  d :     0.063106
      dxz     :     0.013520
      dyz     :     0.016378
      dx2y2   :     0.007746
      dxy     :     0.015074

  5 N s       :     3.447145  s :     3.447145
      pz      :     1.406462  p :     3.829265
      px      :     1.130282
      py      :     1.292521
      dz2     :     0.003797  d :     0.027851
      dxz     :     0.007276
      dyz     :     0.004870
      dx2y2   :     0.005285
      dxy     :     0.006622

  6 C s       :     3.034970  s :     3.034970
      pz      :     0.961631  p :     2.894717
      px      :     0.921224
      py      :     1.011861
      dz2     :     0.006121  d :     0.043263
      dxz     :     0.011779
      dyz     :     0.009026
      dx2y2   :     0.007441
      dxy     :     0.008896

  7 P s       :     5.845763  s :     5.845763
      pz      :     3.058625  p :     9.060551
      px      :     3.113421
      py      :     2.888505
      dz2     :     0.024464  d :     0.181982
      dxz     :     0.035938
      dyz     :     0.050541
      dx2y2   :     0.024596
      dxy     :     0.046444

  8 C s       :     3.034929  s :     3.034929
      pz      :     0.935020  p :     2.894535
      px      :     0.946083
      py      :     1.013432
      dz2     :     0.009187  d :     0.043261
      dxz     :     0.011607
      dyz     :     0.008829
      dx2y2   :     0.004571
      dxy     :     0.009067

  9 C s       :     3.034753  s :     3.034753
      pz      :     0.965614  p :     2.894403
      px      :     0.948989
      py      :     0.979801
      dz2     :     0.003995  d :     0.043260
      dxz     :     0.012351
      dyz     :     0.010149
      dx2y2   :     0.006264
      dxy     :     0.010501

 10 H s       :     0.967009  s :     0.967009
      pz      :     0.004936  p :     0.019906
      px      :     0.005053
      py      :     0.009917

 11 H s       :     0.970021  s :     0.970021
      pz      :     0.006786  p :     0.019749
      px      :     0.007761
      py      :     0.005201

 12 H s       :     0.970172  s :     0.970172
      pz      :     0.007015  p :     0.019751
      px      :     0.008746
      py      :     0.003990

 13 H s       :     0.967025  s :     0.967025
      pz      :     0.007842  p :     0.019904
      px      :     0.005955
      py      :     0.006107

 14 H s       :     0.969983  s :     0.969983
      pz      :     0.007885  p :     0.019747
      px      :     0.007948
      py      :     0.003914

 15 H s       :     0.967074  s :     0.967074
      pz      :     0.006668  p :     0.019907
      px      :     0.007781
      py      :     0.005457

 16 H s       :     0.931130  s :     0.931130
      pz      :     0.005672  p :     0.021516
      px      :     0.005525
      py      :     0.010319

 17 H s       :     0.931089  s :     0.931089
      pz      :     0.006881  p :     0.021515
      px      :     0.007839
      py      :     0.006795

 18 H s       :     0.931163  s :     0.931163
      pz      :     0.008257  p :     0.021517
      px      :     0.006000
      py      :     0.007259

 19 H s       :     0.931145  s :     0.931145
      pz      :     0.005799  p :     0.021518
      px      :     0.005479
      py      :     0.010240

 20 H s       :     0.931208  s :     0.931208
      pz      :     0.006558  p :     0.021518
      px      :     0.007499
      py      :     0.007462

 21 H s       :     0.931197  s :     0.931197
      pz      :     0.007808  p :     0.021516
      px      :     0.005705
      py      :     0.008003



                     *******************************
                     * LOEWDIN POPULATION ANALYSIS *
                     *******************************

----------------------
LOEWDIN ATOMIC CHARGES
----------------------
   0 C :    0.052031
   1 N :   -0.142831
   2 C :    0.052082
   3 N :   -0.142846
   4 C :    0.052040
   5 N :   -0.142812
   6 C :   -0.123253
   7 P :    0.349525
   8 C :   -0.123212
   9 C :   -0.123187
  10 H :    0.020695
  11 H :    0.021798
  12 H :    0.021805
  13 H :    0.020671
  14 H :    0.021815
  15 H :    0.020682
  16 H :    0.027507
  17 H :    0.027514
  18 H :    0.027496
  19 H :    0.027501
  20 H :    0.027481
  21 H :    0.027501

-------------------------------
LOEWDIN REDUCED ORBITAL CHARGES
-------------------------------
  0 C s       :     2.830613  s :     2.830613
      pz      :     0.988926  p :     2.964741
      px      :     1.000909
      py      :     0.974906
      dz2     :     0.015835  d :     0.152614
      dxz     :     0.047383
      dyz     :     0.035930
      dx2y2   :     0.020735
      dxy     :     0.032731

  1 N s       :     3.124552  s :     3.124552
      pz      :     1.228935  p :     3.955188
      px      :     1.425700
      py      :     1.300554
      dz2     :     0.009988  d :     0.063092
      dxz     :     0.016191
      dyz     :     0.016665
      dx2y2   :     0.008968
      dxy     :     0.011280

  2 C s       :     2.830602  s :     2.830602
      pz      :     1.027032  p :     2.964703
      px      :     0.970952
      py      :     0.966718
      dz2     :     0.009075  d :     0.152614
      dxz     :     0.035423
      dyz     :     0.041815
      dx2y2   :     0.028170
      dxy     :     0.038130

  3 N s       :     3.124555  s :     3.124555
      pz      :     1.273071  p :     3.955200
      px      :     1.275570
      py      :     1.406559
      dz2     :     0.007845  d :     0.063092
      dxz     :     0.018727
      dyz     :     0.014650
      dx2y2   :     0.007983
      dxy     :     0.013886

  4 C s       :     2.830610  s :     2.830610
      pz      :     0.967369  p :     2.964737
      px      :     1.038006
      py      :     0.959362
      dz2     :     0.021755  d :     0.152613
      dxz     :     0.034630
      dyz     :     0.041443
      dx2y2   :     0.016352
      dxy     :     0.038434

  5 N s       :     3.124551  s :     3.124551
      pz      :     1.428721  p :     3.955168
      px      :     1.194647
      py      :     1.331799
      dz2     :     0.006997  d :     0.063093
      dxz     :     0.017353
      dyz     :     0.010744
      dx2y2   :     0.012041
      dxy     :     0.015959

  6 C s       :     2.883133  s :     2.883133
      pz      :     1.064195  p :     3.132852
      px      :     0.978686
      py      :     1.089971
      dz2     :     0.013466  d :     0.107268
      dxz     :     0.029701
      dyz     :     0.024900
      dx2y2   :     0.017628
      dxy     :     0.021572

  7 P s       :     5.243630  s :     5.243630
      pz      :     3.093195  p :     9.155775
      px      :     3.151998
      py      :     2.910582
      dz2     :     0.030185  d :     0.251071
      dxz     :     0.051668
      dyz     :     0.072516
      dx2y2   :     0.030492
      dxy     :     0.066209

  8 C s       :     2.883139  s :     2.883139
      pz      :     0.991973  p :     3.132804
      px      :     1.052359
      py      :     1.088472
      dz2     :     0.020368  d :     0.107269
      dxz     :     0.029699
      dyz     :     0.022124
      dx2y2   :     0.010624
      dxy     :     0.024454

  9 C s       :     2.883132  s :     2.883132
      pz      :     1.049923  p :     3.132785
      px      :     1.036980
      py      :     1.045882
      dz2     :     0.007268  d :     0.107270
      dxz     :     0.032810
      dyz     :     0.027109
      dx2y2   :     0.012330
      dxy     :     0.027752

 10 H s       :     0.915588  s :     0.915588
      pz      :     0.015793  p :     0.063717
      px      :     0.015952
      py      :     0.031971

 11 H s       :     0.914554  s :     0.914554
      pz      :     0.022396  p :     0.063648
      px      :     0.025515
      py      :     0.015737

 12 H s       :     0.914550  s :     0.914550
      pz      :     0.022630  p :     0.063646
      px      :     0.027903
      py      :     0.013113

 13 H s       :     0.915612  s :     0.915612
      pz      :     0.025081  p :     0.063716
      px      :     0.018468
      py      :     0.020167

 14 H s       :     0.914537  s :     0.914537
      pz      :     0.024989  p :     0.063649
      px      :     0.025661
      py      :     0.012999

 15 H s       :     0.915601  s :     0.915601
      pz      :     0.020934  p :     0.063717
      px      :     0.024678
      py      :     0.018105

 16 H s       :     0.904421  s :     0.904421
      pz      :     0.016748  p :     0.068072
      px      :     0.017757
      py      :     0.033568

 17 H s       :     0.904413  s :     0.904413
      pz      :     0.022711  p :     0.068073
      px      :     0.025907
      py      :     0.019455

 18 H s       :     0.904432  s :     0.904432
      pz      :     0.027253  p :     0.068071
      px      :     0.019845
      py      :     0.020973

 19 H s       :     0.904428  s :     0.904428
      pz      :     0.018541  p :     0.068072
      px      :     0.016408
      py      :     0.033123

 20 H s       :     0.904448  s :     0.904448
      pz      :     0.021000  p :     0.068071
      px      :     0.023028
      py      :     0.024043

 21 H s       :     0.904429  s :     0.904429
      pz      :     0.023749  p :     0.068071
      px      :     0.018316
      py      :     0.026005



                      *****************************
                      * MAYER POPULATION ANALYSIS *
                      *****************************

  NA   - Mulliken gross atomic population
  ZA   - Total nuclear charge
  QA   - Mulliken gross atomic charge
  VA   - Mayer's total valence
  BVA  - Mayer's bonded valence
  FA   - Mayer's free valence

  ATOM       NA         ZA         QA         VA         BVA        FA
  0 C      5.8115     6.0000     0.1885     4.1169     4.1169    -0.0000
  1 N      7.3045     7.0000    -0.3045     3.1478     3.1478    -0.0000
  2 C      5.8109     6.0000     0.1891     4.1167     4.1167    -0.0000
  3 N      7.3047     7.0000    -0.3047     3.1480     3.1480    -0.0000
  4 C      5.8114     6.0000     0.1886     4.1168     4.1168    -0.0000
  5 N      7.3043     7.0000    -0.3043     3.1477     3.1477    -0.0000
  6 C      5.9729     6.0000     0.0271     3.9123     3.9123    -0.0000
  7 P     15.0883    15.0000    -0.0883     3.1398     3.1398    -0.0000
  8 C      5.9727     6.0000     0.0273     3.9121     3.9121    -0.0000
  9 C      5.9724     6.0000     0.0276     3.9121     3.9121    -0.0000
 10 H      0.9869     1.0000     0.0131     0.9914     0.9914    -0.0000
 11 H      0.9898     1.0000     0.0102     0.9882     0.9882    -0.0000
 12 H      0.9899     1.0000     0.0101     0.9882     0.9882    -0.0000
 13 H      0.9869     1.0000     0.0131     0.9914     0.9914    -0.0000
 14 H      0.9897     1.0000     0.0103     0.9882     0.9882    -0.0000
 15 H      0.9870     1.0000     0.0130     0.9914     0.9914    -0.0000
 16 H      0.9526     1.0000     0.0474     0.9845     0.9845    -0.0000
 17 H      0.9526     1.0000     0.0474     0.9844     0.9844    -0.0000
 18 H      0.9527     1.0000     0.0473     0.9845     0.9845    -0.0000
 19 H      0.9527     1.0000     0.0473     0.9845     0.9845    -0.0000
 20 H      0.9527     1.0000     0.0473     0.9844     0.9844    -0.0000
 21 H      0.9527     1.0000     0.0473     0.9845     0.9845    -0.0000

  Mayer bond orders larger than 0.100000
B(  0-C ,  1-N ) :   1.0512 B(  0-C ,  5-N ) :   1.0512 B(  0-C , 10-H ) :   0.9307 
B(  0-C , 11-H ) :   0.9284 B(  1-N ,  2-C ) :   1.0511 B(  1-N ,  8-C ) :   0.9704 
B(  2-C ,  3-N ) :   1.0511 B(  2-C , 12-H ) :   0.9283 B(  2-C , 13-H ) :   0.9308 
B(  3-N ,  4-C ) :   1.0512 B(  3-N ,  9-C ) :   0.9704 B(  4-C ,  5-N ) :   1.0511 
B(  4-C , 14-H ) :   0.9284 B(  4-C , 15-H ) :   0.9307 B(  5-N ,  6-C ) :   0.9703 
B(  6-C ,  7-P ) :   0.9722 B(  6-C , 16-H ) :   0.9366 B(  6-C , 17-H ) :   0.9366 
B(  7-P ,  8-C ) :   0.9720 B(  7-P ,  9-C ) :   0.9720 B(  8-C , 18-H ) :   0.9366 
B(  8-C , 19-H ) :   0.9366 B(  9-C , 20-H ) :   0.9366 B(  9-C , 21-H ) :   0.9366 


-------
TIMINGS
-------

Total SCF time: 0 days 0 hours 0 min 5 sec 

Total time                  ....       5.350 sec
Sum of individual times     ....       5.304 sec  ( 99.1%)

SCF preparation             ....       0.075 sec  (  1.4%)
Fock matrix formation       ....       4.866 sec  ( 91.0%)
  Startup                   ....       0.031 sec  (  0.6% of F)
  Split-RI-J                ....       1.292 sec  ( 26.6% of F)
  XC integration            ....       3.421 sec  ( 70.3% of F)
    Basis function eval.    ....       0.975 sec  ( 28.5% of XC)
    Density eval.           ....       0.768 sec  ( 22.4% of XC)
    XC-Functional eval.     ....       0.077 sec  (  2.3% of XC)
    XC-Potential eval.      ....       0.904 sec  ( 26.4% of XC)
Diagonalization             ....       0.000 sec  (  0.0%)
Density matrix formation    ....       0.061 sec  (  1.1%)
Total Energy calculation    ....       0.028 sec  (  0.5%)
Population analysis         ....       0.032 sec  (  0.6%)
Orbital Transformation      ....       0.025 sec  (  0.5%)
Orbital Orthonormalization  ....       0.000 sec  (  0.0%)
DIIS solution               ....       0.123 sec  (  2.3%)
SOSCF solution              ....       0.094 sec  (  1.8%)
Finished LeanSCF after   5.4 sec

Maximum memory used throughout the entire LEANSCF-calculation: 20.7 MB


-------------------------------------------------------------------------------
                          DFT DISPERSION CORRECTION                            
                                                                               
                              DFTD3 V3.1  Rev 1                                
                          USING Becke-Johnson damping                          
-------------------------------------------------------------------------------
The BP86 functional is recognized
Active option DFTDOPT                   ...         4   

molecular C6(AA) [au] = 4971.173647 


            DFT-D V3
 parameters
 s6 scaling factor         :     1.0000 
 a1 scaling factor         :     0.3946 
 s8 scaling factor         :     3.2822 
 a2 scaling factor         :     4.8516 
 ad hoc parameters k1-k3   :    16.0000     1.3333    -4.0000 

 Edisp/kcal,au: -29.901729630684  -0.047651434244 
 E6   /kcal   : -10.996547876 
 E8   /kcal   : -18.905181755 
 % E8         :  63.224375272 

-------------------------   ----------------
Dispersion correction           -0.047651434
-------------------------   ----------------


-------------------------   --------------------
FINAL SINGLE POINT ENERGY      -741.091750061421
-------------------------   --------------------



           ************************************************************
           *        Program running with 6 parallel MPI-processes     *
           *              working on a common directory               *
           ************************************************************
------------------------------------------------------------------------------
                         ORCA SCF GRADIENT CALCULATION
------------------------------------------------------------------------------

Nuc. rep. gradient        (SHARK) ... done (  0.0 sec)
HCore & Overlap gradient  (SHARK) ... done (  0.1 sec)
Split-RIJ-J gradient      (SHARK) ... done (  0.4 sec)
XC gradient                       ... done (  1.9 sec)
Dispersion correction             ... done (  0.1 sec)

-------------------
DISPERSION GRADIENT
-------------------

   1   C   :   -0.000174745    0.000647162   -0.000130960
   2   N   :   -0.000403565    0.000305278    0.000270121
   3   C   :   -0.000669257   -0.000135570    0.000014838
   4   N   :   -0.000265672   -0.000433987   -0.000264761
   5   C   :   -0.000034696   -0.000103664   -0.000674207
   6   N   :    0.000221226    0.000336693   -0.000408315
   7   C   :    0.000703404    0.000212494   -0.000112353
   8   P   :    0.000955988   -0.000443809    0.000859846
   9   C   :   -0.000063079    0.000173955    0.000719941
  10   C   :    0.000106085   -0.000732963    0.000063757
  11   H   :   -0.000031573    0.000486086   -0.000006568
  12   H   :   -0.000218043    0.000384892   -0.000182980
  13   H   :   -0.000465866   -0.000007370   -0.000109914
  14   H   :   -0.000443431   -0.000165817    0.000114861
  15   H   :   -0.000147858    0.000008619   -0.000455225
  16   H   :    0.000085068   -0.000139244   -0.000459014
  17   H   :    0.000380603    0.000196313   -0.000004456
  18   H   :    0.000409833    0.000039607   -0.000117837
  19   H   :   -0.000085010    0.000014726    0.000419493
  20   H   :    0.000018200    0.000178091    0.000389063
  21   H   :    0.000127413   -0.000407417   -0.000034571
  22   H   :   -0.000005027   -0.000414076    0.000109240

Difference to translation invariance:
           :    0.0000000000    0.0000000000    0.0000000000

Difference to rotation invariance:
           :   -0.0000000000   -0.0000000000    0.0000000000

Norm of the Dispersion gradient    ...    0.0028973135
RMS gradient                       ...    0.0003566346
MAX gradient                       ...    0.0009559882

------------------
CARTESIAN GRADIENT
------------------

   1   C   :   -0.000543400    0.011066071    0.000338032
   2   N   :    0.042261261   -0.030095287   -0.017954858
   3   C   :   -0.009733684   -0.004029487    0.002920502
   4   N   :    0.030142014    0.035439475    0.029338189
   5   C   :    0.002293022   -0.003444878   -0.010199218
   6   N   :   -0.013127123   -0.032848981    0.042025953
   7   C   :    0.019978110   -0.004548823    0.011431519
   8   P   :   -0.086934126    0.040725483   -0.078687960
   9   C   :    0.013187340   -0.004809085    0.018768378
  10   C   :    0.014610910   -0.012899670    0.012918326
  11   H   :   -0.007125750   -0.003161980   -0.006683765
  12   H   :    0.007643493    0.001780419    0.007117755
  13   H   :    0.002812917   -0.005670518    0.008534506
  14   H   :   -0.001417785    0.005836873   -0.008288604
  15   H   :    0.009021128   -0.005317004    0.001902435
  16   H   :   -0.008700460    0.005373132   -0.000488932
  17   H   :   -0.003378513   -0.007947184   -0.005753690
  18   H   :   -0.006064845    0.006852846    0.004886458
  19   H   :    0.004072505    0.007283225   -0.006143457
  20   H   :   -0.005676064   -0.008067828   -0.003248730
  21   H   :   -0.007933966    0.004003979    0.005387440
  22   H   :    0.004613016    0.004479221   -0.008120280

Difference to translation invariance:
           :    0.0000000000    0.0000000000    0.0000000000

Difference to rotation invariance:
           :    0.0005404652    0.0016252334    0.0022311966

Norm of the Cartesian gradient     ...    0.1666558173
RMS gradient                       ...    0.0205139130
MAX gradient                       ...    0.0869341257

-------
TIMINGS
-------

Total SCF gradient time     ....        2.443 sec

One electron gradient       ....       0.080 sec  (  3.3%)
RI-J Coulomb gradient       ....       0.383 sec  ( 15.7%)
XC gradient                 ....       1.921 sec  ( 78.6%)

Maximum memory used throughout the entire SCFGRAD-calculation: 31.4 MB
------------------------------------------------------------------------------
                         ORCA GEOMETRY RELAXATION STEP
------------------------------------------------------------------------------

Reading the OPT-File                    .... done
Getting information on internals        .... done
Copying old internal coords+grads       .... done
Making the new internal coordinates     .... (2022 redundants) done
Validating the new internal coordinates .... (2022 redundants) done
Calculating the B-matrix                .... done
Calculating the G,G- and P matrices     .... done
Transforming gradient to internals      .... done
Projecting the internal gradient        .... done
Number of atoms                         ....  22
Number of internal coordinates          .... 132
Current Energy                          ....  -741.091750061 Eh
Current gradient norm                   ....     0.166655817 Eh/bohr
Maximum allowed component of the step   ....  0.300
Current trust radius                    ....  0.300
Evaluating the initial hessian          ....  (Almloef) done
Projecting the Hessian                  .... done
Forming the augmented Hessian           .... done
Diagonalizing the augmented Hessian     .... done
Last element of RFO vector              ....  0.931390646
Lowest eigenvalues of augmented Hessian:
 -0.039029958  0.030047587  0.031174343  0.039154117  0.039640250
Length of the computed step             ....  0.390836265
Warning: the length of the step is outside the trust region - taking restricted step instead
The input lambda is                     ....     0.029035
   iter:   5  x=   -0.040503  g=    3.525861 f(x)=     0.158587
   iter:  10  x=   -0.107974  g=    0.582105 f(x)=     0.000000
The output lambda is                    ....    -0.107974 (11 iterations)
The final length of the internal step   ....  0.300000000
Converting the step to Cartesian space:
 Initial RMS(Int)=    0.0261116484
Transforming coordinates:
 Iter   0:  RMS(Cart)=    0.0287169100 RMS(Int)=    0.0257500170
done
Storing new coordinates                 .... done

                                .--------------------.
          ----------------------|Geometry convergence|-------------------------
          Item                value                   Tolerance       Converged
          ---------------------------------------------------------------------
          RMS gradient        0.0095137608            0.0001000000      NO
          MAX gradient        0.0330596264            0.0003000000      NO
          RMS step            0.0261116484            0.0020000000      NO
          MAX step            0.0626614823            0.0040000000      NO
          ........................................................
          Max(Bonds)      0.0327      Max(Angles)    3.59
          Max(Dihed)        3.30      Max(Improp)    0.00
          ---------------------------------------------------------------------

The optimization has not yet converged - more geometry cycles are needed


    ---------------------------------------------------------------------------
                         Redundant Internal Coordinates
                            (Angstroem and degrees)

        Definition                    Value    dE/dq     Step     New-Value
    ----------------------------------------------------------------------------
     1. B(N   1,C   0)                1.4508 -0.010900  0.0092    1.4600   
     2. B(C   2,N   1)                1.4508 -0.010859  0.0088    1.4596   
     3. B(N   3,C   2)                1.4508 -0.009586  0.0081    1.4589   
     4. B(C   4,N   3)                1.4508 -0.010606  0.0087    1.4595   
     5. B(N   5,C   4)                1.4508 -0.010035  0.0086    1.4595   
     6. B(N   5,C   0)                1.4508 -0.010426  0.0089    1.4597   
     7. B(C   6,N   5)                1.4493 -0.022895  0.0213    1.4707   
     8. B(P   7,C   6)                1.8032 -0.032157  0.0324    1.8356   
     9. B(C   8,P   7)                1.8032 -0.033060  0.0327    1.8359   
    10. B(C   8,N   1)                1.4493 -0.023145  0.0213    1.4706   
    11. B(C   9,P   7)                1.8032 -0.032109  0.0322    1.8354   
    12. B(C   9,N   3)                1.4493 -0.021788  0.0204    1.4697   
    13. B(H  10,C   0)                1.0985 -0.008290  0.0096    1.1081   
    14. B(H  11,C   0)                1.0987 -0.009056  0.0105    1.1091   
    15. B(H  12,C   2)                1.0987 -0.008942  0.0104    1.1090   
    16. B(H  13,C   2)                1.0985 -0.008333  0.0096    1.1081   
    17. B(H  14,C   4)                1.0987 -0.009039  0.0105    1.1091   
    18. B(H  15,C   4)                1.0985 -0.008263  0.0096    1.1081   
    19. B(H  16,C   6)                1.0958 -0.010091  0.0116    1.1074   
    20. B(H  17,C   6)                1.0958 -0.010046  0.0115    1.1074   
    21. B(H  18,C   8)                1.0958 -0.010065  0.0116    1.1074   
    22. B(H  19,C   8)                1.0958 -0.010075  0.0116    1.1074   
    23. B(H  20,C   9)                1.0958 -0.010112  0.0116    1.1074   
    24. B(H  21,C   9)                1.0958 -0.010006  0.0115    1.1073   
    25. A(N   1,C   0,N   5)          110.17 -0.006104    1.21    111.38   
    26. A(N   5,C   0,H  11)          109.89  0.003440   -0.55    109.34   
    27. A(N   1,C   0,H  11)          109.89  0.003670   -0.57    109.32   
    28. A(N   1,C   0,H  10)          111.22  0.003362   -0.66    110.56   
    29. A(N   5,C   0,H  10)          111.22  0.003264   -0.65    110.57   
    30. A(H  10,C   0,H  11)          104.29 -0.007427    1.18    105.47   
    31. A(C   0,N   1,C   2)          110.54  0.003746   -0.76    109.78   
    32. A(C   0,N   1,C   8)          113.18  0.002449   -0.60    112.58   
    33. A(C   2,N   1,C   8)          113.18  0.002054   -0.58    112.61   
    34. A(N   3,C   2,H  13)          111.22  0.002420   -0.57    110.66   
    35. A(N   1,C   2,H  13)          111.22  0.002137   -0.52    110.70   
    36. A(N   3,C   2,H  12)          109.89  0.002198   -0.43    109.46   
    37. A(N   1,C   2,H  12)          109.89  0.002332   -0.44    109.45   
    38. A(H  12,C   2,H  13)          104.29 -0.003282    0.72    105.01   
    39. A(N   1,C   2,N   3)          110.17 -0.005506    1.18    111.35   
    40. A(C   2,N   3,C   4)          110.54  0.003390   -0.75    109.78   
    41. A(C   4,N   3,C   9)          113.18  0.002755   -0.68    112.51   
[...]

 20 H s       :     0.929329  s :     0.929329
      pz      :     0.006232  p :     0.020473
      px      :     0.007179
      py      :     0.007062

 21 H s       :     0.929373  s :     0.929373
      pz      :     0.007446  p :     0.020471
      px      :     0.005428
      py      :     0.007596



                     *******************************
                     * LOEWDIN POPULATION ANALYSIS *
                     *******************************

----------------------
LOEWDIN ATOMIC CHARGES
----------------------
   0 C :    0.055792
   1 N :   -0.134626
   2 C :    0.055982
   3 N :   -0.134619
   4 C :    0.055842
   5 N :   -0.134378
   6 C :   -0.124106
   7 P :    0.336301
   8 C :   -0.124420
   9 C :   -0.124354
  10 H :    0.021488
  11 H :    0.022322
  12 H :    0.022289
  13 H :    0.021464
  14 H :    0.022349
  15 H :    0.021435
  16 H :    0.023528
  17 H :    0.023553
  18 H :    0.023530
  19 H :    0.023564
  20 H :    0.023562
  21 H :    0.023502

-------------------------------
LOEWDIN REDUCED ORBITAL CHARGES
-------------------------------
  0 C s       :     2.847816  s :     2.847816
      pz      :     0.982153  p :     2.953571
      px      :     0.994057
      py      :     0.977361
      dz2     :     0.014449  d :     0.142822
      dxz     :     0.048434
      dyz     :     0.032402
      dx2y2   :     0.018197
      dxy     :     0.029340

  1 N s       :     3.164472  s :     3.164472
      pz      :     1.224340  p :     3.909856
      px      :     1.398381
      py      :     1.287135
      dz2     :     0.009087  d :     0.060298
      dxz     :     0.015860
      dyz     :     0.016041
      dx2y2   :     0.008776
      dxy     :     0.010535

  2 C s       :     2.847879  s :     2.847879
      pz      :     1.020209  p :     2.953352
      px      :     0.972090
      py      :     0.961054
      dz2     :     0.008675  d :     0.142786
      dxz     :     0.032306
      dyz     :     0.042981
      dx2y2   :     0.024792
      dxy     :     0.034032

  3 N s       :     3.164658  s :     3.164658
      pz      :     1.259545  p :     3.909667
      px      :     1.261016
      py      :     1.389106
      dz2     :     0.007189  d :     0.060293
      dxz     :     0.017680
      dyz     :     0.014309
      dx2y2   :     0.007635
      dxy     :     0.013479

  4 C s       :     2.847904  s :     2.847904
      pz      :     0.969022  p :     2.953474
      px      :     1.030958
      py      :     0.953493
      dz2     :     0.018081  d :     0.142780
      dxz     :     0.031449
      dyz     :     0.037137
      dx2y2   :     0.016543
      dxy     :     0.039570

  5 N s       :     3.164718  s :     3.164718
      pz      :     1.401069  p :     3.909343
      px      :     1.192631
      py      :     1.315642
      dz2     :     0.006787  d :     0.060317
      dxz     :     0.017015
      dyz     :     0.010032
      dx2y2   :     0.011151
      dxy     :     0.015332

  6 C s       :     2.912602  s :     2.912602
      pz      :     1.053942  p :     3.114212
      px      :     0.977021
      py      :     1.083249
      dz2     :     0.012420  d :     0.097293
      dxz     :     0.026656
      dyz     :     0.023806
      dx2y2   :     0.014991
      dxy     :     0.019421

  7 P s       :     5.402252  s :     5.402252
      pz      :     3.056513  p :     9.072263
      px      :     3.102331
      py      :     2.913418
      dz2     :     0.025498  d :     0.189184
      dxz     :     0.035464
      dyz     :     0.055546
      dx2y2   :     0.021504
      dxy     :     0.051173

  8 C s       :     2.912134  s :     2.912134
      pz      :     0.990672  p :     3.114707
      px      :     1.041704
      py      :     1.082331
      dz2     :     0.017227  d :     0.097579
      dxz     :     0.026115
      dyz     :     0.019859
      dx2y2   :     0.010669
      dxy     :     0.023709

  9 C s       :     2.912121  s :     2.912121
      pz      :     1.042075  p :     3.114685
      px      :     1.028704
      py      :     1.043905
      dz2     :     0.006510  d :     0.097548
      dxz     :     0.032817
      dyz     :     0.023796
      dx2y2   :     0.010289
      dxy     :     0.024135

 10 H s       :     0.916510  s :     0.916510
      pz      :     0.015718  p :     0.062002
      px      :     0.015844
      py      :     0.030440

 11 H s       :     0.915826  s :     0.915826
      pz      :     0.022074  p :     0.061852
      px      :     0.025231
      py      :     0.014546

 12 H s       :     0.915841  s :     0.915841
      pz      :     0.022564  p :     0.061870
      px      :     0.026500
      py      :     0.012806

 13 H s       :     0.916533  s :     0.916533
      pz      :     0.025166  p :     0.062003
      px      :     0.016825
      py      :     0.020012

 14 H s       :     0.915802  s :     0.915802
      pz      :     0.023516  p :     0.061849
      px      :     0.025659
      py      :     0.012674

 15 H s       :     0.916551  s :     0.916551
      pz      :     0.019334  p :     0.062014
      px      :     0.024788
      py      :     0.017892

 16 H s       :     0.910320  s :     0.910320
      pz      :     0.016047  p :     0.066152
      px      :     0.017111
      py      :     0.032994

 17 H s       :     0.910294  s :     0.910294
      pz      :     0.022317  p :     0.066152
      px      :     0.025040
      py      :     0.018795

 18 H s       :     0.910331  s :     0.910331
      pz      :     0.026509  p :     0.066139
      px      :     0.019435
      py      :     0.020195

 19 H s       :     0.910297  s :     0.910297
      pz      :     0.017829  p :     0.066139
      px      :     0.015741
      py      :     0.032569

 20 H s       :     0.910300  s :     0.910300
      pz      :     0.020504  p :     0.066139
      px      :     0.022230
      py      :     0.023405

 21 H s       :     0.910338  s :     0.910338
      pz      :     0.022874  p :     0.066160
      px      :     0.017876
      py      :     0.025409



                      *****************************
                      * MAYER POPULATION ANALYSIS *
                      *****************************

  NA   - Mulliken gross atomic population
  ZA   - Total nuclear charge
  QA   - Mulliken gross atomic charge
  VA   - Mayer's total valence
  BVA  - Mayer's bonded valence
  FA   - Mayer's free valence

  ATOM       NA         ZA         QA         VA         BVA        FA
  0 C      5.8198     6.0000     0.1802     4.0761     4.0761    -0.0000
  1 N      7.2919     7.0000    -0.2919     3.1528     3.1528     0.0000
  2 C      5.8190     6.0000     0.1810     4.0759     4.0759    -0.0000
  3 N      7.2919     7.0000    -0.2919     3.1528     3.1528    -0.0000
  4 C      5.8197     6.0000     0.1803     4.0762     4.0762    -0.0000
  5 N      7.2913     7.0000    -0.2913     3.1529     3.1529    -0.0000
  6 C      6.0501     6.0000    -0.0501     3.9139     3.9139    -0.0000
  7 P     14.9291    15.0000     0.0709     3.0083     3.0083    -0.0000
  8 C      6.0495     6.0000    -0.0495     3.9140     3.9140    -0.0000
  9 C      6.0493     6.0000    -0.0493     3.9141     3.9141    -0.0000
 10 H      0.9811     1.0000     0.0189     0.9918     0.9918    -0.0000
 11 H      0.9820     1.0000     0.0180     0.9882     0.9882    -0.0000
 12 H      0.9823     1.0000     0.0177     0.9883     0.9883    -0.0000
 13 H      0.9810     1.0000     0.0190     0.9918     0.9918     0.0000
 14 H      0.9821     1.0000     0.0179     0.9883     0.9883    -0.0000
 15 H      0.9810     1.0000     0.0190     0.9918     0.9918    -0.0000
 16 H      0.9497     1.0000     0.0503     0.9800     0.9800     0.0000
 17 H      0.9498     1.0000     0.0502     0.9801     0.9801    -0.0000
 18 H      0.9498     1.0000     0.0502     0.9800     0.9800     0.0000
 19 H      0.9498     1.0000     0.0502     0.9801     0.9801    -0.0000
 20 H      0.9498     1.0000     0.0502     0.9801     0.9801    -0.0000
 21 H      0.9498     1.0000     0.0502     0.9800     0.9800     0.0000

  Mayer bond orders larger than 0.100000
B(  0-C ,  1-N ) :   1.0333 B(  0-C ,  5-N ) :   1.0338 B(  0-C , 10-H ) :   0.9356 
B(  0-C , 11-H ) :   0.9334 B(  1-N ,  2-C ) :   1.0336 B(  1-N ,  8-C ) :   0.9985 
B(  2-C ,  3-N ) :   1.0334 B(  2-C , 12-H ) :   0.9333 B(  2-C , 13-H ) :   0.9356 
B(  3-N ,  4-C ) :   1.0336 B(  3-N ,  9-C ) :   0.9984 B(  4-C ,  5-N ) :   1.0336 
B(  4-C , 14-H ) :   0.9332 B(  4-C , 15-H ) :   0.9357 B(  5-N ,  6-C ) :   0.9982 
B(  6-C ,  7-P ) :   0.9410 B(  6-C , 16-H ) :   0.9410 B(  6-C , 17-H ) :   0.9409 
B(  7-P ,  8-C ) :   0.9412 B(  7-P ,  9-C ) :   0.9412 B(  8-C , 18-H ) :   0.9409 
B(  8-C , 19-H ) :   0.9408 B(  9-C , 20-H ) :   0.9409 B(  9-C , 21-H ) :   0.9408 


-------
TIMINGS
-------

Total SCF time: 0 days 0 hours 0 min 1 sec 

Total time                  ....       1.944 sec
Sum of individual times     ....       1.900 sec  ( 97.7%)

SCF preparation             ....       0.091 sec  (  4.7%)
Fock matrix formation       ....       1.650 sec  ( 84.9%)
  Startup                   ....       0.014 sec  (  0.8% of F)
  Split-RI-J                ....       0.491 sec  ( 29.8% of F)
  XC integration            ....       1.102 sec  ( 66.8% of F)
    Basis function eval.    ....       0.322 sec  ( 29.2% of XC)
    Density eval.           ....       0.253 sec  ( 23.0% of XC)
    XC-Functional eval.     ....       0.030 sec  (  2.7% of XC)
    XC-Potential eval.      ....       0.280 sec  ( 25.4% of XC)
Diagonalization             ....       0.000 sec  (  0.0%)
Density matrix formation    ....       0.020 sec  (  1.0%)
Total Energy calculation    ....       0.010 sec  (  0.5%)
Population analysis         ....       0.049 sec  (  2.5%)
Orbital Transformation      ....       0.011 sec  (  0.6%)
Orbital Orthonormalization  ....       0.000 sec  (  0.0%)
DIIS solution               ....       0.015 sec  (  0.8%)
SOSCF solution              ....       0.054 sec  (  2.8%)
Finished LeanSCF after   2.0 sec

Maximum memory used throughout the entire LEANSCF-calculation: 21.4 MB


-------------------------------------------------------------------------------
                          DFT DISPERSION CORRECTION                            
                                                                               
                              DFTD3 V3.1  Rev 1                                
                          USING Becke-Johnson damping                          
-------------------------------------------------------------------------------
The BP86 functional is recognized
Active option DFTDOPT                   ...         4   

molecular C6(AA) [au] = 4974.179419 


            DFT-D V3
 parameters
 s6 scaling factor         :     1.0000 
 a1 scaling factor         :     0.3946 
 s8 scaling factor         :     3.2822 
 a2 scaling factor         :     4.8516 
 ad hoc parameters k1-k3   :    16.0000     1.3333    -4.0000 

 Edisp/kcal,au: -29.376859566422  -0.046815000645 
 E6   /kcal   : -10.821565024 
 E8   /kcal   : -18.555294543 
 % E8         :  63.162961653 

-------------------------   ----------------
Dispersion correction           -0.046815001
-------------------------   ----------------


-------------------------   --------------------
FINAL SINGLE POINT ENERGY      -741.128218232666
-------------------------   --------------------

                                *** OPTIMIZATION RUN DONE ***



           ************************************************************
           *        Program running with 6 parallel MPI-processes     *
           *              working on a common directory               *
           ************************************************************

------------------------------------------------------------------------------
                              ORCA PROPERTY CALCULATIONS
------------------------------------------------------------------------------

GBWName                                 ... data/geom_opt_P_BP86/143061/143061.gbw
Number of atoms                         ...     22
Number of basis functions               ...    204
Max core memory                         ...   1024 MB

Electric properties:
Dipole moment                           ... YES
Quadrupole moment                       ...  NO
Static polarizability (Dipole/Dipole)   ...  NO
Static polarizability (Dipole/Quad.)    ...  NO
Static polarizability (Quad./Quad.)     ...  NO
Static polarizability (Velocity)        ...  NO

Atomic electric properties:
Dipole moment                           ...  NO
Quadrupole moment                       ...  NO
Static polarizability                   ...  NO

Choice of electric origin               ... Center of mass
Position of electric origin             ...     0.334635    -0.155843     0.301951

General magnetic properties:
Magnetizability                         ...  NO

EPR properties:
g-Tensor (aka g-matrix)                 ...  NO
Zero-Field splitting spin-orbit         ...  NO
Zero-field splitting spin-spin          ...  NO
Hyperfine couplings                     ...  NO (   0 nuclei)
Quadrupole couplings                    ...  NO (   0 nuclei)
Contact density                         ...  NO (   0 nuclei)

NMR properties:
Chemical shifts                         ...  NO (   0 nuclei)
Spin-rotation constants                 ...  NO (   0 nuclei)
Spin-spin couplings                     ...  NO (   0 nuclei,    0 pairs)

Choice of magnetic origin               ... GIAO
Position of magnetic origin             ...     0.000000     0.000000     0.000000

Properties with geometric perturbations:
SCF Hessian                             ...  NO
IR spectrum                             ...  NO
VCD spectrum                            ...  NO
X-ray spectroscopy properties:
SCF XES/XAS/RIXS spectra                ...  NO


-------------
DIPOLE MOMENT
-------------

Method             : SCF
Type of density    : Electron Density
Multiplicity       :   1
Irrep              :   0
Energy             :  -741.0814032320214437 Eh
Relativity type    : 
Basis              : AO
                                X                 Y                 Z
Electronic contribution:      3.244011299      -1.511097664       2.928264499
Nuclear contribution   :     -3.394762021       1.581309898      -3.063299185
                        -----------------------------------------
Total Dipole Moment    :     -0.150750721       0.070212235      -0.135034686
                        -----------------------------------------
Magnitude (a.u.)       :      0.214219290
Magnitude (Debye)      :      0.544502163



--------------------
Rotational spectrum 
--------------------
 
Rotational constants in cm-1:             0.055142             0.046525             0.046517 
Rotational constants in MHz :          1653.121349          1394.772163          1394.529679 

Dipole components along the rotational axes: 
x,y,z [a.u.] :    -0.214217    -0.000896     0.000557 
x,y,z [Debye]:    -0.544496    -0.002276     0.001416 

 

Dipole moment calculation done in   0.0 sec 

Maximum memory used throughout the entire PROP-calculation: 10.4 MB

--------------------------------
SUGGESTED CITATIONS FOR THIS RUN
--------------------------------

Below you find a list of papers that are relevant to this ORCA run
We neither can nor want to force you to cite these papers, but we appreciate if you do
You receive ORCA, which is the product of decades of hard work by many enthusiastic individuals, for free
The only thing we kindly ask in return is that you cite our papers,
We deeply appreciate it, if you show your appreciation for ORCA by not just citing the generic ORCA reference.

Please note that relegating all ORCA citations to the supporting information does *not* help us.
SI sections are not indexed - citations you put there will not count into any citation statistics
But we need these citations in order to attract the funding resources that allow us to do what we are doing

Therefore, if you are a happy ORCA user, please consider citing a few of the papers listed below in the main body of your paper

In addition to the list printed below, the program has created the file data/geom_opt_P_BP86/143061/143061.bibtex that contains the list in bibtex format
You can import this file easily into all common literature databanks and citation aid programs


List of essential papers. We consider these as the minimum necessary citations

  1. Neese,F.
     Software update: the ORCA program system, version 5.0
     WIRES Comput. Molec. Sci., 2022 12(1)e1606
     doi.org/10.1002/wcms.1606

List of papers to cite with high priority. The work reported in these papers was absolutely
necessary for this run to complete.
Our perspective: the developers of density functionals and basis sets usually get cited in chemistry papers
Good! But without the algorithms to do something with them, the functionals or basis sets would not do anything.
Hence, in our opinion, the algorithm design and method developments papers are equally worthy of getting cited

  1. Neese,F.
     An improvement of the resolution of the identity approximation for the formation of the Coulomb matrix
     J. Comp. Chem., 2003 24(14)1740-1747
     doi.org/10.1002/jcc.10318
  2. Neese,F.
     The SHARK Integral Generation and Digestion System
     J. Comp. Chem., 2022  1-16
     doi.org/10.1002/jcc.26942
  3. Grimme,S.; Antony,J.; Ehrlich,S.; Krieg,H.
     A consistent and accurate ab initio parametrization of density functional dispersion correction (DFT-D) for the 94 elements H-Pu
     J. Chem. Phys., 2010 132 154104-XXXX
     doi.org/10.1063/1.3382344
  4. Grimme,S.; Ehrlich,S.; Goerigk,L.
     Effect of the damping function in dispersion corrected density functional theory
     J. Comput. Chem., 2011 32(7)1456-1465
     doi.org/10.1002/jcc.21759

List of suggested additional citations. These are papers that are important in the 'surrounding' of 
of this run, or papers that preceded the highly important papers. If you like your results we are grateful for a citation.

  1. Neese,F.
     The ORCA program system
     WIRES Comput. Molec. Sci., 2012 2(1)73-78
     doi.org/10.1002/wcms.81
  2. Neese,F.
     Software update: the ORCA program system, version 4.0
     WIRES Comput. Molec. Sci., 2018 8(1)1-6
     doi.org/10.1002/wcms.1327
  3. Neese,F.; Wennmohs,F.; Becker,U.; Riplinger,C.
     The ORCA quantum chemistry program package
     J. Chem. Phys., 2020 152 Art. No. L224108
     doi.org/10.1063/5.0004608

List of optional additional citations

  1. Neese,F.
     Approximate second-order SCF convergence for spin unrestricted wavefunctions
     Chem. Phys. Lett., 2000 325(1-3)93-98
     doi.org/10.1016/s0009-2614(00)00662-x

Timings for individual modules:

Sum of individual times          ...       51.782 sec (=   0.863 min)
Startup calculation              ...        5.544 sec (=   0.092 min)  10.7 %
SCF iterations                   ...       28.259 sec (=   0.471 min)  54.6 %
Property calculations            ...        0.168 sec (=   0.003 min)   0.3 %
SCF Gradient evaluation          ...       17.734 sec (=   0.296 min)  34.2 %
Geometry relaxation              ...        0.077 sec (=   0.001 min)   0.1 %
                             ****ORCA TERMINATED NORMALLY****
TOTAL RUN TIME: 0 days 0 hours 0 minutes 53 seconds 208 msec
