
                                 *****************
                                 * O   R   C   A *
                                 *****************

                                            #,                                       
                                            ###                                      
                                            ####                                     
                                            #####                                    
                                            ######                                   
                                           ########,                                 
                                     ,,################,,,,,                         
                               ,,#################################,,                 
                          ,,##########################################,,             
                       ,#########################################, ''#####,          
                    ,#############################################,,   '####,        
                  ,##################################################,,,,####,       
                ,###########''''           ''''###############################       
              ,#####''   ,,,,##########,,,,          '''####'''          '####       
            ,##' ,,,,###########################,,,                        '##       
           ' ,,###''''                  '''############,,,                           
         ,,##''                                '''############,,,,        ,,,,,,###''
      ,#''                                            '''#######################'''  
     '                                                          ''''####''''         
             ,#######,   #######,   ,#######,      ##                                
            ,#'     '#,  ##    ##  ,#'     '#,    #''#        ,####,   ,####,        
            ##       ##  ##   ,#'  ##            #'  '#       #'       #'  '#        
            ##       ##  #######   ##           ,######,      #####,   #    #        
            '#,     ,#'  ##    ##  '#,     ,#' ,#      #,     #,   #   #,  ,#        
             '#######'   ##     ##  '#######'  #'      '#     '####' # '####'        



                #########################################################
                #                        -***-                          #
                #          Department of theory and spectroscopy        #
                #                                                       #
                #                      Frank Neese                      #
                #                                                       #
                #     Directorship, Architecture, Infrastructure        #
                #                    SHARK, DRIVERS                     #
                #        Core code/Algorithms in most modules           #
                #                                                       #
                #        Max Planck Institute fuer Kohlenforschung      #
                #                Kaiser Wilhelm Platz 1                 #
                #                 D-45470 Muelheim/Ruhr                 #
                #                      Germany                          #
                #                                                       #
                #                  All rights reserved                  #
                #                        -***-                          #
                #########################################################


                         Program Version 6.0.0  -   RELEASE   -


 With contributions from (in alphabetic order):
   Daniel Aravena         : Magnetic Suceptibility
   Michael Atanasov       : Ab Initio Ligand Field Theory (pilot matlab implementation)
   Alexander A. Auer      : GIAO ZORA, VPT2 properties, NMR spectrum
   Ute Becker             : All parallelization in ORCA, NUMFREQ, NUMCALC
   Giovanni Bistoni       : ED, misc. LED, open-shell LED, HFLD
   Martin Brehm           : Molecular dynamics
   Dmytro Bykov           : pre 5.0 version of the SCF Hessian
   Marcos Casanova-Páez   : Triplet and SCS-CIS(D). UHF-(DLPNO)-IP/EA/STEOM-CCSD. UHF-CVS-IP/STEOM-CCSD
   Vijay G. Chilkuri      : MRCI spin determinant printing, contributions to CSF-ICE
   Pauline Colinet        : FMM embedding
   Dipayan Datta          : RHF DLPNO-CCSD density
   Achintya Kumar Dutta   : EOM-CC, STEOM-CC
   Nicolas Foglia         : Exact transition moments, OPA infrastructure, MCD improvements
   Dmitry Ganyushin       : Spin-Orbit,Spin-Spin,Magnetic field MRCI
   Miquel Garcia          : C-PCM and meta-GGA Hessian, CCSD/C-PCM, Gaussian charge scheme
   Tiago L. C. Gouveia    : GS-ROHF, GS-ROCIS
   Yang Guo               : DLPNO-NEVPT2, F12-NEVPT2, CIM, IAO-localization
   Andreas Hansen         : Spin unrestricted coupled pair/coupled cluster methods
   Ingolf Harden          : AUTO-CI MPn and infrastructure 
   Benjamin Helmich-Paris : MC-RPA, TRAH-(SCF,CASSCF), AVAS, COSX integrals, SCF dyn. polar.
   Lee Huntington         : MR-EOM, pCC
   Robert Izsak           : Overlap fitted RIJCOSX, COSX-SCS-MP3, EOM
   Riya Kayal             : Wick's Theorem for AUTO-CI, AUTO-CI UHF-CCSDT
   Emily Kempfer          : AUTO-CI, RHF CISDT and CCSDT
   Christian Kollmar      : KDIIS, OOCD, Brueckner-CCSD(T), CCSD density, CASPT2, CASPT2-K, improved NEVPT2
   Axel Koslowski         : Symmetry handling
   Simone Kossmann        : Meta GGA functionals, TD-DFT gradient, OOMP2, (MP2 Hessian; deprecated post 5.0)
   Lucas Lang             : DCDCAS
   Marvin Lechner         : AUTO-CI (C++ implementation), FIC-MRCC
   Spencer Leger          : CASSCF response
   Dagmar Lenk            : GEPOL surface, SMD, ORCA-2-JSON
   Dimitrios Liakos       : Extrapolation schemes; Compound Job, initial MDCI parallelization
   Dimitrios Manganas     : Further ROCIS development; embedding schemes. LFT, Crystal Embedding
   Dimitrios Pantazis     : SARC Basis sets
   Anastasios Papadopoulos: AUTO-CI, single reference methods and gradients
   Taras Petrenko         : pre 6.0 DFT Hessian and TD-DFT gradient, (ASA, deprecated), ECA, 1-Electron XAS/XES, NRVS
   Peter Pinski           : DLPNO-MP2, DLPNO-MP2 Gradient
   Christoph Reimann      : Effective Core Potentials
   Marius Retegan         : Local ZFS, SOC
   Christoph Riplinger    : Optimizer, TS searches, QM/MM, DLPNO-CCSD(T), (RO)-DLPNO pert. Triples
   Michael Roemelt        : Original ROCIS implementation
   Masaaki Saitow         : Open-shell DLPNO-CCSD energy and density
   Barbara Sandhoefer     : DKH picture change effects
   Kantharuban Sivalingam : CASSCF convergence/infrastructure, NEVPT2 and variants, FIC-MRCI
   Bernardo de Souza      : ESD, SOC TD-DFT
   Georgi Stoychev        : AutoAux, RI-MP2 NMR, DLPNO-MP2 response, X2C
   Van Anh Tran           : RI-MP2 g-tensors
   Willem Van den Heuvel  : Paramagnetic NMR
   Zikuan Wang            : NOTCH, Electric field optimization 
   Frank Wennmohs         : Technical directorship and infrastructure
   Hang Xu                : AUTO-CI-Response properties 


 We gratefully acknowledge several colleagues who have allowed us to
 interface, adapt or use parts of their codes:
   Stefan Grimme, W. Hujo, H. Kruse, P. Pracht,  : VdW corrections, initial TS optimization,
                  C. Bannwarth, S. Ehlert,         DFT functionals, gCP, sTDA/sTD-DF
                  L. Wittmann, M. Mueller
   Ed Valeev, F. Pavosevic, A. Kumar             : LibInt (2-el integral package), F12 methods
   Garnet Chan, S. Sharma, J. Yang, R. Olivares  : DMRG
   Ulf Ekstrom                                   : XCFun DFT Library
   Mihaly Kallay                                 : mrcc  (arbitrary order and MRCC methods)
   Frank Weinhold                                : gennbo (NPA and NBO analysis)
   Simon Mueller                                 : openCOSMO-RS
   Christopher J. Cramer and Donald G. Truhlar   : smd solvation model
   Lars Goerigk                                  : TD-DFT with DH, B97 family of functionals
   V. Asgeirsson, H. Jonsson                     : NEB implementation
   FAccTs GmbH                                   : IRC, NEB, NEB-TS, DLPNO-Multilevel, CI-OPT
                                                   MM, QMMM, 2- and 3-layer-ONIOM, Crystal-QMMM,
                                                   LR-CPCM, SF, NACMEs, symmetry and pop. for TD-DFT,
                                                   nearIR, NL-DFT gradient (VV10), updates on ESD,
                                                   ML-optimized integration grids, MBIS, APM,
                                                   GOAT, DOCKER, SOLVATOR, interface openCOSMO-RS
   S Lehtola, MJT Oliveira, MAL Marques          : LibXC Library
   Liviu Ungur et al                             : ANISO software


 Your calculation uses the libint2 library for the computation of 2-el integrals
 For citations please refer to: http://libint.valeyev.net

 Your ORCA version has been built with support for libXC version: 6.2.2
 For citations please refer to: https://libxc.gitlab.io

 This ORCA versions uses:
   CBLAS   interface :  Fast vector & matrix operations
   LAPACKE interface :  Fast linear algebra routines
   Shared memory     :  Shared parallel matrices


Your calculation utilizes the atom-pairwise dispersion correction
with the Becke-Johnson damping scheme (D3BJ)


Warning: RI is on but no J-basis has been assigned. Assigning Def2/J (nothing to worry about!)
================================================================================

----- Orbital basis set information -----
Your calculation utilizes the basis: def2-SVP
   F. Weigend and R. Ahlrichs, Phys. Chem. Chem. Phys. 7, 3297 (2005).

----- AuxJ basis set information -----
Your calculation utilizes the auxiliary basis: def2/J
   F. Weigend, Phys. Chem. Chem. Phys. 8, 1057 (2006).

================================================================================
                                        WARNINGS
                       Please study these warnings very carefully!
================================================================================


WARNING: Geometry Optimization
  ===> : Switching off AutoStart
         For restart on a previous wavefunction, please use MOREAD

================================================================================
                                       INPUT FILE
================================================================================
NAME = data/geom_opt/621893/621893.inp
|  1> ! RIJONX B3LYP def2-SVP D3BJ TIGHTSCF Opt
|  2> %pal
|  3> nprocs 6
|  4> end
|  5> 
|  6> * xyz 0 1
|  7> C      3.906602   -1.546212   -0.975495
|  8> C      2.920960   -2.478729   -0.668239
|  9> C      1.780685   -2.086757    0.040607
| 10> C      1.591211   -0.753031    0.439062
| 11> C      2.614025    0.164509    0.141276
| 12> C      3.755561   -0.224887   -0.567138
| 13> P      0.132872   -0.257722    1.426414
| 14> C     -0.199133    1.444748    0.851524
| 15> C     -0.388091    1.773247   -0.499513
| 16> C     -0.637395    3.091716   -0.888816
| 17> C     -0.701508    4.101729    0.067633
| 18> C     -0.515944    3.794602    1.413249
| 19> C     -0.266557    2.475658    1.802637
| 20> C     -1.273721   -1.129239    0.669021
| 21> C     -2.408045   -1.396367    1.434433
| 22> C     -3.485791   -2.053329    0.844201
| 23> C     -3.407022   -2.424418   -0.491147
| 24> C     -2.248316   -2.120939   -1.182995
| 25> N     -1.189157   -1.486591   -0.635215
| 26> H      4.792303   -1.849647   -1.526494
| 27> H      3.034359   -3.514192   -0.977354
| 28> H      1.032677   -2.842705    0.270297
| 29> H      2.539590    1.202235    0.459483
| 30> H      4.526063    0.507017   -0.794068
| 31> H     -0.338017    1.001549   -1.266293
| 32> H     -0.780299    3.325308   -1.940512
| 33> H     -0.895387    5.126929   -0.236078
| 34> H     -0.564425    4.580898    2.161922
| 35> H     -0.122782    2.262275    2.859840
| 36> H     -2.463550   -1.097164    2.476379
| 37> H     -4.378921   -2.269017    1.423415
| 38> H     -4.227983   -2.934735   -0.981619
| 39> H     -2.134863   -2.386738   -2.230009
| 40> **                         ****END OF INPUT****
================================================================================

                       *****************************
                       * Geometry Optimization Run *
                       *****************************

Geometry optimization settings:
Update method            Update   .... BFGS
Choice of coordinates    CoordSys .... (2022) Redundant Internals
Initial Hessian          InHess   .... Almloef's Model
Max. no of cycles        MaxIter  .... 99

Convergence Tolerances:
Energy Change            TolE     ....  5.0000e-06 Eh
Max. Gradient            TolMAXG  ....  3.0000e-04 Eh/bohr
RMS Gradient             TolRMSG  ....  1.0000e-04 Eh/bohr
Max. Displacement        TolMAXD  ....  4.0000e-03 bohr
RMS Displacement         TolRMSD  ....  2.0000e-03 bohr
Strict Convergence                .... False

------------------------------------------------------------------------------
                        ORCA OPTIMIZATION COORDINATE SETUP
------------------------------------------------------------------------------

The optimization will be done in redundant internal coordinates (2022)
Making redundant internal coordinates   ...  (2022 redundants) done
Evaluating the initial hessian          ...  (Almloef) done
Evaluating the coordinates              ...  done
Calculating the B-matrix                .... done
Calculating the G-matrix                .... done
Diagonalizing the G-matrix              .... done
Small eigenvalue found = 4.876e-03
Small eigenvalue found = 7.366e-03
Small eigenvalue found = 1.050e-02
Small eigenvalue found = 2.663e-02
The first mode is                       ....   77
The number of degrees of freedom        ....   93

    -----------------------------------------------------------------
                    Redundant Internal Coordinates


    -----------------------------------------------------------------
         Definition                    Initial Value    Approx d2E/dq
    -----------------------------------------------------------------
      1. B(C   1,C   0)                  1.3912         0.622010   
      2. B(C   2,C   1)                  1.3987         0.605167   
      3. B(C   3,C   2)                  1.4048         0.591711   
      4. B(C   4,C   3)                  1.4060         0.589232   
      5. B(C   5,C   4)                  1.3988         0.604967   
      6. B(C   5,C   0)                  1.3912         0.622023   
      7. B(P   6,C   3)                  1.8295         0.417919   
      8. B(C   7,P   6)                  1.8273         0.421214   
      9. B(C   8,C   7)                  1.4032         0.595263   
     10. B(C   9,C   8)                  1.3972         0.608566   
     11. B(C  10,C   9)                  1.3925         0.619105   
     12. B(C  11,C  10)                  1.3926         0.618768   
     13. B(C  12,C  11)                  1.3977         0.607478   
     14. B(C  12,C   7)                  1.4043         0.592915   
     15. B(C  13,P   6)                  1.8198         0.433018   
     16. B(C  14,C  13)                  1.3942         0.615141   
     17. B(C  15,C  14)                  1.3934         0.617085   
     18. B(C  16,C  15)                  1.3882         0.628969   
     19. B(C  17,C  16)                  1.3832         0.640507   
     20. B(N  18,C  17)                  1.3507         0.646610   
     21. B(N  18,C  13)                  1.3549         0.636501   
     22. B(H  19,C   0)                  1.0863         0.364972   
     23. B(H  20,C   1)                  1.0866         0.364690   
     24. B(H  21,C   2)                  1.0880         0.362764   
     25. B(H  22,C   4)                  1.0880         0.362800   
     26. B(H  23,C   5)                  1.0867         0.364531   
     27. B(H  24,C   8)                  1.0890         0.361391   
     28. B(H  25,C   9)                  1.0868         0.364409   
     29. B(H  26,C  10)                  1.0867         0.364524   
     30. B(H  27,C  11)                  1.0868         0.364365   
     31. B(H  28,C  12)                  1.0881         0.362671   
     32. B(H  29,C  14)                  1.0855         0.366137   
     33. B(H  30,C  15)                  1.0861         0.365248   
     34. B(H  31,C  16)                  1.0840         0.368183   
     35. B(H  32,C  17)                  1.0862         0.365206   
     36. A(C   5,C   0,H  19)          120.1775         0.353908   
     37. A(C   1,C   0,H  19)          120.1601         0.353907   
     38. A(C   1,C   0,C   5)          119.6614         0.434574   
     39. A(C   2,C   1,H  20)          119.7573         0.352220   
     40. A(C   0,C   1,C   2)          120.1102         0.432431   
     41. A(C   0,C   1,H  20)          120.1324         0.353861   
     42. A(C   1,C   2,C   3)          121.3164         0.428572   
     43. A(C   3,C   2,H  21)          120.4671         0.350570   
     44. A(C   1,C   2,H  21)          118.2140         0.351905   
     45. A(C   2,C   3,P   6)          121.1735         0.427809   
     46. A(C   2,C   3,C   4)          117.4770         0.426527   
     47. A(C   4,C   3,P   6)          121.1668         0.427487   
     48. A(C   5,C   4,H  22)          118.0011         0.351891   
     49. A(C   3,C   4,C   5)          121.2847         0.428224   
     50. A(C   3,C   4,H  22)          120.7140         0.350327   
     51. A(C   0,C   5,C   4)          120.1097         0.432407   
     52. A(C   0,C   5,H  23)          120.0938         0.353836   
     53. A(C   4,C   5,H  23)          119.7960         0.352174   
     54. A(C   3,P   6,C   7)          103.1370         0.429377   
     55. A(C   3,P   6,C  13)          105.1805         0.431513   
     56. A(C   7,P   6,C  13)          100.0677         0.432123   
     57. A(C   8,C   7,C  12)          118.2815         0.427461   
     58. A(P   6,C   7,C  12)          118.6598         0.428568   
     59. A(P   6,C   7,C   8)          123.0586         0.428872   
     60. A(C   7,C   8,C   9)          120.8796         0.429463   
     61. A(C   9,C   8,H  24)          118.7322         0.352012   
     62. A(C   7,C   8,H  24)          120.3876         0.350700   
     63. A(C  10,C   9,H  25)          120.1815         0.353534   
     64. A(C   8,C   9,H  25)          119.7322         0.352508   
     65. A(C   8,C   9,C  10)          120.0863         0.432503   
     66. A(C   9,C  10,C  11)          119.8396         0.433798   
     67. A(C  11,C  10,H  26)          120.1246         0.353520   
     68. A(C   9,C  10,H  26)          120.0358         0.353553   
     69. A(C  12,C  11,H  27)          119.9202         0.352394   
     70. A(C  10,C  11,H  27)          120.0079         0.353494   
     71. A(C  10,C  11,C  12)          120.0719         0.432322   
     72. A(C  11,C  12,H  28)          118.6427         0.352116   
     73. A(C   7,C  12,H  28)          120.5161         0.350675   
     74. A(C   7,C  12,C  11)          120.8411         0.429021   
     75. A(C  14,C  13,N  18)          121.9164         0.432655   
     76. A(P   6,C  13,N  18)          118.5995         0.433372   
     77. A(P   6,C  13,C  14)          119.4798         0.433557   
     78. A(C  15,C  14,H  29)          119.8031         0.353621   
     79. A(C  13,C  14,H  29)          121.0481         0.353433   
     80. A(C  13,C  14,C  15)          119.1482         0.433085   
     81. A(C  16,C  15,H  30)          120.4346         0.354620   
     82. A(C  14,C  15,H  30)          120.2493         0.353476   
     83. A(C  14,C  15,C  16)          119.3158         0.434821   
     84. A(C  17,C  16,H  31)          120.7576         0.356199   
     85. A(C  15,C  16,H  31)          121.2073         0.355102   
     86. A(C  15,C  16,C  17)          118.0349         0.437749   
     87. A(N  18,C  17,H  32)          115.0853         0.354082   
     88. A(C  16,C  17,H  32)          121.0605         0.355708   
     89. A(C  16,C  17,N  18)          123.8541         0.437051   
     90. A(C  13,N  18,C  17)          117.7304         0.433698   
     91. D(H  20,C   1,C   0,C   5)   -179.5715         0.026783   
     92. D(H  20,C   1,C   0,H  19)      0.0766         0.026783   
     93. D(C   2,C   1,C   0,H  19)   -179.9656         0.026783   
     94. D(C   2,C   1,C   0,C   5)      0.3863         0.026783   
     95. D(C   3,C   2,C   1,H  20)   -179.0497         0.025271   
     96. D(C   3,C   2,C   1,C   0)      0.9924         0.025271   
     97. D(H  21,C   2,C   1,C   0)   -179.5828         0.025271   
     98. D(H  21,C   2,C   1,H  20)      0.3752         0.025271   
     99. D(P   6,C   3,C   2,H  21)      3.1789         0.024101   
    100. D(P   6,C   3,C   2,C   1)   -177.4091         0.024101   
    101. D(C   4,C   3,C   2,H  21)    178.3212         0.024101   
    102. D(C   4,C   3,C   2,C   1)     -2.2668         0.024101   
    103. D(H  22,C   4,C   3,C   2)   -177.6132         0.023890   
    104. D(C   5,C   4,C   3,C   2)      2.2461         0.023890   
    105. D(C   5,C   4,C   3,P   6)    177.3888         0.023890   
    106. D(H  22,C   4,C   3,P   6)     -2.4705         0.023890   
    107. D(H  23,C   5,C   4,H  22)     -0.8391         0.025253   
    108. D(C   0,C   5,C   4,H  22)    178.9120         0.025253   
    109. D(C   0,C   5,C   4,C   3)     -0.9511         0.025253   
    110. D(H  23,C   5,C   0,H  19)     -0.3036         0.026784   
    111. D(H  23,C   5,C   0,C   1)    179.3444         0.026784   
    112. D(H  23,C   5,C   4,C   3)    179.2979         0.025253   
    113. D(C   4,C   5,C   0,H  19)    179.9461         0.026784   
    114. D(C   4,C   5,C   0,C   1)     -0.4059         0.026784   
    115. D(C  13,P   6,C   3,C   4)    142.0478         0.003671   
    116. D(C  13,P   6,C   3,C   2)    -42.9893         0.003671   
    117. D(C   7,P   6,C   3,C   4)     37.6102         0.003671   
    118. D(C   7,P   6,C   3,C   2)   -147.4269         0.003671   
    119. D(C  12,C   7,P   6,C   3)   -125.2816         0.003706   
    120. D(C   8,C   7,P   6,C  13)    -53.7410         0.003706   
    121. D(C   8,C   7,P   6,C   3)     54.5920         0.003706   
    122. D(C  12,C   7,P   6,C  13)    126.3854         0.003706   
    123. D(H  24,C   8,C   7,C  12)    179.6911         0.024407   
    124. D(H  24,C   8,C   7,P   6)     -0.1829         0.024407   
    125. D(C   9,C   8,C   7,C  12)     -0.0234         0.024407   
    126. D(C   9,C   8,C   7,P   6)   -179.8975         0.024407   
    127. D(H  25,C   9,C   8,H  24)      0.2411         0.025571   
    128. D(H  25,C   9,C   8,C   7)    179.9603         0.025571   
    129. D(C  10,C   9,C   8,H  24)   -179.7211         0.025571   
    130. D(C  10,C   9,C   8,C   7)     -0.0019         0.025571   
    131. D(H  26,C  10,C   9,H  25)      0.0336         0.026518   
    132. D(H  26,C  10,C   9,C   8)    179.9956         0.026518   
    133. D(C  11,C  10,C   9,H  25)   -179.9342         0.026518   
    134. D(C  11,C  10,C   9,C   8)      0.0279         0.026518   
    135. D(H  27,C  11,C  10,H  26)     -0.0286         0.026487   
    136. D(H  27,C  11,C  10,C   9)    179.9391         0.026487   
    137. D(C  12,C  11,C  10,H  26)   -179.9956         0.026487   
    138. D(C  12,C  11,C  10,C   9)     -0.0279         0.026487   
    139. D(H  28,C  12,C  11,H  27)     -0.1101         0.025475   
    140. D(C   7,C  12,C  11,H  27)   -179.9651         0.025475   
    141. D(C   7,C  12,C  11,C  10)      0.0020         0.025475   
    142. D(H  28,C  12,C   7,C   8)   -179.8289         0.024205   
    143. D(H  28,C  12,C   7,P   6)      0.0508         0.024205   
    144. D(H  28,C  12,C  11,C  10)    179.8570         0.025475   
    145. D(C  11,C  12,C   7,C   8)      0.0234         0.024205   
    146. D(C  11,C  12,C   7,P   6)    179.9031         0.024205   
    147. D(N  18,C  13,P   6,C   7)     81.3875         0.003836   
    148. D(N  18,C  13,P   6,C   3)    -25.3121         0.003836   
    149. D(C  14,C  13,P   6,C   7)    -97.8705         0.003836   
    150. D(C  14,C  13,P   6,C   3)    155.4299         0.003836   
    151. D(H  29,C  14,C  13,P   6)     -0.3099         0.026159   
    152. D(C  15,C  14,C  13,N  18)      0.1922         0.026159   
    153. D(C  15,C  14,C  13,P   6)    179.4248         0.026159   
    154. D(H  29,C  14,C  13,N  18)   -179.5424         0.026159   
    155. D(H  30,C  15,C  14,H  29)     -0.1644         0.026335   
    156. D(H  30,C  15,C  14,C  13)   -179.9024         0.026335   
    157. D(C  16,C  15,C  14,H  29)    179.6244         0.026335   
    158. D(C  16,C  15,C  14,C  13)     -0.1137         0.026335   
    159. D(H  31,C  16,C  15,H  30)     -0.0733         0.027424   
    160. D(H  31,C  16,C  15,C  14)   -179.8616         0.027424   
    161. D(C  17,C  16,C  15,H  30)    179.7701         0.027424   
    162. D(C  17,C  16,C  15,C  14)     -0.0182         0.027424   
    163. D(H  32,C  17,C  16,H  31)     -0.0344         0.028507   
    164. D(H  32,C  17,C  16,C  15)   -179.8785         0.028507   
    165. D(N  18,C  17,C  16,H  31)    179.9297         0.028507   
    166. D(N  18,C  17,C  16,C  15)      0.0856         0.028507   
    167. D(C  13,N  18,C  17,H  32)    179.9529         0.030874   
    168. D(C  13,N  18,C  17,C  16)     -0.0132         0.030874   
    169. D(C  17,N  18,C  13,C  14)     -0.1280         0.029841   
    170. D(C  17,N  18,C  13,P   6)   -179.3670         0.029841   
    -----------------------------------------------------------------

Number of atoms                         .... 33
Number of degrees of freedom            .... 170


         *************************************************************
         *                GEOMETRY OPTIMIZATION CYCLE   1            *
         *************************************************************
---------------------------------
CARTESIAN COORDINATES (ANGSTROEM)
---------------------------------
  C      3.906602   -1.546212   -0.975495
  C      2.920960   -2.478729   -0.668239
  C      1.780685   -2.086757    0.040607
  C      1.591211   -0.753031    0.439062
  C      2.614025    0.164509    0.141276
  C      3.755561   -0.224887   -0.567138
  P      0.132872   -0.257722    1.426414
  C     -0.199133    1.444748    0.851524
  C     -0.388091    1.773247   -0.499513
  C     -0.637395    3.091716   -0.888816
  C     -0.701508    4.101729    0.067633
  C     -0.515944    3.794602    1.413249
  C     -0.266557    2.475658    1.802637
  C     -1.273721   -1.129239    0.669021
  C     -2.408045   -1.396367    1.434433
  C     -3.485791   -2.053329    0.844201
  C     -3.407022   -2.424418   -0.491147
  C     -2.248316   -2.120939   -1.182995
  N     -1.189157   -1.486591   -0.635215
  H      4.792303   -1.849647   -1.526494
  H      3.034359   -3.514192   -0.977354
  H      1.032677   -2.842705    0.270297
  H      2.539590    1.202235    0.459483
  H      4.526063    0.507017   -0.794068
  H     -0.338017    1.001549   -1.266293
  H     -0.780299    3.325308   -1.940512
  H     -0.895387    5.126929   -0.236078
  H     -0.564425    4.580898    2.161922
  H     -0.122782    2.262275    2.859840
  H     -2.463550   -1.097164    2.476379
  H     -4.378921   -2.269017    1.423415
  H     -4.227983   -2.934735   -0.981619
  H     -2.134863   -2.386738   -2.230009

----------------------------
CARTESIAN COORDINATES (A.U.)
----------------------------
  NO LB      ZA    FRAG     MASS         X           Y           Z
   0 C     6.0000    0    12.011    7.382408   -2.921917   -1.843418
   1 C     6.0000    0    12.011    5.519814   -4.684119   -1.262789
   2 C     6.0000    0    12.011    3.365007   -3.943399    0.076736
   3 C     6.0000    0    12.011    3.006953   -1.423022    0.829707
   4 C     6.0000    0    12.011    4.939791    0.310877    0.266973
   5 C     6.0000    0    12.011    7.096982   -0.424975   -1.071736
   6 P    15.0000    0    30.974    0.251092   -0.487024    2.695532
   7 C     6.0000    0    12.011   -0.376307    2.730178    1.609147
   8 C     6.0000    0    12.011   -0.733386    3.350951   -0.943943
   9 C     6.0000    0    12.011   -1.204502    5.842497   -1.679619
  10 C     6.0000    0    12.011   -1.325658    7.751144    0.127808
  11 C     6.0000    0    12.011   -0.974993    7.170759    2.670654
  12 C     6.0000    0    12.011   -0.503720    4.678316    3.406490
  13 C     6.0000    0    12.011   -2.406984   -2.133952    1.264266
  14 C     6.0000    0    12.011   -4.550546   -2.638751    2.710686
  15 C     6.0000    0    12.011   -6.587190   -3.880229    1.595309
  16 C     6.0000    0    12.011   -6.438339   -4.581486   -0.928133
  17 C     6.0000    0    12.011   -4.248702   -4.007994   -2.235537
  18 N     7.0000    0    14.007   -2.247181   -2.809250   -1.200382
  19 H     1.0000    0     1.008    9.056140   -3.495326   -2.884656
  20 H     1.0000    0     1.008    5.734108   -6.640860   -1.846931
  21 H     1.0000    0     1.008    1.951477   -5.371934    0.510787
  22 H     1.0000    0     1.008    4.799130    2.271895    0.868297
  23 H     1.0000    0     1.008    8.553020    0.958123   -1.500571
  24 H     1.0000    0     1.008   -0.638760    1.892653   -2.392947
  25 H     1.0000    0     1.008   -1.474551    6.283921   -3.667036
  26 H     1.0000    0     1.008   -1.692036    9.688492   -0.446123
  27 H     1.0000    0     1.008   -1.066609    8.656643    4.085441
  28 H     1.0000    0     1.008   -0.232024    4.275080    5.404314
  29 H     1.0000    0     1.008   -4.655435   -2.073339    4.679678
  30 H     1.0000    0     1.008   -8.274961   -4.287821    2.689865
  31 H     1.0000    0     1.008   -7.989730   -5.545845   -1.854991
  32 H     1.0000    0     1.008   -4.034306   -4.510281   -4.214106

--------------------------------
INTERNAL COORDINATES (ANGSTROEM)
--------------------------------
 C      0   0   0     0.000000000000     0.00000000     0.00000000
 C      1   0   0     1.391216861955     0.00000000     0.00000000
 C      2   1   0     1.398689306503   120.11020318     0.00000000
 C      3   2   1     1.404810245826   121.31636320     0.99236720
 C      4   3   2     1.405953282294   117.47702456   357.73320122
 C      1   2   3     1.391211191284   119.66139276     0.38626684
 P      4   3   2     1.829466484062   121.17347522   182.59088609
 C      7   4   3     1.827328633012   103.13699422   212.57308229
 C      8   7   4     1.403181276291   123.05858139    54.59203817
 C      9   8   7     1.397164920182   120.87961292   180.10251678
 C     10   9   8     1.392491086700   120.08628091     0.00000000
 C     11  10   9     1.392639009823   119.83961411     0.02788886
 C     12  11  10     1.397651660983   120.07192138   359.97205859
 C      7   4   3     1.819804908606   105.18050180   317.01068545
 C     14   7   4     1.394239518556   119.47982715   155.42989901
 C     15  14   7     1.393380538038   119.14823406   179.42475687
 C     16  15  14     1.388187985248   119.31575177   359.88633656
 C     17  16  15     1.383239947725   118.03489190     0.00000000
 N     18  17  16     1.350658395297   123.85412481     0.08555321
 H      1   2   3     1.086342008130   120.16012419   180.03437080
 H      2   1   3     1.086551904326   120.13243678   180.04219048
 H      3   2   1     1.087993953507   118.21400322   180.41723765
 H      5   4   3     1.087966688438   120.71404681   182.38681241
 H      6   1   2     1.086671073564   120.09381519   179.34440179
 H      9   8   7     1.089025609010   120.38756262   359.81710209
 H     10   9   8     1.086761819396   119.73221723   179.96031107
 H     11  10   9     1.086675884596   120.03577835   179.99561997
 H     12  11  10     1.086794860084   120.00790567   179.93914305
 H     13  12  11     1.088063297112   118.64271830   179.85702247
 H     15  14   7     1.085474415705   121.04809567   359.69009113
 H     16  15  14     1.086135980455   120.24927946   180.09761542
 H     17  16  15     1.083957188635   121.20727782   180.13838832
 H     18  17  16     1.086167117807   121.06053789   180.12146406

---------------------------
INTERNAL COORDINATES (A.U.)
---------------------------
 C      0   0   0     0.000000000000     0.00000000     0.00000000
 C      1   0   0     2.629018861989     0.00000000     0.00000000
 C      2   1   0     2.643139735734   120.11020318     0.00000000
 C      3   2   1     2.654706634737   121.31636320     0.99236720
 C      4   3   2     2.656866660622   117.47702456   357.73320122
 C      1   2   3     2.629008145974   119.66139276     0.38626684
 P      4   3   2     3.457190626065   121.17347522   182.59088609
 C      7   4   3     3.453150673065   103.13699422   212.57308229
 C      8   7   4     2.651628328436   123.05858139    54.59203817
 C      9   8   7     2.640259063065   120.87961292   180.10251678
 C     10   9   8     2.631426797789   120.08628091     0.00000000
 C     11  10   9     2.631706331981   119.83961411     0.02788886
 C     12  11  10     2.641178869878   120.07192138   359.97205859
 C      7   4   3     3.438932894431   105.18050180   317.01068545
 C     14   7   4     2.634730855162   119.47982715   155.42989901
 C     15  14   7     2.633107617228   119.14823406   179.42475687
 C     16  15  14     2.623295114518   119.31575177   359.88633656
 C     17  16  15     2.613944678699   118.03489190     0.00000000
 N     18  17  16     2.552374467592   123.85412481     0.08555321
 H      1   2   3     2.052888883139   120.16012419   180.03437080
 H      2   1   3     2.053285529467   120.13243678   180.04219048
 H      3   2   1     2.056010607491   118.21400322   180.41723765
 H      5   4   3     2.055959083976   120.71404681   182.38681241
 H      6   1   2     2.053510726690   120.09381519   179.34440179
 H      9   8   7     2.057960153856   120.38756262   359.81710209
 H     10   9   8     2.053682211460   119.73221723   179.96031107
 H     11  10   9     2.053519818223   120.03577835   179.99561997
 H     12  11  10     2.053744649313   120.00790567   179.93914305
 H     13  12  11     2.056141647914   118.64271830   179.85702247
 H     15  14   7     2.051249371061   121.04809567   359.69009113
 H     16  15  14     2.052499547259   120.24927946   180.09761542
 H     17  16  15     2.048382227416   121.20727782   180.13838832
 H     18  17  16     2.052558388327   121.06053789   180.12146406

---------------------
BASIS SET INFORMATION
---------------------
There are 4 groups of distinct atoms

 Group   1 Type C   : 7s4p1d contracted to 3s2p1d pattern {511/31/1}
 Group   2 Type P   : 10s7p1d contracted to 4s3p1d pattern {5311/511/1}
 Group   3 Type N   : 7s4p1d contracted to 3s2p1d pattern {511/31/1}
 Group   4 Type H   : 4s1p contracted to 2s1p pattern {31/1}

Atom   0C    basis set group =>   1
Atom   1C    basis set group =>   1
Atom   2C    basis set group =>   1
Atom   3C    basis set group =>   1
Atom   4C    basis set group =>   1
Atom   5C    basis set group =>   1
Atom   6P    basis set group =>   2
Atom   7C    basis set group =>   1
Atom   8C    basis set group =>   1
Atom   9C    basis set group =>   1
Atom  10C    basis set group =>   1
Atom  11C    basis set group =>   1
Atom  12C    basis set group =>   1
Atom  13C    basis set group =>   1
Atom  14C    basis set group =>   1
Atom  15C    basis set group =>   1
Atom  16C    basis set group =>   1
Atom  17C    basis set group =>   1
Atom  18N    basis set group =>   3
Atom  19H    basis set group =>   4
Atom  20H    basis set group =>   4
Atom  21H    basis set group =>   4
Atom  22H    basis set group =>   4
Atom  23H    basis set group =>   4
Atom  24H    basis set group =>   4
Atom  25H    basis set group =>   4
Atom  26H    basis set group =>   4
Atom  27H    basis set group =>   4
Atom  28H    basis set group =>   4
Atom  29H    basis set group =>   4
Atom  30H    basis set group =>   4
Atom  31H    basis set group =>   4
Atom  32H    basis set group =>   4
---------------------------------
AUXILIARY/J BASIS SET INFORMATION
---------------------------------
There are 4 groups of distinct atoms

 Group   1 Type C   : 12s5p4d2f1g contracted to 6s4p3d1f1g pattern {711111/2111/211/2/1}
 Group   2 Type P   : 14s5p5d2f1g contracted to 8s4p3d1f1g pattern {71111111/2111/311/2/1}
 Group   3 Type N   : 12s5p4d2f1g contracted to 6s4p3d1f1g pattern {711111/2111/211/2/1}
 Group   4 Type H   : 5s2p1d contracted to 3s1p1d pattern {311/2/1}

Atom   0C    basis set group =>   1
Atom   1C    basis set group =>   1
Atom   2C    basis set group =>   1
Atom   3C    basis set group =>   1
Atom   4C    basis set group =>   1
Atom   5C    basis set group =>   1
Atom   6P    basis set group =>   2
Atom   7C    basis set group =>   1
Atom   8C    basis set group =>   1
Atom   9C    basis set group =>   1
Atom  10C    basis set group =>   1
Atom  11C    basis set group =>   1
Atom  12C    basis set group =>   1
Atom  13C    basis set group =>   1
Atom  14C    basis set group =>   1
Atom  15C    basis set group =>   1
Atom  16C    basis set group =>   1
Atom  17C    basis set group =>   1
Atom  18N    basis set group =>   3
Atom  19H    basis set group =>   4
Atom  20H    basis set group =>   4
Atom  21H    basis set group =>   4
Atom  22H    basis set group =>   4
Atom  23H    basis set group =>   4
Atom  24H    basis set group =>   4
Atom  25H    basis set group =>   4
Atom  26H    basis set group =>   4
Atom  27H    basis set group =>   4
Atom  28H    basis set group =>   4
Atom  29H    basis set group =>   4
Atom  30H    basis set group =>   4
Atom  31H    basis set group =>   4
Atom  32H    basis set group =>   4


           ************************************************************
           *        Program running with 6 parallel MPI-processes     *
           *              working on a common directory               *
           ************************************************************
------------------------------------------------------------------------------
                             ORCA STARTUP CALCULATIONS
                           -- RI-GTO INTEGRALS CHOSEN --
------------------------------------------------------------------------------
------------------------------------------------------------------------------
                   ___                                                        
                  /   \      - P O W E R E D   B Y -                         
                 /     \                                                     
                 |  |  |   _    _      __       _____    __    __             
                 |  |  |  | |  | |    /  \     |  _  \  |  |  /  |          
                  \  \/   | |  | |   /    \    | | | |  |  | /  /          
                 / \  \   | |__| |  /  /\  \   | |_| |  |  |/  /          
                |  |  |   |  __  | /  /__\  \  |    /   |      \           
                |  |  |   | |  | | |   __   |  |    \   |  |\   \          
                \     /   | |  | | |  |  |  |  | |\  \  |  | \   \       
                 \___/    |_|  |_| |__|  |__|  |_| \__\ |__|  \__/        
                                                                              
                      - O R C A' S   B I G   F R I E N D -                    
                                      &                                       
                       - I N T E G R A L  F E E D E R -                       
                                                                              
 v1 FN, 2020, v2 2021, v3 2022-2024                                           
------------------------------------------------------------------------------


----------------------
SHARK INTEGRAL PACKAGE
----------------------

Number of atoms                             ...     33
Number of basis functions                   ...    340
Number of shells                            ...    158
Maximum angular momentum                    ...      2
Integral batch strategy                     ... SHARK/LIBINT Hybrid
RI-J (if used) integral strategy            ... SPLIT-RIJ (Revised 2003 algorithm where possible)
Printlevel                                  ...      1
Contraction scheme used                     ... SEGMENTED contraction
Prescreening option                         ... SCHWARTZ
   Thresh                                   ... 2.500e-11
   Tcut                                     ... 2.500e-12
   Tpresel                                  ... 2.500e-12 
Coulomb Range Separation                    ... NOT USED
Exchange Range Separation                   ... NOT USED
Multipole approximations                    ... NOT USED
Finite Nucleus Model                        ... NOT USED
CABS basis                                  ... NOT available
Auxiliary Coulomb fitting basis             ... AVAILABLE
   # of basis functions in Aux-J            ...   1087
   # of shells in Aux-J                     ...    357
   Maximum angular momentum in Aux-J        ...      4
Auxiliary J/K fitting basis                 ... NOT available
Auxiliary Correlation fitting basis         ... NOT available
Auxiliary 'external' fitting basis          ... NOT available

Checking pre-screening integrals            ... done (  0.0 sec) Dimension = 158
Check shell pair data                       ... done (  0.0 sec)
Shell pair information
Shell pair cut-off parameter TPreSel        ...   2.5e-12
Total number of shell pairs                 ...     12561
Shell pairs after pre-screening             ...      9887
Total number of primitive shell pairs       ...     46659
Primitive shell pairs kept                  ...     23674
          la=0 lb=0:   2992 shell pairs
          la=1 lb=0:   3664 shell pairs
          la=1 lb=1:   1165 shell pairs
          la=2 lb=0:   1214 shell pairs
          la=2 lb=1:    734 shell pairs
          la=2 lb=2:    118 shell pairs

Calculating one electron integrals          ... done (  0.0 sec)
Calculating RI/J V-Matrix + Cholesky decomp.... done (  0.1 sec)
Calculating Nuclear repulsion               ... done (  0.0 sec) ENN=   1415.805768567601 Eh

Diagonalization of the overlap matrix:
Smallest eigenvalue                        ... 2.745e-04
Time for diagonalization                   ...    0.014 sec
Threshold for overlap eigenvalues          ... 1.000e-07
Number of eigenvalues below threshold      ... 0
Time for construction of square roots      ...    0.009 sec
Total time needed                          ...    0.024 sec

-------------------
DFT GRID GENERATION
-------------------

General Integration Accuracy     IntAcc      ... 4.388
Radial Grid Type                 RadialGrid  ... OptM3 with GC (2021)
Angular Grid (max. ang.)         AngularGrid ... 4 (Lebedev-302)
Angular grid pruning method      GridPruning ... 4 (adaptive)
Weight generation scheme         WeightScheme... mBecke (2022)
Basis function cutoff            BFCut       ... 1.0000e-11
Integration weight cutoff        WCut        ... 1.0000e-14
Partially contracted basis set               ... off
Rotationally invariant grid construction     ... off
Angular grids for H and He will be reduced by one unit

Total number of grid points                  ...   159615
Total number of batches                      ...     2514
Average number of points per batch           ...       63
Average number of grid points per atom       ...     4837
Initializing property integral containers    ... done (  0.0 sec)

SHARK setup successfully completed in   1.2 seconds

Maximum memory used throughout the entire STARTUP-calculation: 42.0 MB


           ************************************************************
           *        Program running with 6 parallel MPI-processes     *
           *              working on a common directory               *
           ************************************************************
-------------------------------------------------------------------------------
                                 ORCA GUESS
                   Start orbitals & Density for SCF / CASSCF
-------------------------------------------------------------------------------

------------
SCF SETTINGS
------------
Hamiltonian:
 Density Functional     Method          .... DFT(GTOs)
 Exchange Functional    Exchange        .... B88
   X-Alpha parameter    XAlpha          ....  0.666667
   Becke's b parameter  XBeta           ....  0.004200
 Correlation Functional Correlation     .... LYP
 LDA part of GGA corr.  LDAOpt          .... VWN-5
 Gradients option       PostSCFGGA      .... off
 Hybrid DFT is turned on
   Fraction HF Exchange ScalHFX         ....  0.200000
   Scaling of DF-GGA-X  ScalDFX         ....  0.720000
   Scaling of DF-GGA-C  ScalDFC         ....  0.810000
   Scaling of DF-LDA-C  ScalLDAC        ....  1.000000
   Perturbative correction              ....  0.000000
   NL short-range parameter             ....  4.800000
 RI-approximation to the Coulomb term is turned on
   Number of AuxJ basis functions       .... 1087
   RIJ-ON(X) (HFX calculated with O(N)) .... on


General Settings:
 Integral files         IntName         .... data/geom_opt/621893/621893
 Hartree-Fock type      HFTyp           .... RHF
 Total Charge           Charge          ....    0
 Multiplicity           Mult            ....    1
 Number of Electrons    NEL             ....  138
 Basis Dimension        Dim             ....  340
 Nuclear Repulsion      ENuc            ....   1415.8057685676 Eh

Convergence Acceleration:
 AO-DIIS                CNVDIIS         .... on
   Start iteration      DIISMaxIt       ....    12
   Startup error        DIISStart       ....  0.200000
   # of expansion vecs  DIISMaxEq       ....     5
   Bias factor          DIISBfac        ....   1.050
   Max. coefficient     DIISMaxC        ....  10.000
 MO-DIIS                CNVKDIIS        .... off
 Trust-Rad. Augm. Hess. CNVTRAH         .... auto
   Auto Start mean grad. ratio tolernc. ....  1.125000
   Auto Start start iteration           ....    50
   Auto Start num. interpolation iter.  ....    10
   Max. Number of Micro iterations      ....    24
   Max. Number of Macro iterations      .... Maxiter - #DIIS iter
   Number of Davidson start vectors     ....     2
   Converg. threshold    (grad. norm)   ....   1.000e-05
   Grad. Scal. Fac. for Micro threshold ....   0.100
   Minimum threshold for Micro iter.    ....   1.000e-02
   NR start threshold (gradient norm)   ....   1.000e-04
   Initial trust radius                 ....   0.400
   Minimum AH scaling param. (alpha)    ....   1.000
   Maximum AH scaling param. (alpha)    .... 1000.000
   Quad. conv. algorithm                .... NR
   White noise on init. David. guess    .... on
   Maximum white noise                  ....   0.010
   Pseudo random numbers                .... off
   Inactive MOs                         .... canonical
   Orbital update algorithm             .... Taylor
   Preconditioner                       .... Diag
   Full preconditioner red. dimension   ....   250
   COSX micro iterations for RIJONX calc.... off
 SOSCF                  CNVSOSCF        .... on
   Start iteration      SOSCFMaxIt      ....   150
   Startup grad/error   SOSCFStart      ....  0.003300
   Hessian update       SOSCFHessUp     .... L-BFGS
 Level Shifting         CNVShift        .... on
   Level shift para.    LevelShift      ....    0.2500
   Turn off err/grad.   ShiftErr        ....    0.0010
 Zerner damping         CNVZerner       .... off
 Static damping         CNVDamp         .... on
   Fraction old density DampFac         ....    0.7000
   Max. Damping (<1)    DampMax         ....    0.9800
   Min. Damping (>=0)   DampMin         ....    0.0000
   Turn off err/grad.   DampErr         ....    0.1000

SCF Procedure:
 Maximum # iterations   MaxIter         ....   125
 SCF integral mode      SCFMode         .... Direct
   Integral package                     .... SHARK and LIBINT hybrid scheme
 Reset frequency        DirectResetFreq ....    20
 Integral Threshold     Thresh          ....  2.500e-11 Eh
 Primitive CutOff       TCut            ....  2.500e-12 Eh

Convergence Tolerance:
 Convergence Check Mode ConvCheckMode   .... Total+1el-Energy
 Convergence forced     ConvForced      .... 0
 Energy Change          TolE            ....  1.000e-08 Eh
 1-El. energy change                    ....  1.000e-05 Eh
 Orbital Gradient       TolG            ....  1.000e-05
 Orbital Rotation angle TolX            ....  1.000e-05
 DIIS Error             TolErr          ....  5.000e-07

------------------------------
INITIAL GUESS: MODEL POTENTIAL
------------------------------
Loading Hartree-Fock densities                     ... done
Calculating cut-offs                               ... done
Initializing the effective Hamiltonian             ... done
Setting up the integral package (SHARK)            ... done
Starting the Coulomb interaction                   ... done (   0.2 sec)
Making the grid                                    ... done (   0.2 sec)
Mapping shells                                     ... done
Starting the XC term evaluation                    ... done (   0.1 sec)
  promolecular density results
     # of electrons  =    137.995807968
     EX              =   -120.746186317
     EC              =     -4.736132971
     EX+EC           =   -125.482319288
Transforming the Hamiltonian                       ... done (   0.0 sec)
Diagonalizing the Hamiltonian                      ... done (   0.0 sec)
Back transforming the eigenvectors                 ... done (   0.0 sec)
Now organizing SCF variables                       ... done
                      ------------------
                      INITIAL GUESS DONE (   0.6 sec)
                      ------------------
             **** ENERGY FILE WAS UPDATED (data/geom_opt/621893/621893.en.tmp) ****
Finished Guess after   0.7 sec
Maximum memory used throughout the entire GUESS-calculation: 24.0 MB


           ************************************************************
           *        Program running with 6 parallel MPI-processes     *
           *              working on a common directory               *
           ************************************************************

-------------------------------------------------------------------------------------------
                                      ORCA LEAN-SCF
                              memory conserving SCF solver
-------------------------------------------------------------------------------------------

----------------------------------------D-I-I-S--------------------------------------------
Iteration    Energy (Eh)           Delta-E    RMSDP     MaxDP     DIISErr   Damp  Time(sec)
-------------------------------------------------------------------------------------------
               ***  Starting incremental Fock matrix formation  ***
    1    -1050.8410392924467942     0.00e+00  2.45e-03  7.41e-02  1.60e-01  0.700   4.2
    2    -1051.0122812412444091    -1.71e-01  1.76e-03  3.98e-02  7.41e-02  0.700   3.7
                               ***Turning on AO-DIIS***
    3    -1051.0856772896506754    -7.34e-02  8.50e-04  3.96e-02  3.00e-02  0.700   3.6
    4    -1051.1285480552921854    -4.29e-02  1.67e-03  9.31e-02  1.65e-02  0.000   3.4
    5    -1051.2207444619446051    -9.22e-02  2.23e-04  1.33e-02  5.18e-03  0.000   3.6
                              *** Initializing SOSCF ***
---------------------------------------S-O-S-C-F--------------------------------------
Iteration    Energy (Eh)           Delta-E    RMSDP     MaxDP     MaxGrad    Time(sec)
--------------------------------------------------------------------------------------
    6    -1051.2212742531380627    -5.30e-04  7.64e-05  2.56e-03  1.10e-03     3.2
               *** Restarting incremental Fock matrix formation ***
    7    -1051.2213086460712930    -3.44e-05  5.92e-05  2.69e-03  2.85e-04     4.2
    8    -1051.2213041460429395     4.50e-06  2.53e-05  7.47e-04  6.58e-04     2.9
    9    -1051.2213137395799549    -9.59e-06  1.37e-05  5.58e-04  8.43e-05     2.7
   10    -1051.2213134717778757     2.68e-07  6.64e-06  2.08e-04  9.01e-05     2.6
   11    -1051.2213142225680258    -7.51e-07  4.23e-06  2.72e-04  2.48e-05     2.3
   12    -1051.2213142034431712     1.91e-08  2.41e-06  1.11e-04  3.13e-05     2.2
   13    -1051.2213142607836289    -5.73e-08  7.67e-07  5.60e-05  4.14e-06     2.2
   14    -1051.2213142625212186    -1.74e-09  4.14e-07  2.46e-05  6.59e-06     1.8
                 **** Energy Check signals convergence ****

               *****************************************************
               *                     SUCCESS                       *
               *           SCF CONVERGED AFTER  14 CYCLES          *
               *****************************************************

             **** ENERGY FILE WAS UPDATED (data/geom_opt/621893/621893.en.tmp) ****

----------------
TOTAL SCF ENERGY
----------------

Total Energy       :      -1051.22131426252122 Eh          -28605.18622 eV

Components:
Nuclear Repulsion  :       1415.80576856760149 Eh           38526.03359 eV
Electronic Energy  :      -2467.02708283012271 Eh          -67131.21981 eV
One Electron Energy:      -4244.78513291956642 Eh         -115506.47570 eV
Two Electron Energy:       1777.75805008944349 Eh           48375.25589 eV

Virial components:
Potential Energy   :      -2094.20592730826502 Eh          -56986.24041 eV
Kinetic Energy     :       1042.98461304574403 Eh           28381.05419 eV
Virial Ratio       :          2.00789724135309

DFT components:
N(Alpha)           :       68.999978693120 electrons
N(Beta)            :       68.999978693120 electrons
N(Total)           :      137.999957386241 electrons
E(X)               :      -97.025859757011 Eh       
E(C)               :       -5.582050788484 Eh       
E(XC)              :     -102.607910545494 Eh       

---------------
SCF CONVERGENCE
---------------

  Last Energy change         ...    1.7376e-09  Tolerance :   1.0000e-08
  Last MAX-Density change    ...    2.4601e-05  Tolerance :   1.0000e-07
  Last RMS-Density change    ...    4.1419e-07  Tolerance :   5.0000e-09
  Last DIIS Error            ...    1.1039e-03  Tolerance :   5.0000e-07
  Last Orbital Gradient      ...    6.5939e-06  Tolerance :   1.0000e-05
  Last Orbital Rotation      ...    9.8960e-06  Tolerance :   1.0000e-05


----------------
ORBITAL ENERGIES
----------------

  NO   OCC          E(Eh)            E(eV) 
   0   2.0000     -77.043774     -2096.4677 
   1   2.0000     -14.326745      -389.8506 
   2   2.0000     -10.225466      -278.2491 
   3   2.0000     -10.224133      -278.2128 
   4   2.0000     -10.211300      -277.8636 
   5   2.0000     -10.202363      -277.6204 
   6   2.0000     -10.201973      -277.6098 
   7   2.0000     -10.190223      -277.2901 
   8   2.0000     -10.189485      -277.2700 
   9   2.0000     -10.189125      -277.2602 
  10   2.0000     -10.187555      -277.2175 
  11   2.0000     -10.186910      -277.1999 
  12   2.0000     -10.186550      -277.1901 
  13   2.0000     -10.184959      -277.1468 
  14   2.0000     -10.181021      -277.0397 
  15   2.0000     -10.180672      -277.0302 
  16   2.0000     -10.179135      -276.9883 
  17   2.0000     -10.178915      -276.9823 
  18   2.0000     -10.177821      -276.9526 
  19   2.0000      -6.541455      -178.0021 
  20   2.0000      -4.706897      -128.0812 
  21   2.0000      -4.706742      -128.0770 
  22   2.0000      -4.703868      -127.9988 
  23   2.0000      -0.934405       -25.4264 
  24   2.0000      -0.847210       -23.0538 
  25   2.0000      -0.837027       -22.7767 
  26   2.0000      -0.801580       -21.8121 
  27   2.0000      -0.772824       -21.0296 
  28   2.0000      -0.746233       -20.3060 
  29   2.0000      -0.735835       -20.0231 
  30   2.0000      -0.729651       -19.8548 
  31   2.0000      -0.726469       -19.7682 
  32   2.0000      -0.655873       -17.8472 
  33   2.0000      -0.630425       -17.1547 
  34   2.0000      -0.609834       -16.5944 
  35   2.0000      -0.596988       -16.2449 
  36   2.0000      -0.590701       -16.0738 
  37   2.0000      -0.585503       -15.9323 
  38   2.0000      -0.556683       -15.1481 
  39   2.0000      -0.520728       -14.1697 
  40   2.0000      -0.511160       -13.9094 
  41   2.0000      -0.495980       -13.4963 
  42   2.0000      -0.486742       -13.2449 
  43   2.0000      -0.459375       -12.5002 
  44   2.0000      -0.451628       -12.2894 
  45   2.0000      -0.447435       -12.1753 
  46   2.0000      -0.442747       -12.0478 
  47   2.0000      -0.437150       -11.8955 
  48   2.0000      -0.421858       -11.4793 
  49   2.0000      -0.419195       -11.4069 
  50   2.0000      -0.415473       -11.3056 
  51   2.0000      -0.409940       -11.1550 
  52   2.0000      -0.400084       -10.8868 
  53   2.0000      -0.393557       -10.7092 
  54   2.0000      -0.376168       -10.2361 
  55   2.0000      -0.365239        -9.9387 
  56   2.0000      -0.360602        -9.8125 
  57   2.0000      -0.344654        -9.3785 
  58   2.0000      -0.340759        -9.2725 
  59   2.0000      -0.333831        -9.0840 
  60   2.0000      -0.324428        -8.8281 
  61   2.0000      -0.294545        -8.0150 
  62   2.0000      -0.278320        -7.5735 
  63   2.0000      -0.273558        -7.4439 
  64   2.0000      -0.257551        -7.0083 
  65   2.0000      -0.252673        -6.8756 
  66   2.0000      -0.250400        -6.8137 
  67   2.0000      -0.240668        -6.5489 
  68   2.0000      -0.209474        -5.7001 
  69   0.0000      -0.045130        -1.2281 
  70   0.0000      -0.027096        -0.7373 
  71   0.0000      -0.017439        -0.4745 
  72   0.0000      -0.008502        -0.2313 
  73   0.0000      -0.004559        -0.1241 
  74   0.0000       0.005222         0.1421 
  75   0.0000       0.061680         1.6784 
  76   0.0000       0.064217         1.7474 
  77   0.0000       0.070207         1.9104 
  78   0.0000       0.088136         2.3983 
  79   0.0000       0.095555         2.6002 
*Only the first 10 virtual orbitals were printed.

                    ********************************
                    * MULLIKEN POPULATION ANALYSIS *
                    ********************************

-----------------------
MULLIKEN ATOMIC CHARGES
-----------------------
   0 C :    0.021765
   1 C :    0.019527
   2 C :    0.019642
   3 C :   -0.090011
   4 C :   -0.003572
   5 C :    0.025509
   6 P :    0.360266
   7 C :   -0.157467
   8 C :    0.040259
   9 C :    0.025923
  10 C :    0.029524
  11 C :    0.020797
  12 C :    0.021536
  13 C :   -0.166871
  14 C :    0.058036
  15 C :    0.059183
  16 C :    0.012775
  17 C :    0.047977
  18 N :   -0.110099
  19 H :   -0.025517
  20 H :   -0.025687
  21 H :   -0.029070
  22 H :   -0.017382
  23 H :   -0.024769
  24 H :   -0.004760
  25 H :   -0.020666
  26 H :   -0.019053
  27 H :   -0.020187
  28 H :   -0.024055
  29 H :   -0.011708
  30 H :   -0.004688
  31 H :   -0.008113
  32 H :    0.000955
Sum of atomic charges:   -0.0000000

--------------------------------
MULLIKEN REDUCED ORBITAL CHARGES
--------------------------------
  0 C s       :     3.156260  s :     3.156260
      pz      :     0.951104  p :     2.786490
      px      :     0.880326
      py      :     0.955060
      dz2     :     0.003151  d :     0.035485
      dxz     :     0.004708
      dyz     :     0.007111
      dx2y2   :     0.010430
      dxy     :     0.010086

  1 C s       :     3.157516  s :     3.157516
      pz      :     0.972368  p :     2.787660
      px      :     0.972162
      py      :     0.843130
      dz2     :     0.004442  d :     0.035297
      dxz     :     0.005994
      dyz     :     0.004938
      dx2y2   :     0.011006
      dxy     :     0.008918

  2 C s       :     3.205737  s :     3.205737
      pz      :     0.954802  p :     2.739730
      px      :     0.871643
      py      :     0.913285
      dz2     :     0.004548  d :     0.034891
      dxz     :     0.004414
      dyz     :     0.006096
      dx2y2   :     0.008615
      dxy     :     0.011218

  3 C s       :     3.041978  s :     3.041978
      pz      :     0.977150  p :     3.011852
      px      :     1.017659
      py      :     1.017043
      dz2     :     0.004450  d :     0.036181
      dxz     :     0.005388
      dyz     :     0.006609
      dx2y2   :     0.009936
      dxy     :     0.009799

  4 C s       :     3.217034  s :     3.217034
      pz      :     0.958772  p :     2.751757
      px      :     0.927937
      py      :     0.865049
      dz2     :     0.004321  d :     0.034781
      dxz     :     0.005975
      dyz     :     0.004772
      dx2y2   :     0.011040
      dxy     :     0.008672

  5 C s       :     3.155034  s :     3.155034
      pz      :     0.979453  p :     2.784161
      px      :     0.903991
      py      :     0.900717
      dz2     :     0.004774  d :     0.035295
      dxz     :     0.004411
      dyz     :     0.006286
      dx2y2   :     0.008681
      dxy     :     0.011144

  6 P s       :     5.659625  s :     5.659625
      pz      :     3.304158  p :     8.805296
      px      :     2.751289
      py      :     2.749850
      dz2     :     0.016459  d :     0.174812
      dxz     :     0.042603
      dyz     :     0.027163
      dx2y2   :     0.044915
      dxy     :     0.043673

  7 C s       :     3.081620  s :     3.081620
      pz      :     1.009644  p :     3.039110
      px      :     1.021629
      py      :     1.007837
      dz2     :     0.009970  d :     0.036737
      dxz     :     0.006127
      dyz     :     0.012638
      dx2y2   :     0.004475
      dxy     :     0.003527

  8 C s       :     3.221209  s :     3.221209
      pz      :     0.925291  p :     2.703547
      px      :     0.941186
      py      :     0.837071
      dz2     :     0.008632  d :     0.034985
      dxz     :     0.004546
      dyz     :     0.012817
      dx2y2   :     0.004641
      dxy     :     0.004350

  9 C s       :     3.159887  s :     3.159887
      pz      :     0.834896  p :     2.779108
      px      :     0.986674
      py      :     0.957538
      dz2     :     0.009576  d :     0.035082
      dxz     :     0.002916
      dyz     :     0.011126
      dx2y2   :     0.005561
      dxy     :     0.005902

 10 C s       :     3.158108  s :     3.158108
      pz      :     0.954810  p :     2.776862
      px      :     0.968661
      py      :     0.853392
      dz2     :     0.010446  d :     0.035506
      dxz     :     0.006259
      dyz     :     0.011330
      dx2y2   :     0.004432
      dxy     :     0.003040

 11 C s       :     3.159203  s :     3.159203
      pz      :     0.901172  p :     2.785081
      px      :     0.990246
      py      :     0.893663
      dz2     :     0.008649  d :     0.034919
      dxz     :     0.004569
      dyz     :     0.012962
      dx2y2   :     0.004617
      dxy     :     0.004122

 12 C s       :     3.224507  s :     3.224507
      pz      :     0.845928  p :     2.718824
      px      :     0.962934
      py      :     0.909962
      dz2     :     0.009702  d :     0.035133
      dxz     :     0.002749
      dyz     :     0.010650
      dx2y2   :     0.005683
      dxy     :     0.006349

 13 C s       :     3.151257  s :     3.151257
      pz      :     0.957064  p :     2.960800
      px      :     1.020855
      py      :     0.982881
      dz2     :     0.015319  d :     0.054813
      dxz     :     0.018374
      dyz     :     0.010419
      dx2y2   :     0.004802
      dxy     :     0.005899

 14 C s       :     3.171114  s :     3.171114
      pz      :     0.855571  p :     2.737050
      px      :     0.929384
      py      :     0.952095
      dz2     :     0.008324  d :     0.033800
      dxz     :     0.009320
      dyz     :     0.004388
      dx2y2   :     0.005926
      dxy     :     0.005842

 15 C s       :     3.134413  s :     3.134413
      pz      :     0.933203  p :     2.770329
      px      :     0.893019
      py      :     0.944107
      dz2     :     0.008983  d :     0.036074
      dxz     :     0.011218
      dyz     :     0.006442
      dx2y2   :     0.005167
      dxy     :     0.004264

 16 C s       :     3.149101  s :     3.149101
      pz      :     0.939661  p :     2.803817
      px      :     0.902902
      py      :     0.961254
      dz2     :     0.008775  d :     0.034307
      dxz     :     0.010814
      dyz     :     0.006073
      dx2y2   :     0.004036
      dxy     :     0.004609

 17 C s       :     3.133298  s :     3.133298
      pz      :     0.902495  p :     2.765411
      px      :     0.926587
      py      :     0.936329
      dz2     :     0.013794  d :     0.053314
      dxz     :     0.013061
      dyz     :     0.006514
      dx2y2   :     0.010047
      dxy     :     0.009898

 18 N s       :     3.517556  s :     3.517556
      pz      :     1.121112  p :     3.564832
      px      :     1.350003
      py      :     1.093717
      dz2     :     0.008186  d :     0.027711
      dxz     :     0.005765
      dyz     :     0.004189
      dx2y2   :     0.004403
      dxy     :     0.005168

 19 H s       :     1.002499  s :     1.002499
      pz      :     0.007382  p :     0.023018
      px      :     0.011273
      py      :     0.004363

 20 H s       :     1.002673  s :     1.002673
      pz      :     0.005379  p :     0.023014
      px      :     0.003833
      py      :     0.013802

 21 H s       :     1.005863  s :     1.005863
      pz      :     0.004870  p :     0.023207
      px      :     0.009498
      py      :     0.008840

 22 H s       :     0.993994  s :     0.993994
      pz      :     0.005400  p :     0.023388
      px      :     0.003940
      py      :     0.014047

 23 H s       :     1.001748  s :     1.001748
      pz      :     0.004940  p :     0.023021
      px      :     0.009436
      py      :     0.008645

 24 H s       :     0.981189  s :     0.981189
      pz      :     0.009082  p :     0.023571
      px      :     0.004443
      py      :     0.010046

 25 H s       :     0.997703  s :     0.997703
      pz      :     0.014173  p :     0.022963
      px      :     0.004848
      py      :     0.003943

 26 H s       :     0.996122  s :     0.996122
      pz      :     0.004317  p :     0.022932
      px      :     0.004961
      py      :     0.013654

 27 H s       :     0.997168  s :     0.997168
      pz      :     0.008847  p :     0.023019
      px      :     0.004744
      py      :     0.009428

 28 H s       :     1.000967  s :     1.000967
      pz      :     0.014304  p :     0.023088
      px      :     0.004779
      py      :     0.004005

 29 H s       :     0.988265  s :     0.988265
      pz      :     0.014523  p :     0.023443
      px      :     0.003647
      py      :     0.005273

 30 H s       :     0.981696  s :     0.981696
      pz      :     0.006849  p :     0.022992
      px      :     0.011542
      py      :     0.004601

 31 H s       :     0.984873  s :     0.984873
      pz      :     0.005855  p :     0.023240
      px      :     0.010397
      py      :     0.006988

 32 H s       :     0.977881  s :     0.977881
      pz      :     0.014221  p :     0.021164
      px      :     0.002724
      py      :     0.004220



                     *******************************
                     * LOEWDIN POPULATION ANALYSIS *
                     *******************************

----------------------
LOEWDIN ATOMIC CHARGES
----------------------
   0 C :   -0.028497
   1 C :   -0.026342
   2 C :   -0.021916
   3 C :   -0.167828
   4 C :   -0.030737
   5 C :   -0.026847
   6 P :    0.505688
   7 C :   -0.178113
   8 C :   -0.010676
   9 C :   -0.025723
  10 C :   -0.016975
  11 C :   -0.028569
  12 C :   -0.027242
  13 C :   -0.132777
  14 C :   -0.039254
  15 C :    0.007322
  16 C :   -0.041166
  17 C :    0.025169
  18 N :   -0.091219
  19 H :    0.023171
  20 H :    0.024195
  21 H :    0.020176
  22 H :    0.023696
  23 H :    0.024508
  24 H :    0.028773
  25 H :    0.025945
  26 H :    0.025625
  27 H :    0.025673
  28 H :    0.022183
  29 H :    0.029095
  30 H :    0.031253
  31 H :    0.031000
  32 H :    0.020410

-------------------------------
LOEWDIN REDUCED ORBITAL CHARGES
-------------------------------
  0 C s       :     2.858317  s :     2.858317
      pz      :     0.988082  p :     3.078049
      px      :     1.026079
      py      :     1.063888
      dz2     :     0.007253  d :     0.092131
      dxz     :     0.011097
      dyz     :     0.017332
      dx2y2   :     0.028621
      dxy     :     0.027826

  1 C s       :     2.859293  s :     2.859293
      pz      :     0.995248  p :     3.075674
      px      :     1.045350
      py      :     1.035075
      dz2     :     0.009873  d :     0.091375
      dxz     :     0.015587
      dyz     :     0.011666
      dx2y2   :     0.029340
      dxy     :     0.024909

  2 C s       :     2.862463  s :     2.862463
      pz      :     0.989721  p :     3.068401
      px      :     1.031549
      py      :     1.047132
      dz2     :     0.009985  d :     0.091052
      dxz     :     0.011301
      dyz     :     0.015277
      dx2y2   :     0.023961
      dxy     :     0.030530

  3 C s       :     2.912700  s :     2.912700
      pz      :     1.009413  p :     3.164537
      px      :     1.069238
      py      :     1.085887
      dz2     :     0.009832  d :     0.090591
      dxz     :     0.012045
      dyz     :     0.015801
      dx2y2   :     0.026472
      dxy     :     0.026442

  4 C s       :     2.862654  s :     2.862654
      pz      :     0.994935  p :     3.077302
      px      :     1.045351
      py      :     1.037015
      dz2     :     0.009504  d :     0.090781
      dxz     :     0.015647
      dyz     :     0.011331
      dx2y2   :     0.030037
      dxy     :     0.024262

  5 C s       :     2.859257  s :     2.859257
      pz      :     0.996238  p :     3.076120
      px      :     1.029479
      py      :     1.050403
      dz2     :     0.010651  d :     0.091470
      dxz     :     0.011363
      dyz     :     0.015554
      dx2y2   :     0.024311
      dxy     :     0.029590

  6 P s       :     5.243595  s :     5.243595
      pz      :     3.409658  p :     9.008373
      px      :     2.795767
      py      :     2.802948
      dz2     :     0.024334  d :     0.242344
      dxz     :     0.057916
      dyz     :     0.035751
      dx2y2   :     0.063623
      dxy     :     0.060720

  7 C s       :     2.911931  s :     2.911931
      pz      :     1.095916  p :     3.173669
      px      :     1.002484
      py      :     1.075269
      dz2     :     0.027612  d :     0.092512
      dxz     :     0.013212
      dyz     :     0.035179
      dx2y2   :     0.009997
      dxy     :     0.006512

  8 C s       :     2.866534  s :     2.866534
      pz      :     1.058047  p :     3.052789
      px      :     0.941090
      py      :     1.053653
      dz2     :     0.024291  d :     0.091354
      dxz     :     0.009823
      dyz     :     0.036038
      dx2y2   :     0.012100
      dxy     :     0.009102

  9 C s       :     2.860452  s :     2.860452
      pz      :     1.038176  p :     3.074138
      px      :     0.971300
      py      :     1.064662
      dz2     :     0.025584  d :     0.091132
      dxz     :     0.005510
      dyz     :     0.031610
      dx2y2   :     0.015453
      dxy     :     0.012974

 10 C s       :     2.860507  s :     2.860507
      pz      :     1.068137  p :     3.064583
      px      :     0.957130
      py      :     1.039317
      dz2     :     0.029532  d :     0.091886
      dxz     :     0.013708
      dyz     :     0.031935
      dx2y2   :     0.010883
      dxy     :     0.005827

 11 C s       :     2.860374  s :     2.860374
      pz      :     1.053140  p :     3.077500
      px      :     0.975282
      py      :     1.049077
      dz2     :     0.024575  d :     0.090695
      dxz     :     0.009685
      dyz     :     0.035589
      dx2y2   :     0.012103
      dxy     :     0.008744

 12 C s       :     2.868351  s :     2.868351
      pz      :     1.041615  p :     3.067134
      px      :     0.959369
      py      :     1.066150
      dz2     :     0.026081  d :     0.091757
      dxz     :     0.005338
      dyz     :     0.030329
      dx2y2   :     0.015980
      dxy     :     0.014028

 13 C s       :     2.914803  s :     2.914803
      pz      :     1.034633  p :     3.088912
      px      :     1.077089
      py      :     0.977190
      dz2     :     0.038430  d :     0.129062
      dxz     :     0.045864
      dyz     :     0.022097
      dx2y2   :     0.010517
      dxy     :     0.012155

 14 C s       :     2.867293  s :     2.867293
      pz      :     1.041225  p :     3.080606
      px      :     1.056104
      py      :     0.983278
      dz2     :     0.023457  d :     0.091354
      dxz     :     0.026647
      dyz     :     0.010333
      dx2y2   :     0.015323
      dxy     :     0.015594

 15 C s       :     2.860860  s :     2.860860
      pz      :     1.054384  p :     3.039084
      px      :     1.028505
      py      :     0.956195
      dz2     :     0.024723  d :     0.092734
      dxz     :     0.029989
      dyz     :     0.015704
      dx2y2   :     0.011928
      dxy     :     0.010390

 16 C s       :     2.862621  s :     2.862621
      pz      :     1.058079  p :     3.086954
      px      :     1.042442
      py      :     0.986433
      dz2     :     0.025200  d :     0.091591
      dxz     :     0.030158
      dyz     :     0.014744
      dx2y2   :     0.010020
      dxy     :     0.011470

 17 C s       :     2.861113  s :     2.861113
      pz      :     1.024566  p :     2.985049
      px      :     1.018030
      py      :     0.942453
      dz2     :     0.034131  d :     0.128669
      dxz     :     0.032959
      dyz     :     0.013981
      dx2y2   :     0.023637
      dxy     :     0.023962

 18 N s       :     3.241359  s :     3.241359
      pz      :     1.252625  p :     3.791357
      px      :     1.412600
      py      :     1.126132
      dz2     :     0.019192  d :     0.058503
      dxz     :     0.012865
      dyz     :     0.009612
      dx2y2   :     0.007244
      dxy     :     0.009590

 19 H s       :     0.909267  s :     0.909267
      pz      :     0.021562  p :     0.067562
      px      :     0.032128
      py      :     0.013873

 20 H s       :     0.908394  s :     0.908394
      pz      :     0.016156  p :     0.067412
      px      :     0.012251
      py      :     0.039004

 21 H s       :     0.911679  s :     0.911679
      pz      :     0.014797  p :     0.068145
      px      :     0.027134
      py      :     0.026214

 22 H s       :     0.907310  s :     0.907310
      pz      :     0.016453  p :     0.068994
      px      :     0.012144
      py      :     0.040397

 23 H s       :     0.908061  s :     0.908061
      pz      :     0.015009  p :     0.067430
      px      :     0.027224
      py      :     0.025197

 24 H s       :     0.901455  s :     0.901455
      pz      :     0.027086  p :     0.069772
      px      :     0.013388
      py      :     0.029298

 25 H s       :     0.906426  s :     0.906426
      pz      :     0.040124  p :     0.067629
      px      :     0.014796
      py      :     0.012709

 26 H s       :     0.906944  s :     0.906944
      pz      :     0.013785  p :     0.067431
      px      :     0.014956
      py      :     0.038691

 27 H s       :     0.906698  s :     0.906698
      pz      :     0.025775  p :     0.067629
      px      :     0.014455
      py      :     0.027400

 28 H s       :     0.909333  s :     0.909333
      pz      :     0.041505  p :     0.068483
      px      :     0.014518
      py      :     0.012461

 29 H s       :     0.901201  s :     0.901201
      pz      :     0.041693  p :     0.069704
      px      :     0.011709
      py      :     0.016301

 30 H s       :     0.901347  s :     0.901347
      pz      :     0.020486  p :     0.067400
      px      :     0.032973
      py      :     0.013941

 31 H s       :     0.900026  s :     0.900026
      pz      :     0.017942  p :     0.068974
      px      :     0.030226
      py      :     0.020806

 32 H s       :     0.913222  s :     0.913222
      pz      :     0.041904  p :     0.066368
      px      :     0.010337
      py      :     0.014128



                      *****************************
                      * MAYER POPULATION ANALYSIS *
                      *****************************

  NA   - Mulliken gross atomic population
  ZA   - Total nuclear charge
  QA   - Mulliken gross atomic charge
  VA   - Mayer's total valence
  BVA  - Mayer's bonded valence
  FA   - Mayer's free valence

  ATOM       NA         ZA         QA         VA         BVA        FA
  0 C      5.9782     6.0000     0.0218     3.8320     3.8320    -0.0000
  1 C      5.9805     6.0000     0.0195     3.8701     3.8701    -0.0000
  2 C      5.9804     6.0000     0.0196     3.9211     3.9211    -0.0000
  3 C      6.0900     6.0000    -0.0900     3.7880     3.7880    -0.0000
  4 C      6.0036     6.0000    -0.0036     3.9016     3.9016    -0.0000
  5 C      5.9745     6.0000     0.0255     3.8591     3.8591    -0.0000
  6 P     14.6397    15.0000     0.3603     2.8961     2.8961    -0.0000
  7 C      6.1575     6.0000    -0.1575     3.8146     3.8146    -0.0000
  8 C      5.9597     6.0000     0.0403     3.8528     3.8528    -0.0000
  9 C      5.9741     6.0000     0.0259     3.8356     3.8356    -0.0000
 10 C      5.9705     6.0000     0.0295     3.8249     3.8249    -0.0000
[...]
      pz      :     1.066093  p :     3.063961
      px      :     0.959514
      py      :     1.038354
      dz2     :     0.028825  d :     0.090052
      dxz     :     0.013254
      dyz     :     0.031720
      dx2y2   :     0.010676
      dxy     :     0.005577

 11 C s       :     2.863410  s :     2.863410
      pz      :     1.053171  p :     3.076978
      px      :     0.975947
      py      :     1.047860
      dz2     :     0.024539  d :     0.089790
      dxz     :     0.009648
      dyz     :     0.035196
      dx2y2   :     0.011984
      dxy     :     0.008423

 12 C s       :     2.869661  s :     2.869661
      pz      :     1.041559  p :     3.069498
      px      :     0.960630
      py      :     1.067309
      dz2     :     0.025749  d :     0.091566
      dxz     :     0.005075
      dyz     :     0.030756
      dx2y2   :     0.015944
      dxy     :     0.014041

 13 C s       :     2.919646  s :     2.919646
      pz      :     1.043584  p :     3.080462
      px      :     1.056760
      py      :     0.980117
      dz2     :     0.041186  d :     0.129112
      dxz     :     0.045190
      dyz     :     0.025500
      dx2y2   :     0.007781
      dxy     :     0.009455

 14 C s       :     2.874066  s :     2.874066
      pz      :     1.045848  p :     3.080060
      px      :     1.045726
      py      :     0.988486
      dz2     :     0.025618  d :     0.089793
      dxz     :     0.024961
      dyz     :     0.011030
      dx2y2   :     0.013064
      dxy     :     0.015120

 15 C s       :     2.866001  s :     2.866001
      pz      :     1.062704  p :     3.039462
      px      :     1.018838
      py      :     0.957920
      dz2     :     0.026227  d :     0.091003
      dxz     :     0.028920
      dyz     :     0.016846
      dx2y2   :     0.008619
      dxy     :     0.010391

 16 C s       :     2.871158  s :     2.871158
      pz      :     1.061847  p :     3.080888
      px      :     1.030763
      py      :     0.988279
      dz2     :     0.026172  d :     0.088289
      dxz     :     0.028497
      dyz     :     0.015980
      dx2y2   :     0.007295
      dxy     :     0.010345

 17 C s       :     2.862921  s :     2.862921
      pz      :     1.029066  p :     2.984178
      px      :     1.005712
      py      :     0.949401
      dz2     :     0.038268  d :     0.130649
      dxz     :     0.032421
      dyz     :     0.014925
      dx2y2   :     0.020702
      dxy     :     0.024333

 18 N s       :     3.219936  s :     3.219936
      pz      :     1.266260  p :     3.798001
      px      :     1.367004
      py      :     1.164738
      dz2     :     0.021386  d :     0.060929
      dxz     :     0.013544
      dyz     :     0.009973
      dx2y2   :     0.006894
      dxy     :     0.009132

 19 H s       :     0.908522  s :     0.908522
      pz      :     0.021073  p :     0.066549
      px      :     0.031572
      py      :     0.013905

 20 H s       :     0.908305  s :     0.908305
      pz      :     0.014730  p :     0.066301
      px      :     0.011933
      py      :     0.039637

 21 H s       :     0.911065  s :     0.911065
      pz      :     0.015714  p :     0.067222
      px      :     0.026682
      py      :     0.024826

 22 H s       :     0.905266  s :     0.905266
      pz      :     0.014967  p :     0.068745
      px      :     0.012239
      py      :     0.041540

 23 H s       :     0.907943  s :     0.907943
      pz      :     0.015725  p :     0.066347
      px      :     0.026206
      py      :     0.024416

 24 H s       :     0.899885  s :     0.899885
      pz      :     0.025319  p :     0.071529
      px      :     0.013166
      py      :     0.033044

 25 H s       :     0.906845  s :     0.906845
      pz      :     0.040068  p :     0.066514
      px      :     0.014350
      py      :     0.012097

 26 H s       :     0.907022  s :     0.907022
      pz      :     0.013768  p :     0.066401
      px      :     0.014533
      py      :     0.038100

 27 H s       :     0.906782  s :     0.906782
      pz      :     0.024769  p :     0.066584
      px      :     0.014131
      py      :     0.027684

 28 H s       :     0.909674  s :     0.909674
      pz      :     0.041150  p :     0.067552
      px      :     0.014166
      py      :     0.012237

 29 H s       :     0.902021  s :     0.902021
      pz      :     0.043434  p :     0.068658
      px      :     0.011540
      py      :     0.013684

 30 H s       :     0.900893  s :     0.900893
      pz      :     0.020420  p :     0.066356
      px      :     0.029246
      py      :     0.016689

 31 H s       :     0.900414  s :     0.900414
      pz      :     0.018141  p :     0.067709
      px      :     0.029209
      py      :     0.020359

 32 H s       :     0.913424  s :     0.913424
      pz      :     0.043325  p :     0.064722
      px      :     0.009656
      py      :     0.011742



                      *****************************
                      * MAYER POPULATION ANALYSIS *
                      *****************************

  NA   - Mulliken gross atomic population
  ZA   - Total nuclear charge
  QA   - Mulliken gross atomic charge
  VA   - Mayer's total valence
  BVA  - Mayer's bonded valence
  FA   - Mayer's free valence

  ATOM       NA         ZA         QA         VA         BVA        FA
  0 C      5.9797     6.0000     0.0203     3.8292     3.8292    -0.0000
  1 C      5.9821     6.0000     0.0179     3.8654     3.8654    -0.0000
  2 C      5.9868     6.0000     0.0132     3.9082     3.9082    -0.0000
  3 C      6.0991     6.0000    -0.0991     3.8093     3.8093    -0.0000
  4 C      6.0020     6.0000    -0.0020     3.9010     3.9010    -0.0000
  5 C      5.9792     6.0000     0.0208     3.8533     3.8533     0.0000
  6 P     14.6294    15.0000     0.3706     2.8588     2.8588    -0.0000
  7 C      6.1788     6.0000    -0.1788     3.8324     3.8324    -0.0000
  8 C      5.9638     6.0000     0.0362     3.8512     3.8512    -0.0000
  9 C      5.9762     6.0000     0.0238     3.8278     3.8278    -0.0000
 10 C      5.9742     6.0000     0.0258     3.8248     3.8248    -0.0000
 11 C      5.9829     6.0000     0.0171     3.8428     3.8428    -0.0000
 12 C      5.9777     6.0000     0.0223     3.8632     3.8632    -0.0000
 13 C      6.1832     6.0000    -0.1832     3.9310     3.9310    -0.0000
 14 C      5.9499     6.0000     0.0501     3.8302     3.8302    -0.0000
 15 C      5.9422     6.0000     0.0578     3.8896     3.8896    -0.0000
 16 C      5.9998     6.0000     0.0002     3.8333     3.8333    -0.0000
 17 C      5.9604     6.0000     0.0396     4.0171     4.0171    -0.0000
 18 N      7.0794     7.0000    -0.0794     3.1574     3.1574    -0.0000
 19 H      1.0206     1.0000    -0.0206     0.9769     0.9769     0.0000
 20 H      1.0214     1.0000    -0.0214     0.9769     0.9769    -0.0000
 21 H      1.0242     1.0000    -0.0242     0.9884     0.9884     0.0000
 22 H      1.0102     1.0000    -0.0102     0.9908     0.9908    -0.0000
 23 H      1.0206     1.0000    -0.0206     0.9771     0.9771     0.0000
 24 H      0.9978     1.0000     0.0022     1.0300     1.0300    -0.0000
 25 H      1.0180     1.0000    -0.0180     0.9779     0.9779    -0.0000
 26 H      1.0158     1.0000    -0.0158     0.9771     0.9771    -0.0000
 27 H      1.0170     1.0000    -0.0170     0.9776     0.9776     0.0000
 28 H      1.0220     1.0000    -0.0220     0.9940     0.9940     0.0000
 29 H      1.0080     1.0000    -0.0080     0.9980     0.9980    -0.0000
 30 H      0.9997     1.0000     0.0003     0.9798     0.9798     0.0000
 31 H      1.0027     1.0000    -0.0027     0.9824     0.9824    -0.0000
 32 H      0.9953     1.0000     0.0047     0.9815     0.9815    -0.0000

  Mayer bond orders larger than 0.100000
B(  0-C ,  1-C ) :   1.3749 B(  0-C ,  5-C ) :   1.3865 B(  0-C , 19-H ) :   0.9842 
B(  1-C ,  2-C ) :   1.4152 B(  1-C , 20-H ) :   0.9825 B(  2-C ,  3-C ) :   1.3752 
B(  2-C , 21-H ) :   0.9788 B(  3-C ,  4-C ) :   1.3956 B(  3-C ,  6-P ) :   0.9136 
B(  4-C ,  5-C ) :   1.3940 B(  4-C , 22-H ) :   0.9796 B(  5-C , 23-H ) :   0.9829 
B(  6-P ,  7-C ) :   0.9367 B(  6-P , 13-C ) :   0.9015 B(  7-C ,  8-C ) :   1.3625 
B(  7-C , 12-C ) :   1.3948 B(  8-C ,  9-C ) :   1.4006 B(  8-C , 24-H ) :   0.9710 
B(  9-C , 10-C ) :   1.3638 B(  9-C , 25-H ) :   0.9849 B( 10-C , 11-C ) :   1.3954 
B( 10-C , 26-H ) :   0.9843 B( 11-C , 12-C ) :   1.3757 B( 11-C , 27-H ) :   0.9852 
B( 12-C , 28-H ) :   0.9856 B( 13-C , 14-C ) :   1.3674 B( 13-C , 18-N ) :   1.4616 
B( 14-C , 15-C ) :   1.3991 B( 14-C , 29-H ) :   0.9710 B( 15-C , 16-C ) :   1.4164 
B( 15-C , 30-H ) :   0.9791 B( 16-C , 17-C ) :   1.3624 B( 16-C , 31-H ) :   0.9714 
B( 17-C , 18-N ) :   1.5368 B( 17-C , 32-H ) :   0.9731 

-------
TIMINGS
-------

Total SCF time: 0 days 0 hours 0 min 16 sec 

Total time                  ....      16.201 sec
Sum of individual times     ....      16.120 sec  ( 99.5%)

SCF preparation             ....       0.124 sec  (  0.8%)
Fock matrix formation       ....      15.613 sec  ( 96.4%)
  Startup                   ....       0.020 sec  (  0.1% of F)
  Exchange formation        ....      11.904 sec  ( 76.2% of F)
  Split-RI-J                ....       1.281 sec  (  8.2% of F)
  XC integration            ....       2.335 sec  ( 15.0% of F)
    Basis function eval.    ....       0.697 sec  ( 29.9% of XC)
    Density eval.           ....       0.677 sec  ( 29.0% of XC)
    XC-Functional eval.     ....       0.057 sec  (  2.4% of XC)
    XC-Potential eval.      ....       0.528 sec  ( 22.6% of XC)
Diagonalization             ....       0.000 sec  (  0.0%)
Density matrix formation    ....       0.044 sec  (  0.3%)
Total Energy calculation    ....       0.018 sec  (  0.1%)
Population analysis         ....       0.081 sec  (  0.5%)
Orbital Transformation      ....       0.045 sec  (  0.3%)
Orbital Orthonormalization  ....       0.000 sec  (  0.0%)
DIIS solution               ....       0.040 sec  (  0.2%)
SOSCF solution              ....       0.155 sec  (  1.0%)
Finished LeanSCF after  16.3 sec

Maximum memory used throughout the entire LEANSCF-calculation: 35.4 MB


-------------------------------------------------------------------------------
                          DFT DISPERSION CORRECTION                            
                                                                               
                              DFTD3 V3.1  Rev 1                                
                          USING Becke-Johnson damping                          
-------------------------------------------------------------------------------
The B3LYP functional is recognized
Active option DFTDOPT                   ...         4   

molecular C6(AA) [au] = 15973.507886 


            DFT-D V3
 parameters
 s6 scaling factor         :     1.0000 
 a1 scaling factor         :     0.3981 
 s8 scaling factor         :     1.9889 
 a2 scaling factor         :     4.4211 
 ad hoc parameters k1-k3   :    16.0000     1.3333    -4.0000 

 Edisp/kcal,au: -51.770690136682  -0.082501837429 
 E6   /kcal   : -23.383214198 
 E8   /kcal   : -28.387475939 
 % E8         :  54.833103179 

-------------------------   ----------------
Dispersion correction           -0.082501837
-------------------------   ----------------


-------------------------   --------------------
FINAL SINGLE POINT ENERGY     -1051.307734670107
-------------------------   --------------------

                                *** OPTIMIZATION RUN DONE ***



           ************************************************************
           *        Program running with 6 parallel MPI-processes     *
           *              working on a common directory               *
           ************************************************************

------------------------------------------------------------------------------
                              ORCA PROPERTY CALCULATIONS
------------------------------------------------------------------------------

GBWName                                 ... data/geom_opt/621893/621893.gbw
Number of atoms                         ...     33
Number of basis functions               ...    340
Max core memory                         ...   1024 MB

Electric properties:
Dipole moment                           ... YES
Quadrupole moment                       ...  NO
Static polarizability (Dipole/Dipole)   ...  NO
Static polarizability (Dipole/Quad.)    ...  NO
Static polarizability (Quad./Quad.)     ...  NO
Static polarizability (Velocity)        ...  NO

Atomic electric properties:
Dipole moment                           ...  NO
Quadrupole moment                       ...  NO
Static polarizability                   ...  NO

Choice of electric origin               ... Center of mass
Position of electric origin             ...    -0.011366    -0.106560     0.475894

General magnetic properties:
Magnetizability                         ...  NO

EPR properties:
g-Tensor (aka g-matrix)                 ...  NO
Zero-Field splitting spin-orbit         ...  NO
Zero-field splitting spin-spin          ...  NO
Hyperfine couplings                     ...  NO (   0 nuclei)
Quadrupole couplings                    ...  NO (   0 nuclei)
Contact density                         ...  NO (   0 nuclei)

NMR properties:
Chemical shifts                         ...  NO (   0 nuclei)
Spin-rotation constants                 ...  NO (   0 nuclei)
Spin-spin couplings                     ...  NO (   0 nuclei,    0 pairs)

Choice of magnetic origin               ... GIAO
Position of magnetic origin             ...     0.000000     0.000000     0.000000

Properties with geometric perturbations:
SCF Hessian                             ...  NO
IR spectrum                             ...  NO
VCD spectrum                            ...  NO
X-ray spectroscopy properties:
SCF XES/XAS/RIXS spectra                ...  NO


-------------
DIPOLE MOMENT
-------------

Method             : SCF
Type of density    : Electron Density
Multiplicity       :   1
Irrep              :   0
Energy             : -1051.2252328326783299 Eh
Relativity type    : 
Basis              : AO
                                X                 Y                 Z
Electronic contribution:     -0.888774787      -1.800874595       4.597250335
Nuclear contribution   :      0.070381307       1.592822323      -4.775605494
                        -----------------------------------------
Total Dipole Moment    :     -0.818393480      -0.208052271      -0.178355159
                        -----------------------------------------
Magnitude (a.u.)       :      0.863055154
Magnitude (Debye)      :      2.193711864



--------------------
Rotational spectrum 
--------------------
 
Rotational constants in cm-1:             0.012151             0.011796             0.007193 
Rotational constants in MHz :           364.265924           353.620901           215.640186 

Dipole components along the rotational axes: 
x,y,z [a.u.] :    -0.200890     0.802963    -0.244454 
x,y,z [Debye]:    -0.510621     2.040970    -0.621354 

 

Dipole moment calculation done in   0.0 sec 

Maximum memory used throughout the entire PROP-calculation: 17.8 MB

--------------------------------
SUGGESTED CITATIONS FOR THIS RUN
--------------------------------

Below you find a list of papers that are relevant to this ORCA run
We neither can nor want to force you to cite these papers, but we appreciate if you do
You receive ORCA, which is the product of decades of hard work by many enthusiastic individuals, for free
The only thing we kindly ask in return is that you cite our papers,
We deeply appreciate it, if you show your appreciation for ORCA by not just citing the generic ORCA reference.

Please note that relegating all ORCA citations to the supporting information does *not* help us.
SI sections are not indexed - citations you put there will not count into any citation statistics
But we need these citations in order to attract the funding resources that allow us to do what we are doing

Therefore, if you are a happy ORCA user, please consider citing a few of the papers listed below in the main body of your paper

In addition to the list printed below, the program has created the file data/geom_opt/621893/621893.bibtex that contains the list in bibtex format
You can import this file easily into all common literature databanks and citation aid programs


List of essential papers. We consider these as the minimum necessary citations

  1. Neese,F.
     Software update: the ORCA program system, version 5.0
     WIRES Comput. Molec. Sci., 2022 12(1)e1606
     doi.org/10.1002/wcms.1606

List of papers to cite with high priority. The work reported in these papers was absolutely
necessary for this run to complete.
Our perspective: the developers of density functionals and basis sets usually get cited in chemistry papers
Good! But without the algorithms to do something with them, the functionals or basis sets would not do anything.
Hence, in our opinion, the algorithm design and method developments papers are equally worthy of getting cited

  1. Neese,F.
     An improvement of the resolution of the identity approximation for the formation of the Coulomb matrix
     J. Comp. Chem., 2003 24(14)1740-1747
     doi.org/10.1002/jcc.10318
  2. Neese,F.
     The SHARK Integral Generation and Digestion System
     J. Comp. Chem., 2022  1-16
     doi.org/10.1002/jcc.26942
  3. Grimme,S.; Antony,J.; Ehrlich,S.; Krieg,H.
     A consistent and accurate ab initio parametrization of density functional dispersion correction (DFT-D) for the 94 elements H-Pu
     J. Chem. Phys., 2010 132 154104-XXXX
     doi.org/10.1063/1.3382344
  4. Grimme,S.; Ehrlich,S.; Goerigk,L.
     Effect of the damping function in dispersion corrected density functional theory
     J. Comput. Chem., 2011 32(7)1456-1465
     doi.org/10.1002/jcc.21759

List of suggested additional citations. These are papers that are important in the 'surrounding' of 
of this run, or papers that preceded the highly important papers. If you like your results we are grateful for a citation.

  1. Neese,F.
     The ORCA program system
     WIRES Comput. Molec. Sci., 2012 2(1)73-78
     doi.org/10.1002/wcms.81
  2. Neese,F.
     Software update: the ORCA program system, version 4.0
     WIRES Comput. Molec. Sci., 2018 8(1)1-6
     doi.org/10.1002/wcms.1327
  3. Neese,F.; Wennmohs,F.; Becker,U.; Riplinger,C.
     The ORCA quantum chemistry program package
     J. Chem. Phys., 2020 152 Art. No. L224108
     doi.org/10.1063/5.0004608

List of optional additional citations

  1. Neese,F.
     Approximate second-order SCF convergence for spin unrestricted wavefunctions
     Chem. Phys. Lett., 2000 325(1-3)93-98
     doi.org/10.1016/s0009-2614(00)00662-x

Timings for individual modules:

Sum of individual times          ...      485.060 sec (=   8.084 min)
Startup calculation              ...       13.980 sec (=   0.233 min)   2.9 %
SCF iterations                   ...      316.272 sec (=   5.271 min)  65.2 %
Property calculations            ...        0.177 sec (=   0.003 min)   0.0 %
SCF Gradient evaluation          ...      154.477 sec (=   2.575 min)  31.8 %
Geometry relaxation              ...        0.154 sec (=   0.003 min)   0.0 %
                             ****ORCA TERMINATED NORMALLY****
TOTAL RUN TIME: 0 days 0 hours 8 minutes 7 seconds 104 msec
