
                                 *****************
                                 * O   R   C   A *
                                 *****************

                                            #,                                       
                                            ###                                      
                                            ####                                     
                                            #####                                    
                                            ######                                   
                                           ########,                                 
                                     ,,################,,,,,                         
                               ,,#################################,,                 
                          ,,##########################################,,             
                       ,#########################################, ''#####,          
                    ,#############################################,,   '####,        
                  ,##################################################,,,,####,       
                ,###########''''           ''''###############################       
              ,#####''   ,,,,##########,,,,          '''####'''          '####       
            ,##' ,,,,###########################,,,                        '##       
           ' ,,###''''                  '''############,,,                           
         ,,##''                                '''############,,,,        ,,,,,,###''
      ,#''                                            '''#######################'''  
     '                                                          ''''####''''         
             ,#######,   #######,   ,#######,      ##                                
            ,#'     '#,  ##    ##  ,#'     '#,    #''#        ,####,   ,####,        
            ##       ##  ##   ,#'  ##            #'  '#       #'       #'  '#        
            ##       ##  #######   ##           ,######,      #####,   #    #        
            '#,     ,#'  ##    ##  '#,     ,#' ,#      #,     #,   #   #,  ,#        
             '#######'   ##     ##  '#######'  #'      '#     '####' # '####'        



                #########################################################
                #                        -***-                          #
                #          Department of theory and spectroscopy        #
                #                                                       #
                #                      Frank Neese                      #
                #                                                       #
                #     Directorship, Architecture, Infrastructure        #
                #                    SHARK, DRIVERS                     #
                #        Core code/Algorithms in most modules           #
                #                                                       #
                #        Max Planck Institute fuer Kohlenforschung      #
                #                Kaiser Wilhelm Platz 1                 #
                #                 D-45470 Muelheim/Ruhr                 #
                #                      Germany                          #
                #                                                       #
                #                  All rights reserved                  #
                #                        -***-                          #
                #########################################################


                         Program Version 6.0.0  -   RELEASE   -


 With contributions from (in alphabetic order):
   Daniel Aravena         : Magnetic Suceptibility
   Michael Atanasov       : Ab Initio Ligand Field Theory (pilot matlab implementation)
   Alexander A. Auer      : GIAO ZORA, VPT2 properties, NMR spectrum
   Ute Becker             : All parallelization in ORCA, NUMFREQ, NUMCALC
   Giovanni Bistoni       : ED, misc. LED, open-shell LED, HFLD
   Martin Brehm           : Molecular dynamics
   Dmytro Bykov           : pre 5.0 version of the SCF Hessian
   Marcos Casanova-Páez   : Triplet and SCS-CIS(D). UHF-(DLPNO)-IP/EA/STEOM-CCSD. UHF-CVS-IP/STEOM-CCSD
   Vijay G. Chilkuri      : MRCI spin determinant printing, contributions to CSF-ICE
   Pauline Colinet        : FMM embedding
   Dipayan Datta          : RHF DLPNO-CCSD density
   Achintya Kumar Dutta   : EOM-CC, STEOM-CC
   Nicolas Foglia         : Exact transition moments, OPA infrastructure, MCD improvements
   Dmitry Ganyushin       : Spin-Orbit,Spin-Spin,Magnetic field MRCI
   Miquel Garcia          : C-PCM and meta-GGA Hessian, CCSD/C-PCM, Gaussian charge scheme
   Tiago L. C. Gouveia    : GS-ROHF, GS-ROCIS
   Yang Guo               : DLPNO-NEVPT2, F12-NEVPT2, CIM, IAO-localization
   Andreas Hansen         : Spin unrestricted coupled pair/coupled cluster methods
   Ingolf Harden          : AUTO-CI MPn and infrastructure 
   Benjamin Helmich-Paris : MC-RPA, TRAH-(SCF,CASSCF), AVAS, COSX integrals, SCF dyn. polar.
   Lee Huntington         : MR-EOM, pCC
   Robert Izsak           : Overlap fitted RIJCOSX, COSX-SCS-MP3, EOM
   Riya Kayal             : Wick's Theorem for AUTO-CI, AUTO-CI UHF-CCSDT
   Emily Kempfer          : AUTO-CI, RHF CISDT and CCSDT
   Christian Kollmar      : KDIIS, OOCD, Brueckner-CCSD(T), CCSD density, CASPT2, CASPT2-K, improved NEVPT2
   Axel Koslowski         : Symmetry handling
   Simone Kossmann        : Meta GGA functionals, TD-DFT gradient, OOMP2, (MP2 Hessian; deprecated post 5.0)
   Lucas Lang             : DCDCAS
   Marvin Lechner         : AUTO-CI (C++ implementation), FIC-MRCC
   Spencer Leger          : CASSCF response
   Dagmar Lenk            : GEPOL surface, SMD, ORCA-2-JSON
   Dimitrios Liakos       : Extrapolation schemes; Compound Job, initial MDCI parallelization
   Dimitrios Manganas     : Further ROCIS development; embedding schemes. LFT, Crystal Embedding
   Dimitrios Pantazis     : SARC Basis sets
   Anastasios Papadopoulos: AUTO-CI, single reference methods and gradients
   Taras Petrenko         : pre 6.0 DFT Hessian and TD-DFT gradient, (ASA, deprecated), ECA, 1-Electron XAS/XES, NRVS
   Peter Pinski           : DLPNO-MP2, DLPNO-MP2 Gradient
   Christoph Reimann      : Effective Core Potentials
   Marius Retegan         : Local ZFS, SOC
   Christoph Riplinger    : Optimizer, TS searches, QM/MM, DLPNO-CCSD(T), (RO)-DLPNO pert. Triples
   Michael Roemelt        : Original ROCIS implementation
   Masaaki Saitow         : Open-shell DLPNO-CCSD energy and density
   Barbara Sandhoefer     : DKH picture change effects
   Kantharuban Sivalingam : CASSCF convergence/infrastructure, NEVPT2 and variants, FIC-MRCI
   Bernardo de Souza      : ESD, SOC TD-DFT
   Georgi Stoychev        : AutoAux, RI-MP2 NMR, DLPNO-MP2 response, X2C
   Van Anh Tran           : RI-MP2 g-tensors
   Willem Van den Heuvel  : Paramagnetic NMR
   Zikuan Wang            : NOTCH, Electric field optimization 
   Frank Wennmohs         : Technical directorship and infrastructure
   Hang Xu                : AUTO-CI-Response properties 


 We gratefully acknowledge several colleagues who have allowed us to
 interface, adapt or use parts of their codes:
   Stefan Grimme, W. Hujo, H. Kruse, P. Pracht,  : VdW corrections, initial TS optimization,
                  C. Bannwarth, S. Ehlert,         DFT functionals, gCP, sTDA/sTD-DF
                  L. Wittmann, M. Mueller
   Ed Valeev, F. Pavosevic, A. Kumar             : LibInt (2-el integral package), F12 methods
   Garnet Chan, S. Sharma, J. Yang, R. Olivares  : DMRG
   Ulf Ekstrom                                   : XCFun DFT Library
   Mihaly Kallay                                 : mrcc  (arbitrary order and MRCC methods)
   Frank Weinhold                                : gennbo (NPA and NBO analysis)
   Simon Mueller                                 : openCOSMO-RS
   Christopher J. Cramer and Donald G. Truhlar   : smd solvation model
   Lars Goerigk                                  : TD-DFT with DH, B97 family of functionals
   V. Asgeirsson, H. Jonsson                     : NEB implementation
   FAccTs GmbH                                   : IRC, NEB, NEB-TS, DLPNO-Multilevel, CI-OPT
                                                   MM, QMMM, 2- and 3-layer-ONIOM, Crystal-QMMM,
                                                   LR-CPCM, SF, NACMEs, symmetry and pop. for TD-DFT,
                                                   nearIR, NL-DFT gradient (VV10), updates on ESD,
                                                   ML-optimized integration grids, MBIS, APM,
                                                   GOAT, DOCKER, SOLVATOR, interface openCOSMO-RS
   S Lehtola, MJT Oliveira, MAL Marques          : LibXC Library
   Liviu Ungur et al                             : ANISO software


 Your calculation uses the libint2 library for the computation of 2-el integrals
 For citations please refer to: http://libint.valeyev.net

 Your ORCA version has been built with support for libXC version: 6.2.2
 For citations please refer to: https://libxc.gitlab.io

 This ORCA versions uses:
   CBLAS   interface :  Fast vector & matrix operations
   LAPACKE interface :  Fast linear algebra routines
   Shared memory     :  Shared parallel matrices


Your calculation utilizes the atom-pairwise dispersion correction
with the Becke-Johnson damping scheme (D3BJ)


Warning: RI is on but no J-basis has been assigned. Assigning Def2/J (nothing to worry about!)
================================================================================

----- Orbital basis set information -----
Your calculation utilizes the basis: def2-SVP
   F. Weigend and R. Ahlrichs, Phys. Chem. Chem. Phys. 7, 3297 (2005).

----- AuxJ basis set information -----
Your calculation utilizes the auxiliary basis: def2/J
   F. Weigend, Phys. Chem. Chem. Phys. 8, 1057 (2006).

================================================================================
                                        WARNINGS
                       Please study these warnings very carefully!
================================================================================


WARNING: Geometry Optimization
  ===> : Switching off AutoStart
         For restart on a previous wavefunction, please use MOREAD

================================================================================
                                       INPUT FILE
================================================================================
NAME = data/geom_opt_P_BP86/300563/300563.inp
|  1> ! RI BP86 def2-SVP D3BJ TIGHTSCF Opt
|  2> %pal
|  3> nprocs 6
|  4> end
|  5> 
|  6> * xyz 0 1
|  7> C     -4.008100    0.530957    1.313228
|  8> C     -4.041488    0.662644   -0.071718
|  9> C     -2.892531    0.410000   -0.826479
| 10> C     -1.691311    0.019301   -0.210324
| 11> C     -1.678680   -0.105301    1.186402
| 12> C     -2.827383    0.147040    1.942320
| 13> P     -0.241265   -0.264413   -1.279591
| 14> C      0.668203   -1.651850   -0.533695
| 15> C      2.070354   -1.721124   -0.597710
| 16> C      2.768283   -2.809085   -0.063144
| 17> C      2.075293   -3.863076    0.523360
| 18> C      0.685201   -3.836332    0.561828
| 19> C     -0.010181   -2.747431    0.026783
| 20> C      0.728436    1.232767   -0.896131
| 21> C      0.822190    2.229330   -1.884601
| 22> C      1.525887    3.412113   -1.665370
| 23> C      2.152915    3.632202   -0.451341
| 24> C      2.076292    2.671235    0.542686
| 25> C      1.372183    1.487152    0.324914
| 26> F      1.333006    0.592728    1.323204
| 27> F      2.683600    2.878244    1.719753
| 28> F      2.832221    4.767794   -0.239775
| 29> F      1.595986    4.336894   -2.633092
| 30> F      0.226954    2.058004   -3.076469
| 31> H     -4.900741    0.726506    1.901616
| 32> H     -4.961127    0.962073   -0.567964
| 33> H     -2.948525    0.522528   -1.908195
| 34> H     -0.775820   -0.406379    1.713057
| 35> H     -2.796238    0.041981    3.023978
| 36> H      2.647649   -0.931905   -1.072793
| 37> H      3.853826   -2.834566   -0.113517
| 38> H      2.616555   -4.709765    0.936973
| 39> H      0.136511   -4.665773    1.000590
| 40> H     -1.098154   -2.774495    0.051217
| 41> **                         ****END OF INPUT****
================================================================================

                       *****************************
                       * Geometry Optimization Run *
                       *****************************

Geometry optimization settings:
Update method            Update   .... BFGS
Choice of coordinates    CoordSys .... (2022) Redundant Internals
Initial Hessian          InHess   .... Almloef's Model
Max. no of cycles        MaxIter  .... 102

Convergence Tolerances:
Energy Change            TolE     ....  5.0000e-06 Eh
Max. Gradient            TolMAXG  ....  3.0000e-04 Eh/bohr
RMS Gradient             TolRMSG  ....  1.0000e-04 Eh/bohr
Max. Displacement        TolMAXD  ....  4.0000e-03 bohr
RMS Displacement         TolRMSD  ....  2.0000e-03 bohr
Strict Convergence                .... False

------------------------------------------------------------------------------
                        ORCA OPTIMIZATION COORDINATE SETUP
------------------------------------------------------------------------------

The optimization will be done in redundant internal coordinates (2022)
Making redundant internal coordinates   ...  (2022 redundants) done
Evaluating the initial hessian          ...  (Almloef) done
Evaluating the coordinates              ...  done
Calculating the B-matrix                .... done
Calculating the G-matrix                .... done
Diagonalizing the G-matrix              .... done
Small eigenvalue found = 4.730e-03
Small eigenvalue found = 7.147e-03
Small eigenvalue found = 9.742e-03
Small eigenvalue found = 2.300e-02
The first mode is                       ....   81
The number of degrees of freedom        ....   96

    -----------------------------------------------------------------
                    Redundant Internal Coordinates


    -----------------------------------------------------------------
         Definition                    Initial Value    Approx d2E/dq
    -----------------------------------------------------------------
      1. B(C   1,C   0)                  1.3916         0.621150   
      2. B(C   2,C   1)                  1.3977         0.607347   
      3. B(C   3,C   2)                  1.4054         0.590374   
      4. B(C   4,C   3)                  1.4023         0.597128   
      5. B(C   5,C   4)                  1.3981         0.606540   
      6. B(C   5,C   0)                  1.3918         0.620569   
      7. B(P   6,C   3)                  1.8239         0.426618   
      8. B(C   7,P   6)                  1.8189         0.434426   
      9. B(C   8,C   7)                  1.4053         0.590604   
     10. B(C   9,C   8)                  1.3988         0.605014   
     11. B(C  10,C   9)                  1.3911         0.622310   
     12. B(C  11,C  10)                  1.3909         0.622777   
     13. B(C  12,C  11)                  1.3984         0.605801   
     14. B(C  12,C   7)                  1.4052         0.590825   
     15. B(C  13,P   6)                  1.8245         0.425567   
     16. B(C  14,C  13)                  1.4068         0.587467   
     17. B(C  15,C  14)                  1.3936         0.616501   
     18. B(C  16,C  15)                  1.3840         0.638709   
     19. B(C  17,C  16)                  1.3847         0.637060   
     20. B(C  18,C  17)                  1.3947         0.614054   
     21. B(C  18,C  13)                  1.4036         0.594363   
     22. B(F  19,C  18)                  1.3409         0.622649   
     23. B(F  20,C  17)                  1.3406         0.623460   
     24. B(F  21,C  16)                  1.3401         0.624637   
     25. B(F  22,C  15)                  1.3404         0.623924   
     26. B(F  23,C  14)                  1.3432         0.617476   
     27. B(H  24,C   0)                  1.0869         0.364288   
     28. B(H  25,C   1)                  1.0870         0.364038   
     29. B(H  26,C   2)                  1.0890         0.361434   
     30. B(H  27,C   4)                  1.0877         0.363107   
     31. B(H  28,C   5)                  1.0872         0.363831   
     32. B(H  29,C   8)                  1.0871         0.363924   
     33. B(H  30,C   9)                  1.0870         0.364077   
     34. B(H  31,C  10)                  1.0867         0.364489   
     35. B(H  32,C  11)                  1.0870         0.364105   
     36. B(H  33,C  12)                  1.0886         0.361978   
     37. A(C   1,C   0,H  24)          120.1358         0.353712   
     38. A(C   1,C   0,C   5)          119.7542         0.434282   
     39. A(C   5,C   0,H  24)          120.1100         0.353655   
     40. A(C   0,C   1,H  25)          120.0460         0.353671   
     41. A(C   0,C   1,C   2)          120.0391         0.432603   
     42. A(C   2,C   1,H  25)          119.9149         0.352328   
     43. A(C   1,C   2,C   3)          121.0707         0.428674   
     44. A(C   3,C   2,H  26)          120.5410         0.350219   
     45. A(C   1,C   2,H  26)          118.3883         0.351900   
     46. A(C   2,C   3,P   6)          117.7583         0.429218   
     47. A(C   2,C   3,C   4)          117.9732         0.427372   
     48. A(C   4,C   3,P   6)          124.2594         0.430095   
     49. A(C   3,C   4,H  27)          120.9514         0.351166   
     50. A(C   3,C   4,C   5)          121.0033         0.429447   
     51. A(C   5,C   4,H  27)          118.0445         0.352096   
     52. A(C   4,C   5,H  28)          119.7987         0.352214   
     53. A(C   0,C   5,C   4)          120.1591         0.432427   
     54. A(C   0,C   5,H  28)          120.0422         0.353580   
     55. A(C   7,P   6,C  13)          105.9023         0.433175   
     56. A(C   3,P   6,C   7)          106.0077         0.433367   
     57. A(C   3,P   6,C  13)           99.8859         0.431765   
     58. A(C   8,C   7,C  12)          117.4780         0.426590   
     59. A(P   6,C   7,C   8)          121.1846         0.430648   
     60. A(P   6,C   7,C  12)          121.1233         0.430677   
     61. A(C   7,C   8,C   9)          121.2498         0.428408   
     62. A(C   7,C   8,H  29)          120.9275         0.350648   
     63. A(C   9,C   8,H  29)          117.8210         0.352080   
     64. A(C   8,C   9,H  30)          119.9215         0.352105   
     65. A(C   8,C   9,C  10)          120.1249         0.432449   
     66. A(C  10,C   9,H  30)          119.9517         0.353789   
     67. A(C   9,C  10,C  11)          119.6681         0.434706   
     68. A(C   9,C  10,H  31)          120.1774         0.353856   
     69. A(C  11,C  10,H  31)          120.1489         0.353901   
     70. A(C  12,C  11,H  32)          119.8418         0.352187   
     71. A(C  10,C  11,H  32)          120.0652         0.353838   
     72. A(C  10,C  11,C  12)          120.0911         0.432609   
     73. A(C  11,C  12,H  33)          117.9721         0.351838   
     74. A(C   7,C  12,H  33)          120.7188         0.350353   
     75. A(C   7,C  12,C  11)          121.3081         0.428537   
     76. A(C  14,C  13,C  18)          116.8920         0.426639   
     77. A(P   6,C  13,C  18)          125.1217         0.429547   
     78. A(P   6,C  13,C  14)          117.9727         0.428649   
     79. A(C  13,C  14,C  15)          121.6240         0.429446   
     80. A(C  15,C  14,F  23)          118.1379         0.428566   
     81. A(C  13,C  14,F  23)          120.2380         0.424879   
     82. A(C  14,C  15,C  16)          120.1135         0.435951   
     83. A(C  16,C  15,F  22)          119.9931         0.432103   
     84. A(C  14,C  15,F  22)          119.8933         0.429366   
     85. A(C  15,C  16,C  17)          119.6214         0.438537   
     86. A(C  17,C  16,F  21)          120.1860         0.431991   
     87. A(C  15,C  16,F  21)          120.1925         0.432192   
     88. A(C  18,C  17,F  20)          119.7946         0.429002   
     89. A(C  16,C  17,F  20)          119.8723         0.431844   
     90. A(C  16,C  17,C  18)          120.3330         0.435436   
     91. A(C  17,C  18,F  19)          117.6964         0.428902   
     92. A(C  13,C  18,F  19)          120.8879         0.426404   
     93. A(C  13,C  18,C  17)          121.4155         0.430039   
     94. D(H  25,C   1,C   0,C   5)    179.9912         0.026704   
     95. D(C   2,C   1,C   0,H  24)   -179.9674         0.026704   
     96. D(H  25,C   1,C   0,H  24)      0.0300         0.026704   
     97. D(C   2,C   1,C   0,C   5)     -0.0062         0.026704   
     98. D(C   3,C   2,C   1,C   0)      0.1079         0.025463   
     99. D(C   3,C   2,C   1,H  25)   -179.8895         0.025463   
    100. D(H  26,C   2,C   1,C   0)   -179.9220         0.025463   
    101. D(H  26,C   2,C   1,H  25)      0.0806         0.025463   
    102. D(P   6,C   3,C   2,H  26)      0.8694         0.023987   
    103. D(C   4,C   3,C   2,C   1)     -0.2095         0.023987   
    104. D(C   4,C   3,C   2,H  26)    179.8211         0.023987   
    105. D(P   6,C   3,C   2,C   1)   -179.1611         0.023987   
    106. D(H  27,C   4,C   3,C   2)    179.8872         0.024568   
    107. D(C   5,C   4,C   3,C   2)      0.2153         0.024568   
    108. D(C   5,C   4,C   3,P   6)    179.0928         0.024568   
    109. D(H  27,C   4,C   3,P   6)     -1.2352         0.024568   
    110. D(H  28,C   5,C   4,H  27)      0.1641         0.025392   
    111. D(C   0,C   5,C   4,H  27)   -179.8013         0.025392   
    112. D(H  28,C   5,C   0,H  24)      0.0081         0.026651   
    113. D(H  28,C   5,C   0,C   1)   -179.9532         0.026651   
    114. D(C   4,C   5,C   0,H  24)    179.9734         0.026651   
    115. D(H  28,C   5,C   4,C   3)    179.8453         0.025392   
    116. D(C   4,C   5,C   0,C   1)      0.0121         0.026651   
    117. D(C   0,C   5,C   4,C   3)     -0.1201         0.025392   
    118. D(C  13,P   6,C   3,C   4)    -73.0149         0.003765   
    119. D(C  13,P   6,C   3,C   2)    105.8649         0.003765   
    120. D(C   7,P   6,C   3,C   4)     36.8221         0.003765   
    121. D(C   7,P   6,C   3,C   2)   -144.2981         0.003765   
    122. D(C  12,C   7,P   6,C   3)     39.0636         0.003851   
    123. D(C   8,C   7,P   6,C  13)    -40.8740         0.003851   
    124. D(C   8,C   7,P   6,C   3)   -146.3869         0.003851   
    125. D(C  12,C   7,P   6,C  13)    144.5765         0.003851   
    126. D(H  29,C   8,C   7,C  12)    176.3758         0.024007   
    127. D(H  29,C   8,C   7,P   6)      1.6345         0.024007   
    128. D(C   9,C   8,C   7,C  12)     -3.1356         0.024007   
    129. D(C   9,C   8,C   7,P   6)   -177.8769         0.024007   
    130. D(H  30,C   9,C   8,H  29)      1.2396         0.025257   
    131. D(H  30,C   9,C   8,C   7)   -179.2343         0.025257   
    132. D(C  10,C   9,C   8,H  29)   -178.2599         0.025257   
    133. D(C  10,C   9,C   8,C   7)      1.2662         0.025257   
    134. D(H  31,C  10,C   9,H  30)      0.3657         0.026810   
    135. D(H  31,C  10,C   9,C   8)    179.8651         0.026810   
    136. D(C  11,C  10,C   9,H  30)   -178.7771         0.026810   
    137. D(C  11,C  10,C   9,C   8)      0.7222         0.026810   
    138. D(H  32,C  11,C  10,H  31)     -0.3749         0.026853   
    139. D(H  32,C  11,C  10,C   9)    178.7682         0.026853   
    140. D(C  12,C  11,C  10,H  31)   -179.8702         0.026853   
    141. D(C  12,C  11,C  10,C   9)     -0.7270         0.026853   
    142. D(H  33,C  12,C  11,H  32)     -1.1066         0.025326   
    143. D(C   7,C  12,C  11,H  32)    179.2466         0.025326   
    144. D(C   7,C  12,C  11,C  10)     -1.2570         0.025326   
    145. D(H  33,C  12,C   7,C   8)   -176.5048         0.024026   
    146. D(H  33,C  12,C   7,P   6)     -1.7601         0.024026   
    147. D(H  33,C  12,C  11,C  10)    178.3898         0.025326   
    148. D(C  11,C  12,C   7,C   8)      3.1324         0.024026   
    149. D(C  11,C  12,C   7,P   6)    177.8770         0.024026   
    150. D(C  18,C  13,P   6,C   7)    -39.6745         0.003754   
    151. D(C  18,C  13,P   6,C   3)     70.2458         0.003754   
    152. D(C  14,C  13,P   6,C   7)    141.7097         0.003754   
    153. D(C  14,C  13,P   6,C   3)   -108.3700         0.003754   
    154. D(F  23,C  14,C  13,P   6)     -1.0128         0.023740   
    155. D(C  15,C  14,C  13,C  18)      0.2683         0.023740   
    156. D(C  15,C  14,C  13,P   6)    178.9988         0.023740   
    157. D(F  23,C  14,C  13,C  18)   -179.7433         0.023740   
    158. D(F  22,C  15,C  14,F  23)     -0.1756         0.026282   
    159. D(F  22,C  15,C  14,C  13)    179.8130         0.026282   
    160. D(C  16,C  15,C  14,F  23)    179.8886         0.026282   
    161. D(C  16,C  15,C  14,C  13)     -0.1228         0.026282   
    162. D(F  21,C  16,C  15,F  22)     -0.0685         0.028336   
    163. D(F  21,C  16,C  15,C  14)    179.8672         0.028336   
    164. D(C  17,C  16,C  15,F  22)   -179.9563         0.028336   
    165. D(C  17,C  16,C  15,C  14)     -0.0206         0.028336   
    166. D(F  20,C  17,C  16,F  21)      0.0028         0.028180   
    167. D(F  20,C  17,C  16,C  15)    179.8906         0.028180   
    168. D(C  18,C  17,C  16,F  21)   -179.8813         0.028180   
    169. D(C  18,C  17,C  16,C  15)      0.0065         0.028180   
    170. D(F  19,C  18,C  17,F  20)      0.0657         0.026062   
    171. D(F  19,C  18,C  17,C  16)    179.9499         0.026062   
    172. D(C  13,C  18,C  17,F  20)   -179.7326         0.026062   
    173. D(C  13,C  18,C  17,C  16)      0.1516         0.026062   
    174. D(F  19,C  18,C  13,C  14)    179.9260         0.024329   
    175. D(F  19,C  18,C  13,P   6)      1.2968         0.024329   
    176. D(C  17,C  18,C  13,C  14)     -0.2820         0.024329   
    177. D(C  17,C  18,C  13,P   6)   -178.9112         0.024329   
    -----------------------------------------------------------------

Number of atoms                         .... 34
Number of degrees of freedom            .... 177


         *************************************************************
         *                GEOMETRY OPTIMIZATION CYCLE   1            *
         *************************************************************
---------------------------------
CARTESIAN COORDINATES (ANGSTROEM)
---------------------------------
  C     -4.008100    0.530957    1.313228
  C     -4.041488    0.662644   -0.071718
  C     -2.892531    0.410000   -0.826479
  C     -1.691311    0.019301   -0.210324
  C     -1.678680   -0.105301    1.186402
  C     -2.827383    0.147040    1.942320
  P     -0.241265   -0.264413   -1.279591
  C      0.668203   -1.651850   -0.533695
  C      2.070354   -1.721124   -0.597710
  C      2.768283   -2.809085   -0.063144
  C      2.075293   -3.863076    0.523360
  C      0.685201   -3.836332    0.561828
  C     -0.010181   -2.747431    0.026783
  C      0.728436    1.232767   -0.896131
  C      0.822190    2.229330   -1.884601
  C      1.525887    3.412113   -1.665370
  C      2.152915    3.632202   -0.451341
  C      2.076292    2.671235    0.542686
  C      1.372183    1.487152    0.324914
  F      1.333006    0.592728    1.323204
  F      2.683600    2.878244    1.719753
  F      2.832221    4.767794   -0.239775
  F      1.595986    4.336894   -2.633092
  F      0.226954    2.058004   -3.076469
  H     -4.900741    0.726506    1.901616
  H     -4.961127    0.962073   -0.567964
  H     -2.948525    0.522528   -1.908195
  H     -0.775820   -0.406379    1.713057
  H     -2.796238    0.041981    3.023978
  H      2.647649   -0.931905   -1.072793
  H      3.853826   -2.834566   -0.113517
  H      2.616555   -4.709765    0.936973
  H      0.136511   -4.665773    1.000590
  H     -1.098154   -2.774495    0.051217

----------------------------
CARTESIAN COORDINATES (A.U.)
----------------------------
  NO LB      ZA    FRAG     MASS         X           Y           Z
   0 C     6.0000    0    12.011   -7.574211    1.003363    2.481641
   1 C     6.0000    0    12.011   -7.637305    1.252216   -0.135527
   2 C     6.0000    0    12.011   -5.466091    0.774788   -1.561819
   3 C     6.0000    0    12.011   -3.196115    0.036474   -0.397455
   4 C     6.0000    0    12.011   -3.172245   -0.198990    2.241975
   5 C     6.0000    0    12.011   -5.342980    0.277865    3.670453
   6 P    15.0000    0    30.974   -0.455925   -0.499668   -2.418077
   7 C     6.0000    0    12.011    1.262721   -3.121544   -1.008537
   8 C     6.0000    0    12.011    3.912402   -3.252453   -1.129508
   9 C     6.0000    0    12.011    5.231297   -5.308401   -0.119325
  10 C     6.0000    0    12.011    3.921735   -7.300156    0.989007
  11 C     6.0000    0    12.011    1.294842   -7.249617    1.061701
  12 C     6.0000    0    12.011   -0.019239   -5.191892    0.050613
  13 C     6.0000    0    12.011    1.376545    2.329592   -1.693442
  14 C     6.0000    0    12.011    1.553714    4.212823   -3.561380
  15 C     6.0000    0    12.011    2.883509    6.447959   -3.147093
  16 C     6.0000    0    12.011    4.068420    6.863867   -0.852911
  17 C     6.0000    0    12.011    3.923623    5.047903    1.025528
  18 C     6.0000    0    12.011    2.593050    2.810310    0.613998
  19 F     9.0000    0    18.998    2.519016    1.120094    2.500493
  20 F     9.0000    0    18.998    5.071269    5.439093    3.249862
  21 F     9.0000    0    18.998    5.352122    9.009825   -0.453109
  22 F     9.0000    0    18.998    3.015976    8.195542   -4.975823
  23 F     9.0000    0    18.998    0.428881    3.889064   -5.813684
  24 H     1.0000    0     1.008   -9.261058    1.372897    3.593533
  25 H     1.0000    0     1.008   -9.375171    1.818054   -1.073296
  26 H     1.0000    0     1.008   -5.571905    0.987435   -3.605966
  27 H     1.0000    0     1.008   -1.466087   -0.767945    3.237209
  28 H     1.0000    0     1.008   -5.284124    0.079333    5.714490
  29 H     1.0000    0     1.008    5.003332   -1.761045   -2.027285
  30 H     1.0000    0     1.008    7.282676   -5.356553   -0.214516
  31 H     1.0000    0     1.008    4.944572   -8.900166    1.770622
  32 H     1.0000    0     1.008    0.257968   -8.817033    1.890841
  33 H     1.0000    0     1.008   -2.075210   -5.243036    0.096786

--------------------------------
INTERNAL COORDINATES (ANGSTROEM)
--------------------------------
 C      0   0   0     0.000000000000     0.00000000     0.00000000
 C      1   0   0     1.391593204722     0.00000000     0.00000000
 C      2   1   0     1.397710751803   120.03910821     0.00000000
 C      3   2   1     1.405425978494   121.07074054     0.10791243
 C      4   3   2     1.402329747114   117.97321754   359.79054747
 C      1   2   3     1.391848282480   119.75415701     0.00000000
 P      4   3   2     1.823858260173   117.75828868   180.83887141
 C      7   4   3     1.818921195327   106.00771495   215.70186525
 C      8   7   4     1.405319975700   121.18462069   213.61311199
 C      9   8   7     1.398758318981   121.24982474   182.12314840
 C     10   9   8     1.391085586942   120.12493535     1.26618743
 C     11  10   9     1.390881302277   119.66805530     0.72221105
 C     12  11  10     1.398404328422   120.09110640   359.27295603
 C      7   4   3     1.824529954098    99.88590040   105.86490699
 C     14   7   4     1.406769549850   117.97268294   251.63004073
 C     15  14   7     1.393638161166   121.62402232   178.99881564
 C     16  15  14     1.384004947081   120.11349730   359.87720856
 C     17  16  15     1.384708754918   119.62141543     0.00000000
 C     18  17  16     1.394721003912   120.33296030     0.00000000
 F     19  18  17     1.340937005681   117.69635257   179.94994446
 F     18  17  16     1.340582878987   119.87232536   179.89062115
 F     17  16  15     1.340069402850   120.19249850   179.86720283
 F     16  15  14     1.340380407588   119.89332396   179.81297911
 F     15  14   7     1.343208034296   120.23804956   358.98716238
 H      1   2   3     1.086852246088   120.13581677   180.03257315
 H      2   1   3     1.087038963827   120.04600773   179.99738031
 H      3   2   1     1.088993748134   118.38827720   180.07798341
 H      5   4   3     1.087736011498   120.95140808   179.88721163
 H      6   1   2     1.087194294259   120.04220028   180.04678922
 H      9   8   7     1.087124649649   120.92745584     1.63452175
 H     10   9   8     1.087009809219   119.92147215   180.76568902
 H     11  10   9     1.086702594611   120.17744910   179.86507094
 H     12  11  10     1.086989043747   120.06517725   178.76821127
 H     13  12  11     1.088583818170   117.97213406   178.38980530

---------------------------
INTERNAL COORDINATES (A.U.)
---------------------------
 C      0   0   0     0.000000000000     0.00000000     0.00000000
 C      1   0   0     2.629730046751     0.00000000     0.00000000
 C      2   1   0     2.641290535345   120.03910821     0.00000000
 C      3   2   1     2.655870200852   121.07074054     0.10791243
 C      4   3   2     2.650019171497   117.97321754   359.79054747
 C      1   2   3     2.630212073856   119.75415701     0.00000000
 P      4   3   2     3.446592618817   117.75828868   180.83887141
 C      7   4   3     3.437262918352   106.00771495   215.70186525
 C      8   7   4     2.655669884602   121.18462069   213.61311199
 C      9   8   7     2.643270150418   121.24982474   182.12314840
 C     10   9   8     2.628770788165   120.12493535     1.26618743
 C     11  10   9     2.628384746095   119.66805530     0.72221105
 C     12  11  10     2.642601205208   120.09110640   359.27295603
 C      7   4   3     3.447861936381    99.88590040   105.86490699
 C     14   7   4     2.658409182756   117.97268294   251.63004073
 C     15  14   7     2.633594454386   121.62402232   178.99881564
 C     16  15  14     2.615390317976   120.11349730   359.87720856
 C     17  16  15     2.616720322038   119.62141543     0.00000000
 C     18  17  16     2.635640730622   120.33296030     0.00000000
 F     19  18  17     2.534003703578   117.69635257   179.94994446
 F     18  17  16     2.533334501110   119.87232536   179.89062115
 F     17  16  15     2.532364171835   120.19249850   179.86720283
 F     16  15  14     2.532951885615   119.89332396   179.81297911
 F     15  14   7     2.538295325701   120.23804956   358.98716238
 H      1   2   3     2.053853093143   120.13581677   180.03257315
 H      2   1   3     2.054205938534   120.04600773   179.99738031
 H      3   2   1     2.057899945527   118.38827720   180.07798341
 H      5   4   3     2.055523167735   120.95140808   179.88721163
 H      6   1   2     2.054499470512   120.04220028   180.04678922
 H      9   8   7     2.054367861272   120.92745584     1.63452175
 H     10   9   8     2.054150844310   119.92147215   180.76568902
 H     11  10   9     2.053570292836   120.17744910   179.86507094
 H     12  11  10     2.054111603254   120.06517725   178.76821127
 H     13  12  11     2.057125290159   117.97213406   178.38980530

---------------------
BASIS SET INFORMATION
---------------------
There are 4 groups of distinct atoms

 Group   1 Type C   : 7s4p1d contracted to 3s2p1d pattern {511/31/1}
 Group   2 Type P   : 10s7p1d contracted to 4s3p1d pattern {5311/511/1}
 Group   3 Type F   : 7s4p1d contracted to 3s2p1d pattern {511/31/1}
 Group   4 Type H   : 4s1p contracted to 2s1p pattern {31/1}

Atom   0C    basis set group =>   1
Atom   1C    basis set group =>   1
Atom   2C    basis set group =>   1
Atom   3C    basis set group =>   1
Atom   4C    basis set group =>   1
Atom   5C    basis set group =>   1
Atom   6P    basis set group =>   2
Atom   7C    basis set group =>   1
Atom   8C    basis set group =>   1
Atom   9C    basis set group =>   1
Atom  10C    basis set group =>   1
Atom  11C    basis set group =>   1
Atom  12C    basis set group =>   1
Atom  13C    basis set group =>   1
Atom  14C    basis set group =>   1
Atom  15C    basis set group =>   1
Atom  16C    basis set group =>   1
Atom  17C    basis set group =>   1
Atom  18C    basis set group =>   1
Atom  19F    basis set group =>   3
Atom  20F    basis set group =>   3
Atom  21F    basis set group =>   3
Atom  22F    basis set group =>   3
Atom  23F    basis set group =>   3
Atom  24H    basis set group =>   4
Atom  25H    basis set group =>   4
Atom  26H    basis set group =>   4
Atom  27H    basis set group =>   4
Atom  28H    basis set group =>   4
Atom  29H    basis set group =>   4
Atom  30H    basis set group =>   4
Atom  31H    basis set group =>   4
Atom  32H    basis set group =>   4
Atom  33H    basis set group =>   4
---------------------------------
AUXILIARY/J BASIS SET INFORMATION
---------------------------------
There are 4 groups of distinct atoms

 Group   1 Type C   : 12s5p4d2f1g contracted to 6s4p3d1f1g pattern {711111/2111/211/2/1}
 Group   2 Type P   : 14s5p5d2f1g contracted to 8s4p3d1f1g pattern {71111111/2111/311/2/1}
 Group   3 Type F   : 12s5p4d2f1g contracted to 6s4p3d1f1g pattern {711111/2111/211/2/1}
 Group   4 Type H   : 5s2p1d contracted to 3s1p1d pattern {311/2/1}

Atom   0C    basis set group =>   1
Atom   1C    basis set group =>   1
Atom   2C    basis set group =>   1
Atom   3C    basis set group =>   1
Atom   4C    basis set group =>   1
Atom   5C    basis set group =>   1
Atom   6P    basis set group =>   2
Atom   7C    basis set group =>   1
Atom   8C    basis set group =>   1
Atom   9C    basis set group =>   1
Atom  10C    basis set group =>   1
Atom  11C    basis set group =>   1
Atom  12C    basis set group =>   1
Atom  13C    basis set group =>   1
Atom  14C    basis set group =>   1
Atom  15C    basis set group =>   1
Atom  16C    basis set group =>   1
Atom  17C    basis set group =>   1
Atom  18C    basis set group =>   1
Atom  19F    basis set group =>   3
Atom  20F    basis set group =>   3
Atom  21F    basis set group =>   3
Atom  22F    basis set group =>   3
Atom  23F    basis set group =>   3
Atom  24H    basis set group =>   4
Atom  25H    basis set group =>   4
Atom  26H    basis set group =>   4
Atom  27H    basis set group =>   4
Atom  28H    basis set group =>   4
Atom  29H    basis set group =>   4
Atom  30H    basis set group =>   4
Atom  31H    basis set group =>   4
Atom  32H    basis set group =>   4
Atom  33H    basis set group =>   4


           ************************************************************
           *        Program running with 6 parallel MPI-processes     *
           *              working on a common directory               *
           ************************************************************
------------------------------------------------------------------------------
                             ORCA STARTUP CALCULATIONS
                           -- RI-GTO INTEGRALS CHOSEN --
------------------------------------------------------------------------------
------------------------------------------------------------------------------
                   ___                                                        
                  /   \      - P O W E R E D   B Y -                         
                 /     \                                                     
                 |  |  |   _    _      __       _____    __    __             
                 |  |  |  | |  | |    /  \     |  _  \  |  |  /  |          
                  \  \/   | |  | |   /    \    | | | |  |  | /  /          
                 / \  \   | |__| |  /  /\  \   | |_| |  |  |/  /          
                |  |  |   |  __  | /  /__\  \  |    /   |      \           
                |  |  |   | |  | | |   __   |  |    \   |  |\   \          
                \     /   | |  | | |  |  |  |  | |\  \  |  | \   \       
                 \___/    |_|  |_| |__|  |__|  |_| \__\ |__|  \__/        
                                                                              
                      - O R C A' S   B I G   F R I E N D -                    
                                      &                                       
                       - I N T E G R A L  F E E D E R -                       
                                                                              
 v1 FN, 2020, v2 2021, v3 2022-2024                                           
------------------------------------------------------------------------------


----------------------
SHARK INTEGRAL PACKAGE
----------------------

Number of atoms                             ...     34
Number of basis functions                   ...    390
Number of shells                            ...    176
Maximum angular momentum                    ...      2
Integral batch strategy                     ... SHARK/LIBINT Hybrid
RI-J (if used) integral strategy            ... SPLIT-RIJ (Revised 2003 algorithm where possible)
Printlevel                                  ...      1
Contraction scheme used                     ... SEGMENTED contraction
Prescreening option                         ... SCHWARTZ
   Thresh                                   ... 2.500e-11
   Tcut                                     ... 2.500e-12
   Tpresel                                  ... 2.500e-12 
Coulomb Range Separation                    ... NOT USED
Exchange Range Separation                   ... NOT USED
Multipole approximations                    ... NOT USED
Finite Nucleus Model                        ... NOT USED
CABS basis                                  ... NOT available
Auxiliary Coulomb fitting basis             ... AVAILABLE
   # of basis functions in Aux-J            ...   1288
   # of shells in Aux-J                     ...    412
   Maximum angular momentum in Aux-J        ...      4
Auxiliary J/K fitting basis                 ... NOT available
Auxiliary Correlation fitting basis         ... NOT available
Auxiliary 'external' fitting basis          ... NOT available

Checking pre-screening integrals            ... done (  0.0 sec) Dimension = 176
Check shell pair data                       ... done (  0.0 sec)
Shell pair information
Shell pair cut-off parameter TPreSel        ...   2.5e-12
Total number of shell pairs                 ...     15576
Shell pairs after pre-screening             ...     11305
Total number of primitive shell pairs       ...     59692
Primitive shell pairs kept                  ...     26944
          la=0 lb=0:   3160 shell pairs
          la=1 lb=0:   4154 shell pairs
          la=1 lb=1:   1405 shell pairs
          la=2 lb=0:   1454 shell pairs
          la=2 lb=1:    962 shell pairs
          la=2 lb=2:    170 shell pairs

Calculating one electron integrals          ... done (  0.0 sec)
Calculating RI/J V-Matrix + Cholesky decomp.... done (  0.1 sec)
Calculating Nuclear repulsion               ... done (  0.0 sec) ENN=   2192.036788599672 Eh

Diagonalization of the overlap matrix:
Smallest eigenvalue                        ... 1.305e-04
Time for diagonalization                   ...    0.020 sec
Threshold for overlap eigenvalues          ... 1.000e-07
Number of eigenvalues below threshold      ... 0
Time for construction of square roots      ...    0.011 sec
Total time needed                          ...    0.033 sec

-------------------
DFT GRID GENERATION
-------------------

General Integration Accuracy     IntAcc      ... 4.388
Radial Grid Type                 RadialGrid  ... OptM3 with GC (2021)
Angular Grid (max. ang.)         AngularGrid ... 4 (Lebedev-302)
Angular grid pruning method      GridPruning ... 4 (adaptive)
Weight generation scheme         WeightScheme... mBecke (2022)
Basis function cutoff            BFCut       ... 1.0000e-11
Integration weight cutoff        WCut        ... 1.0000e-14
Partially contracted basis set               ... off
Rotationally invariant grid construction     ... off
Angular grids for H and He will be reduced by one unit

Total number of grid points                  ...   176968
Total number of batches                      ...     2788
Average number of points per batch           ...       63
Average number of grid points per atom       ...     5205
Initializing property integral containers    ... done (  0.0 sec)

SHARK setup successfully completed in   1.4 seconds

Maximum memory used throughout the entire STARTUP-calculation: 47.8 MB


           ************************************************************
           *        Program running with 6 parallel MPI-processes     *
           *              working on a common directory               *
           ************************************************************
-------------------------------------------------------------------------------
                                 ORCA GUESS
                   Start orbitals & Density for SCF / CASSCF
-------------------------------------------------------------------------------

------------
SCF SETTINGS
------------
Hamiltonian:
 Density Functional     Method          .... DFT(GTOs)
 Exchange Functional    Exchange        .... B88
   X-Alpha parameter    XAlpha          ....  0.666667
   Becke's b parameter  XBeta           ....  0.004200
 Correlation Functional Correlation     .... P86
 LDA part of GGA corr.  LDAOpt          .... PW91-LDA
 Gradients option       PostSCFGGA      .... off
   NL short-range parameter             ....  4.400000
 RI-approximation to the Coulomb term is turned on
   Number of AuxJ basis functions       .... 1288


General Settings:
 Integral files         IntName         .... data/geom_opt_P_BP86/300563/300563
 Hartree-Fock type      HFTyp           .... RHF
 Total Charge           Charge          ....    0
 Multiplicity           Mult            ....    1
 Number of Electrons    NEL             ....  178
 Basis Dimension        Dim             ....  390
 Nuclear Repulsion      ENuc            ....   2192.0367885997 Eh

Convergence Acceleration:
 AO-DIIS                CNVDIIS         .... on
   Start iteration      DIISMaxIt       ....    12
   Startup error        DIISStart       ....  0.200000
   # of expansion vecs  DIISMaxEq       ....     5
   Bias factor          DIISBfac        ....   1.050
   Max. coefficient     DIISMaxC        ....  10.000
 MO-DIIS                CNVKDIIS        .... off
 Trust-Rad. Augm. Hess. CNVTRAH         .... auto
   Auto Start mean grad. ratio tolernc. ....  1.125000
   Auto Start start iteration           ....    50
   Auto Start num. interpolation iter.  ....    10
   Max. Number of Micro iterations      ....    24
   Max. Number of Macro iterations      .... Maxiter - #DIIS iter
   Number of Davidson start vectors     ....     2
   Converg. threshold    (grad. norm)   ....   1.000e-05
   Grad. Scal. Fac. for Micro threshold ....   0.100
   Minimum threshold for Micro iter.    ....   1.000e-02
   NR start threshold (gradient norm)   ....   1.000e-04
   Initial trust radius                 ....   0.400
   Minimum AH scaling param. (alpha)    ....   1.000
   Maximum AH scaling param. (alpha)    .... 1000.000
   Quad. conv. algorithm                .... NR
   White noise on init. David. guess    .... on
   Maximum white noise                  ....   0.010
   Pseudo random numbers                .... off
   Inactive MOs                         .... canonical
   Orbital update algorithm             .... Taylor
   Preconditioner                       .... Diag
   Full preconditioner red. dimension   ....   250
 SOSCF                  CNVSOSCF        .... on
   Start iteration      SOSCFMaxIt      ....   150
   Startup grad/error   SOSCFStart      ....  0.003300
   Hessian update       SOSCFHessUp     .... L-BFGS
 Level Shifting         CNVShift        .... on
   Level shift para.    LevelShift      ....    0.2500
   Turn off err/grad.   ShiftErr        ....    0.0010
 Zerner damping         CNVZerner       .... off
 Static damping         CNVDamp         .... on
   Fraction old density DampFac         ....    0.7000
   Max. Damping (<1)    DampMax         ....    0.9800
   Min. Damping (>=0)   DampMin         ....    0.0000
   Turn off err/grad.   DampErr         ....    0.1000

SCF Procedure:
 Maximum # iterations   MaxIter         ....   125
 SCF integral mode      SCFMode         .... Direct
   Integral package                     .... SHARK and LIBINT hybrid scheme
 Reset frequency        DirectResetFreq ....    20
 Integral Threshold     Thresh          ....  2.500e-11 Eh
 Primitive CutOff       TCut            ....  2.500e-12 Eh

Convergence Tolerance:
 Convergence Check Mode ConvCheckMode   .... Total+1el-Energy
 Convergence forced     ConvForced      .... 0
 Energy Change          TolE            ....  1.000e-08 Eh
 1-El. energy change                    ....  1.000e-05 Eh
 Orbital Gradient       TolG            ....  1.000e-05
 Orbital Rotation angle TolX            ....  1.000e-05
 DIIS Error             TolErr          ....  5.000e-07

------------------------------
INITIAL GUESS: MODEL POTENTIAL
------------------------------
Loading Hartree-Fock densities                     ... done
Calculating cut-offs                               ... done
Initializing the effective Hamiltonian             ... done
Setting up the integral package (SHARK)            ... done
Starting the Coulomb interaction                   ... done (   0.2 sec)
Making the grid                                    ... done (   0.3 sec)
Mapping shells                                     ... done
Starting the XC term evaluation                    ... done (   0.2 sec)
  promolecular density results
     # of electrons  =    177.992734269
     EX              =   -168.450743775
     EC              =     -6.745723620
     EX+EC           =   -175.196467395
Transforming the Hamiltonian                       ... done (   0.0 sec)
Diagonalizing the Hamiltonian                      ... done (   0.0 sec)
Back transforming the eigenvectors                 ... done (   0.0 sec)
Now organizing SCF variables                       ... done
                      ------------------
                      INITIAL GUESS DONE (   0.6 sec)
                      ------------------
             **** ENERGY FILE WAS UPDATED (data/geom_opt_P_BP86/300563/300563.en.tmp) ****
Finished Guess after   0.7 sec
Maximum memory used throughout the entire GUESS-calculation: 27.5 MB


           ************************************************************
           *        Program running with 6 parallel MPI-processes     *
           *              working on a common directory               *
           ************************************************************

-------------------------------------------------------------------------------------------
                                      ORCA LEAN-SCF
                              memory conserving SCF solver
-------------------------------------------------------------------------------------------

----------------------------------------D-I-I-S--------------------------------------------
Iteration    Energy (Eh)           Delta-E    RMSDP     MaxDP     DIISErr   Damp  Time(sec)
-------------------------------------------------------------------------------------------
               ***  Starting incremental Fock matrix formation  ***
    1    -1531.2269747623131479     0.00e+00  2.01e-03  9.03e-02  1.19e-01  0.700   1.0
Warning: op=0 Small HOMO/LUMO gap (   0.096) - skipping pre-diagonalization
         Will do a full diagonalization
    2    -1531.3622055188088780    -1.35e-01  1.43e-03  6.50e-02  5.40e-02  0.700   1.0
                               ***Turning on AO-DIIS***
    3    -1531.4132873572825702    -5.11e-02  6.28e-04  3.30e-02  1.85e-02  0.700   1.0
    4    -1531.4430149964300654    -2.97e-02  1.20e-03  7.25e-02  8.47e-03  0.000   1.1
    5    -1531.5089504994548406    -6.59e-02  2.82e-04  1.47e-02  5.87e-03  0.000   1.4
                              *** Initializing SOSCF ***
---------------------------------------S-O-S-C-F--------------------------------------
Iteration    Energy (Eh)           Delta-E    RMSDP     MaxDP     MaxGrad    Time(sec)
--------------------------------------------------------------------------------------
    6    -1531.5094439476397383    -4.93e-04  8.63e-05  3.88e-03  3.01e-03     1.0
               *** Restarting incremental Fock matrix formation ***
    7    -1531.5095293745066556    -8.54e-05  8.08e-05  4.10e-03  3.96e-04     1.0
    8    -1531.5095241684380198     5.21e-06  3.96e-05  2.31e-03  7.17e-04     0.9
    9    -1531.5095401506955568    -1.60e-05  2.22e-05  7.87e-04  1.67e-04     0.9
   10    -1531.5095401398916692     1.08e-08  1.09e-05  4.61e-04  1.91e-04     0.9
   11    -1531.5095409074815507    -7.68e-07  1.29e-05  3.40e-04  9.26e-05     0.9
   12    -1531.5095412856840085    -3.78e-07  6.15e-06  1.65e-04  4.43e-05     0.9
   13    -1531.5095414090310442    -1.23e-07  4.79e-06  1.85e-04  3.93e-05     0.8
   14    -1531.5095414443921982    -3.54e-08  2.95e-06  7.78e-05  3.26e-05     0.8
   15    -1531.5095414968413934    -5.24e-08  2.06e-06  9.56e-05  1.51e-05     0.9
   16    -1531.5095415122214035    -1.54e-08  1.17e-06  3.60e-05  1.48e-05     0.8
   17    -1531.5095415337418672    -2.15e-08  9.50e-07  5.49e-05  4.66e-06     0.8
   18    -1531.5095415307428084     3.00e-09  5.69e-07  2.76e-05  6.74e-06     0.8
                 **** Energy Check signals convergence ****

               *****************************************************
               *                     SUCCESS                       *
               *           SCF CONVERGED AFTER  18 CYCLES          *
               *****************************************************

             **** ENERGY FILE WAS UPDATED (data/geom_opt_P_BP86/300563/300563.en.tmp) ****

----------------
TOTAL SCF ENERGY
----------------

Total Energy       :      -1531.50954153074281 Eh          -41674.49332 eV

Components:
Nuclear Repulsion  :       2192.03678859967249 Eh           59648.35348 eV
Electronic Energy  :      -3723.54633013041530 Eh         -101322.84680 eV
One Electron Energy:      -6463.54973931264522 Eh         -175882.13008 eV
Two Electron Energy:       2740.00340918222992 Eh           74559.28328 eV

Virial components:
Potential Energy   :      -3051.25161958026820 Eh          -83028.77767 eV
Kinetic Energy     :       1519.74207804952539 Eh           41354.28435 eV
Virial Ratio       :          2.00774306617628

DFT components:
N(Alpha)           :       88.999978992375 electrons
N(Beta)            :       88.999978992375 electrons
N(Total)           :      177.999957984751 electrons
E(X)               :     -170.120042304221 Eh       
E(C)               :       -6.745148927950 Eh       
E(XC)              :     -176.865191232171 Eh       

---------------
SCF CONVERGENCE
---------------

  Last Energy change         ...   -2.9991e-09  Tolerance :   1.0000e-08
  Last MAX-Density change    ...    2.7566e-05  Tolerance :   1.0000e-07
  Last RMS-Density change    ...    5.6865e-07  Tolerance :   5.0000e-09
  Last DIIS Error            ...    3.0120e-03  Tolerance :   5.0000e-07
  Last Orbital Gradient      ...    6.7352e-06  Tolerance :   1.0000e-05
  Last Orbital Rotation      ...    2.9081e-05  Tolerance :   1.0000e-05


----------------
ORBITAL ENERGIES
----------------

  NO   OCC          E(Eh)            E(eV) 
   0   2.0000     -76.360612     -2077.8779 
   1   2.0000     -24.333746      -662.1549 
   2   2.0000     -24.330381      -662.0633 
   3   2.0000     -24.327439      -661.9833 
   4   2.0000     -24.327325      -661.9802 
   5   2.0000     -24.324844      -661.9126 
   6   2.0000     -10.031747      -272.9777 
   7   2.0000     -10.029633      -272.9202 
   8   2.0000     -10.029246      -272.9097 
   9   2.0000     -10.025191      -272.7993 
  10   2.0000     -10.025124      -272.7975 
  11   2.0000      -9.956291      -270.9244 
  12   2.0000      -9.934159      -270.3222 
  13   2.0000      -9.932944      -270.2892 
  14   2.0000      -9.929613      -270.1985 
  15   2.0000      -9.927435      -270.1392 
  16   2.0000      -9.927289      -270.1353 
  17   2.0000      -9.926252      -270.1071 
  18   2.0000      -9.925983      -270.0997 
  19   2.0000      -9.924939      -270.0713 
  20   2.0000      -9.924453      -270.0581 
  21   2.0000      -9.921921      -269.9892 
  22   2.0000      -9.921839      -269.9870 
  23   2.0000      -9.919177      -269.9145 
  24   2.0000      -6.329391      -172.2315 
  25   2.0000      -4.551183      -123.8440 
  26   2.0000      -4.550427      -123.8234 
  27   2.0000      -4.546918      -123.7279 
  28   2.0000      -1.151585       -31.3362 
  29   2.0000      -1.144292       -31.1378 
  30   2.0000      -1.138575       -30.9822 
  31   2.0000      -1.129387       -30.7322 
  32   2.0000      -1.125691       -30.6316 
  33   2.0000      -0.826505       -22.4903 
  34   2.0000      -0.787740       -21.4355 
  35   2.0000      -0.780403       -21.2358 
  36   2.0000      -0.727460       -19.7952 
  37   2.0000      -0.706871       -19.2349 
  38   2.0000      -0.695695       -18.9308 
  39   2.0000      -0.681178       -18.5358 
  40   2.0000      -0.678669       -18.4675 
  41   2.0000      -0.675208       -18.3733 
  42   2.0000      -0.623233       -16.9590 
  43   2.0000      -0.602553       -16.3963 
  44   2.0000      -0.583359       -15.8740 
  45   2.0000      -0.554321       -15.0838 
  46   2.0000      -0.550762       -14.9870 
  47   2.0000      -0.544951       -14.8289 
  48   2.0000      -0.543711       -14.7951 
  49   2.0000      -0.538587       -14.6557 
  50   2.0000      -0.526090       -14.3156 
  51   2.0000      -0.510370       -13.8879 
  52   2.0000      -0.498435       -13.5631 
  53   2.0000      -0.492096       -13.3906 
  54   2.0000      -0.478957       -13.0331 
  55   2.0000      -0.472147       -12.8478 
  56   2.0000      -0.471521       -12.8307 
  57   2.0000      -0.458187       -12.4679 
  58   2.0000      -0.442950       -12.0533 
  59   2.0000      -0.432833       -11.7780 
  60   2.0000      -0.418076       -11.3764 
  61   2.0000      -0.417272       -11.3546 
  62   2.0000      -0.412534       -11.2256 
  63   2.0000      -0.408705       -11.1214 
  64   2.0000      -0.406960       -11.0739 
  65   2.0000      -0.405586       -11.0366 
  66   2.0000      -0.387830       -10.5534 
  67   2.0000      -0.386114       -10.5067 
  68   2.0000      -0.381881       -10.3915 
  69   2.0000      -0.381192       -10.3728 
  70   2.0000      -0.379567       -10.3285 
  71   2.0000      -0.374835       -10.1998 
  72   2.0000      -0.362065        -9.8523 
  73   2.0000      -0.351612        -9.5678 
  74   2.0000      -0.343074        -9.3355 
  75   2.0000      -0.338944        -9.2231 
  76   2.0000      -0.336550        -9.1580 
  77   2.0000      -0.321833        -8.7575 
  78   2.0000      -0.317899        -8.6505 
  79   2.0000      -0.313672        -8.5354 
  80   2.0000      -0.310007        -8.4357 
  81   2.0000      -0.297696        -8.1007 
  82   2.0000      -0.258264        -7.0277 
  83   2.0000      -0.255626        -6.9559 
  84   2.0000      -0.242760        -6.6058 
  85   2.0000      -0.239836        -6.5263 
  86   2.0000      -0.235250        -6.4015 
  87   2.0000      -0.233504        -6.3540 
  88   2.0000      -0.198340        -5.3971 
  89   0.0000      -0.081879        -2.2280 
  90   0.0000      -0.063406        -1.7254 
  91   0.0000      -0.057393        -1.5617 
  92   0.0000      -0.053559        -1.4574 
  93   0.0000      -0.053258        -1.4492 
  94   0.0000      -0.043044        -1.1713 
  95   0.0000      -0.034402        -0.9361 
  96   0.0000       0.023864         0.6494 
  97   0.0000       0.026986         0.7343 
  98   0.0000       0.046312         1.2602 
  99   0.0000       0.048608         1.3227 
*Only the first 10 virtual orbitals were printed.

                    ********************************
                    * MULLIKEN POPULATION ANALYSIS *
                    ********************************

-----------------------
MULLIKEN ATOMIC CHARGES
-----------------------
   0 C :    0.014208
   1 C :    0.008549
   2 C :    0.013598
   3 C :   -0.124259
   4 C :   -0.003316
   5 C :    0.013023
   6 P :    0.328630
   7 C :   -0.086582
   8 C :   -0.010366
   9 C :    0.012037
  10 C :    0.005733
  11 C :    0.011123
  12 C :   -0.022646
  13 C :   -0.274425
  14 C :    0.171543
  15 C :    0.163984
  16 C :    0.105165
  17 C :    0.174476
  18 C :    0.168509
  19 F :   -0.131667
  20 F :   -0.137052
  21 F :   -0.132289
  22 F :   -0.136025
  23 F :   -0.129878
  24 H :    0.000905
  25 H :    0.000853
  26 H :    0.000736
  27 H :    0.013915
  28 H :   -0.001222
  29 H :   -0.008569
  30 H :   -0.003193
  31 H :   -0.003758
  32 H :   -0.002797
  33 H :    0.001056
Sum of atomic charges:   -0.0000000

--------------------------------
MULLIKEN REDUCED ORBITAL CHARGES
--------------------------------
  0 C s       :     3.169504  s :     3.169504
      pz      :     0.930281  p :     2.783074
      px      :     0.887194
      py      :     0.965599
      dz2     :     0.008421  d :     0.033214
      dxz     :     0.011695
      dyz     :     0.005550
      dx2y2   :     0.004066
      dxy     :     0.003481

  1 C s       :     3.171246  s :     3.171246
      pz      :     0.937096  p :     2.787534
      px      :     0.876771
      py      :     0.973667
      dz2     :     0.008858  d :     0.032670
      dxz     :     0.011153
      dyz     :     0.005610
      dx2y2   :     0.003648
      dxy     :     0.003401

  2 C s       :     3.225597  s :     3.225597
      pz      :     0.839199  p :     2.728175
      px      :     0.925993
      py      :     0.962982
      dz2     :     0.009196  d :     0.032629
      dxz     :     0.009049
      dyz     :     0.002717
      dx2y2   :     0.005635
      dxy     :     0.006033

  3 C s       :     3.061982  s :     3.061982
      pz      :     1.005759  p :     3.027185
      px      :     0.992185
      py      :     1.029242
      dz2     :     0.009426  d :     0.035092
      dxz     :     0.011587
      dyz     :     0.005628
      dx2y2   :     0.004501
      dxy     :     0.003950

  4 C s       :     3.231667  s :     3.231667
      pz      :     0.934021  p :     2.738967
      px      :     0.859668
      py      :     0.945278
      dz2     :     0.008665  d :     0.032682
      dxz     :     0.011248
      dyz     :     0.005708
      dx2y2   :     0.003591
      dxy     :     0.003471

  5 C s       :     3.171109  s :     3.171109
      pz      :     0.837545  p :     2.783094
      px      :     0.963350
      py      :     0.982200
      dz2     :     0.009479  d :     0.032774
      dxz     :     0.009144
      dyz     :     0.002778
      dx2y2   :     0.005535
      dxy     :     0.005837

  6 P s       :     5.691500  s :     5.691500
      pz      :     3.303211  p :     8.803237
      px      :     2.754268
      py      :     2.745757
      dz2     :     0.018163  d :     0.176633
      dxz     :     0.038538
      dyz     :     0.028964
      dx2y2   :     0.036096
      dxy     :     0.054872

  7 C s       :     3.034493  s :     3.034493
      pz      :     0.995354  p :     3.017316
      px      :     1.012366
      py      :     1.009596
      dz2     :     0.004139  d :     0.034773
      dxz     :     0.006970
      dyz     :     0.004737
      dx2y2   :     0.008896
      dxy     :     0.010032

  8 C s       :     3.217729  s :     3.217729
      pz      :     0.955124  p :     2.760189
      px      :     0.921940
      py      :     0.883125
      dz2     :     0.002972  d :     0.032448
      dxz     :     0.006498
      dyz     :     0.003851
      dx2y2   :     0.008700
      dxy     :     0.010426

  9 C s       :     3.166737  s :     3.166737
      pz      :     0.980961  p :     2.788180
      px      :     0.837990
      py      :     0.969228
      dz2     :     0.004613  d :     0.033046
      dxz     :     0.003756
      dyz     :     0.005721
      dx2y2   :     0.010954
      dxy     :     0.008002

 10 C s       :     3.167714  s :     3.167714
      pz      :     0.966247  p :     2.793452
      px      :     0.934511
      py      :     0.892694
      dz2     :     0.003215  d :     0.033102
      dxz     :     0.006671
      dyz     :     0.003723
      dx2y2   :     0.009024
      dxy     :     0.010469

 11 C s       :     3.167392  s :     3.167392
      pz      :     0.957932  p :     2.788413
      px      :     0.933178
      py      :     0.897303
      dz2     :     0.002985  d :     0.033073
      dxz     :     0.006737
      dyz     :     0.003750
      dx2y2   :     0.009038
      dxy     :     0.010563

 12 C s       :     3.226724  s :     3.226724
      pz      :     0.975963  p :     2.763489
      px      :     0.846448
      py      :     0.941079
      dz2     :     0.004339  d :     0.032432
      dxz     :     0.003507
      dyz     :     0.005613
      dx2y2   :     0.011054
      dxy     :     0.007920

 13 C s       :     3.109634  s :     3.109634
      pz      :     1.025617  p :     3.132120
      px      :     1.074071
      py      :     1.032432
      dz2     :     0.006880  d :     0.032671
      dxz     :     0.007392
      dyz     :     0.009774
      dx2y2   :     0.004468
      dxy     :     0.004158

 14 C s       :     3.109087  s :     3.109087
      pz      :     0.763437  p :     2.639689
      px      :     0.948262
      py      :     0.927991
      dz2     :     0.023542  d :     0.079681
      dxz     :     0.017772
      dyz     :     0.018409
      dx2y2   :     0.010049
      dxy     :     0.009909

 15 C s       :     3.058142  s :     3.058142
      pz      :     0.813404  p :     2.699806
      px      :     1.050143
      py      :     0.836258
      dz2     :     0.019443  d :     0.078068
      dxz     :     0.013139
      dyz     :     0.021260
      dx2y2   :     0.012547
      dxy     :     0.011678

 16 C s       :     3.104494  s :     3.104494
      pz      :     0.960040  p :     2.711082
      px      :     0.969619
      py      :     0.781424
      dz2     :     0.014008  d :     0.079259
      dxz     :     0.011347
      dyz     :     0.019295
      dx2y2   :     0.017517
      dxy     :     0.017093

 17 C s       :     3.055058  s :     3.055058
      pz      :     0.741712  p :     2.692436
      px      :     0.989156
      py      :     0.961569
      dz2     :     0.021471  d :     0.078030
      dxz     :     0.017769
      dyz     :     0.019744
      dx2y2   :     0.009655
      dxy     :     0.009391

 18 C s       :     3.121531  s :     3.121531
      pz      :     0.824511  p :     2.629736
      px      :     1.002204
      py      :     0.803021
      dz2     :     0.020215  d :     0.080224
      dxz     :     0.012544
      dyz     :     0.023401
      dx2y2   :     0.012124
      dxy     :     0.011941

 19 F s       :     3.899906  s :     3.899906
      pz      :     1.654204  p :     5.223466
      px      :     1.878667
      py      :     1.690595
      dz2     :     0.001874  d :     0.008294
      dxz     :     0.001163
      dyz     :     0.003151
      dx2y2   :     0.001149
      dxy     :     0.000958

 20 F s       :     3.889874  s :     3.889874
      pz      :     1.552205  p :     5.238813
      px      :     1.796496
      py      :     1.890112
      dz2     :     0.002932  d :     0.008365
      dxz     :     0.002786
      dyz     :     0.001637
      dx2y2   :     0.000553
      dxy     :     0.000458

 21 F s       :     3.891989  s :     3.891989
      pz      :     1.891146  p :     5.231892
      px      :     1.768494
      py      :     1.572252
      dz2     :     0.001076  d :     0.008408
      dxz     :     0.000569
      dyz     :     0.001528
      dx2y2   :     0.002322
      dxy     :     0.002912

 22 F s       :     3.889771  s :     3.889771
      pz      :     1.664373  p :     5.237878
      px      :     1.887842
      py      :     1.685663
      dz2     :     0.001798  d :     0.008376
      dxz     :     0.001129
      dyz     :     0.003208
      dx2y2   :     0.001233
      dxy     :     0.001008

 23 F s       :     3.893752  s :     3.893752
      pz      :     1.548553  p :     5.227811
      px      :     1.793272
      py      :     1.885986
      dz2     :     0.002980  d :     0.008315
      dxz     :     0.002754
      dyz     :     0.001610
      dx2y2   :     0.000531
      dxy     :     0.000439

 24 H s       :     0.976782  s :     0.976782
      pz      :     0.006643  p :     0.022313
      px      :     0.010536
      py      :     0.005135

 25 H s       :     0.976748  s :     0.976748
      pz      :     0.005793  p :     0.022399
      px      :     0.010930
      py      :     0.005676

 26 H s       :     0.976742  s :     0.976742
      pz      :     0.013861  p :     0.022522
      px      :     0.003811
      py      :     0.004851

 27 H s       :     0.962645  s :     0.962645
      pz      :     0.005854  p :     0.023440
      px      :     0.011923
      py      :     0.005663

 28 H s       :     0.978868  s :     0.978868
      pz      :     0.013600  p :     0.022354
      px      :     0.003790
      py      :     0.004964

 29 H s       :     0.985746  s :     0.985746
      pz      :     0.006820  p :     0.022823
      px      :     0.006471
      py      :     0.009532

 30 H s       :     0.980780  s :     0.980780
      pz      :     0.004782  p :     0.022412
      px      :     0.013616
      py      :     0.004014

 31 H s       :     0.981342  s :     0.981342
      pz      :     0.006235  p :     0.022416
      px      :     0.006167
      py      :     0.010014

 32 H s       :     0.980401  s :     0.980401
      pz      :     0.006378  p :     0.022396
      px      :     0.006246
      py      :     0.009772

 33 H s       :     0.976170  s :     0.976170
      pz      :     0.004859  p :     0.022773
      px      :     0.013859
      py      :     0.004056



                     *******************************
                     * LOEWDIN POPULATION ANALYSIS *
                     *******************************

----------------------
LOEWDIN ATOMIC CHARGES
----------------------
   0 C :   -0.018723
   1 C :   -0.027573
   2 C :   -0.025638
   3 C :   -0.180041
   4 C :   -0.024380
   5 C :   -0.026845
   6 P :    0.529663
   7 C :   -0.179491
   8 C :   -0.037246
   9 C :   -0.024566
  10 C :   -0.030606
  11 C :   -0.025341
  12 C :   -0.035478
  13 C :   -0.235202
  14 C :    0.041227
  15 C :    0.009041
  16 C :    0.026296
  17 C :    0.009787
  18 C :    0.040652
  19 F :   -0.009839
  20 F :   -0.022737
  21 F :   -0.014976
  22 F :   -0.021590
  23 F :   -0.021527
  24 H :    0.031978
  25 H :    0.032856
  26 H :    0.030177
  27 H :    0.028691
  28 H :    0.032430
  29 H :    0.025437
  30 H :    0.031745
  31 H :    0.030237
  32 H :    0.031914
  33 H :    0.029669

-------------------------------
LOEWDIN REDUCED ORBITAL CHARGES
-------------------------------
  0 C s       :     2.864014  s :     2.864014
      pz      :     1.062236  p :     3.064846
      px      :     1.043316
      py      :     0.959293
      dz2     :     0.025663  d :     0.089863
      dxz     :     0.033270
      dyz     :     0.012650
      dx2y2   :     0.010431
      dxy     :     0.007848

  1 C s       :     2.864024  s :     2.864024
      pz      :     1.062585  p :     3.074899
      px      :     1.040368
      py      :     0.971946
      dz2     :     0.026775  d :     0.088649
      dxz     :     0.032406
      dyz     :     0.012696
      dx2y2   :     0.009345
      dxy     :     0.007427

  2 C s       :     2.871159  s :     2.871159
      pz      :     1.045378  p :     3.065392
      px      :     1.056619
      py      :     0.963395
      dz2     :     0.025722  d :     0.089087
      dxz     :     0.027288
      dyz     :     0.005733
      dx2y2   :     0.015857
      dxy     :     0.014486

  3 C s       :     2.912771  s :     2.912771
      pz      :     1.095341  p :     3.175551
      px      :     1.066995
      py      :     1.013215
      dz2     :     0.027763  d :     0.091719
      dxz     :     0.032474
      dyz     :     0.012527
      dx2y2   :     0.010589
      dxy     :     0.008366

  4 C s       :     2.870019  s :     2.870019
      pz      :     1.059336  p :     3.064840
      px      :     1.050374
      py      :     0.955130
      dz2     :     0.026615  d :     0.089521
      dxz     :     0.033267
      dyz     :     0.013004
      dx2y2   :     0.009174
      dxy     :     0.007461

  5 C s       :     2.864529  s :     2.864529
      pz      :     1.040062  p :     3.073391
      px      :     1.060363
      py      :     0.972965
      dz2     :     0.025772  d :     0.088926
      dxz     :     0.028076
      dyz     :     0.005835
      dx2y2   :     0.015313
      dxy     :     0.013930

  6 P s       :     5.238607  s :     5.238607
      pz      :     3.380722  p :     8.984363
      px      :     2.815349
      py      :     2.788292
      dz2     :     0.026291  d :     0.247367
      dxz     :     0.053831
      dyz     :     0.037219
      dx2y2   :     0.050154
      dxy     :     0.079873

  7 C s       :     2.913870  s :     2.913870
      pz      :     1.014581  p :     3.175016
      px      :     1.088926
      py      :     1.071509
      dz2     :     0.009109  d :     0.090605
      dxz     :     0.016417
      dyz     :     0.011609
      dx2y2   :     0.026041
      dxy     :     0.027429

  8 C s       :     2.865735  s :     2.865735
      pz      :     0.994320  p :     3.082727
      px      :     1.052042
      py      :     1.036365
      dz2     :     0.007166  d :     0.088784
      dxz     :     0.015914
      dyz     :     0.009612
      dx2y2   :     0.025958
      dxy     :     0.030134

  9 C s       :     2.863269  s :     2.863269
      pz      :     0.988481  p :     3.071980
      px      :     1.039314
      py      :     1.044184
      dz2     :     0.010454  d :     0.089317
      dxz     :     0.009387
      dyz     :     0.015343
      dx2y2   :     0.030034
      dxy     :     0.024100

 10 C s       :     2.861937  s :     2.861937
      pz      :     0.986231  p :     3.078872
      px      :     1.062757
      py      :     1.029884
      dz2     :     0.007618  d :     0.089797
      dxz     :     0.016349
      dyz     :     0.009484
      dx2y2   :     0.026854
      dxy     :     0.029493

 11 C s       :     2.863237  s :     2.863237
      pz      :     0.982703  p :     3.072649
      px      :     1.062783
      py      :     1.027163
      dz2     :     0.007155  d :     0.089455
      dxz     :     0.016273
      dyz     :     0.009329
      dx2y2   :     0.026782
      dxy     :     0.029916

 12 C s       :     2.865662  s :     2.865662
      pz      :     0.991455  p :     3.081258
      px      :     1.044481
      py      :     1.045322
      dz2     :     0.009628  d :     0.088557
      dxz     :     0.008660
      dyz     :     0.015208
      dx2y2   :     0.031292
      dxy     :     0.023769

 13 C s       :     2.919482  s :     2.919482
      pz      :     1.067477  p :     3.227146
      px      :     1.073844
      py      :     1.085825
      dz2     :     0.020215  d :     0.088574
      dxz     :     0.019656
      dyz     :     0.028767
      dx2y2   :     0.009930
      dxy     :     0.010006

 14 C s       :     2.854915  s :     2.854915
      pz      :     0.857239  p :     2.916088
      px      :     0.988192
      py      :     1.070656
      dz2     :     0.053989  d :     0.187771
      dxz     :     0.038886
      dyz     :     0.047409
      dx2y2   :     0.022637
      dxy     :     0.024849

 15 C s       :     2.850152  s :     2.850152
      pz      :     0.933608  p :     2.954401
      px      :     1.073390
      py      :     0.947403
      dz2     :     0.049145  d :     0.186406
      dxz     :     0.030216
      dyz     :     0.050741
      dx2y2   :     0.028629
      dxy     :     0.027675

 16 C s       :     2.848159  s :     2.848159
      pz      :     1.074778  p :     2.937155
      px      :     0.986703
      py      :     0.875675
      dz2     :     0.035435  d :     0.188390
      dxz     :     0.028379
      dyz     :     0.050129
      dx2y2   :     0.037202
      dxy     :     0.037245

 17 C s       :     2.850981  s :     2.850981
      pz      :     0.863371  p :     2.952782
      px      :     1.016364
      py      :     1.073047
      dz2     :     0.050808  d :     0.186450
      dxz     :     0.038663
      dyz     :     0.050970
      dx2y2   :     0.021854
      dxy     :     0.024154

 18 C s       :     2.854455  s :     2.854455
      pz      :     0.930171  p :     2.915270
      px      :     1.047460
      py      :     0.937640
      dz2     :     0.049499  d :     0.189623
      dxz     :     0.028775
      dyz     :     0.055480
      dx2y2   :     0.027675
      dxy     :     0.028195

 19 F s       :     3.722451  s :     3.722451
      pz      :     1.683206  p :     5.274119
      px      :     1.877110
      py      :     1.713804
      dz2     :     0.002790  d :     0.013269
      dxz     :     0.001676
      dyz     :     0.005551
      dx2y2   :     0.001860
      dxy     :     0.001392

 20 F s       :     3.723013  s :     3.723013
      pz      :     1.587347  p :     5.286319
      px      :     1.805911
      py      :     1.893060
      dz2     :     0.004794  d :     0.013404
      dxz     :     0.004678
      dyz     :     0.002420
      dx2y2   :     0.000846
[...]
      px      :     1.071730
      py      :     1.090820
      dz2     :     0.020889  d :     0.085464
      dxz     :     0.020647
      dyz     :     0.029176
      dx2y2   :     0.006505
      dxy     :     0.008247

 14 C s       :     2.860253  s :     2.860253
      pz      :     0.850438  p :     2.915391
      px      :     1.020626
      py      :     1.044327
      dz2     :     0.061711  d :     0.187802
      dxz     :     0.038104
      dyz     :     0.049821
      dx2y2   :     0.018795
      dxy     :     0.019372

 15 C s       :     2.857787  s :     2.857787
      pz      :     0.898665  p :     2.953018
      px      :     1.059448
      py      :     0.994904
      dz2     :     0.054950  d :     0.183379
      dxz     :     0.033823
      dyz     :     0.049729
      dx2y2   :     0.021805
      dxy     :     0.023073

 16 C s       :     2.859628  s :     2.859628
      pz      :     1.075689  p :     2.930081
      px      :     0.982059
      py      :     0.872334
      dz2     :     0.035522  d :     0.185181
      dxz     :     0.029682
      dyz     :     0.051950
      dx2y2   :     0.033290
      dxy     :     0.034736

 17 C s       :     2.857856  s :     2.857856
      pz      :     0.844979  p :     2.951402
      px      :     1.053379
      py      :     1.053044
      dz2     :     0.055637  d :     0.183676
      dxz     :     0.038612
      dyz     :     0.052917
      dx2y2   :     0.017717
      dxy     :     0.018793

 18 C s       :     2.860392  s :     2.860392
      pz      :     0.906346  p :     2.910178
      px      :     1.023288
      py      :     0.980544
      dz2     :     0.056430  d :     0.188695
      dxz     :     0.033479
      dyz     :     0.053458
      dx2y2   :     0.022218
      dxy     :     0.023110

 19 F s       :     3.722087  s :     3.722087
      pz      :     1.641285  p :     5.273258
      px      :     1.855784
      py      :     1.776188
      dz2     :     0.003592  d :     0.013421
      dxz     :     0.002542
      dyz     :     0.004904
      dx2y2   :     0.001221
      dxy     :     0.001162

 20 F s       :     3.722064  s :     3.722064
      pz      :     1.566370  p :     5.284010
      px      :     1.855069
      py      :     1.862571
      dz2     :     0.005351  d :     0.013565
      dxz     :     0.003592
      dyz     :     0.003509
      dx2y2   :     0.000561
      dxy     :     0.000552

 21 F s       :     3.720151  s :     3.720151
      pz      :     1.899962  p :     5.277458
      px      :     1.772798
      py      :     1.604697
      dz2     :     0.001911  d :     0.013709
      dxz     :     0.000809
      dyz     :     0.002089
      dx2y2   :     0.003748
      dxy     :     0.005153

 22 F s       :     3.721805  s :     3.721805
      pz      :     1.645822  p :     5.283752
      px      :     1.862267
      py      :     1.775663
      dz2     :     0.003388  d :     0.013587
      dxz     :     0.002671
      dyz     :     0.004940
      dx2y2   :     0.001311
      dxy     :     0.001278

 23 F s       :     3.723448  s :     3.723448
      pz      :     1.562055  p :     5.283211
      px      :     1.854602
      py      :     1.866555
      dz2     :     0.005655  d :     0.013454
      dxz     :     0.003465
      dyz     :     0.003379
      dx2y2   :     0.000460
      dxy     :     0.000495

 24 H s       :     0.899793  s :     0.899793
      pz      :     0.021951  p :     0.065943
      px      :     0.030026
      py      :     0.013966

 25 H s       :     0.899240  s :     0.899240
      pz      :     0.014625  p :     0.065892
      px      :     0.028632
      py      :     0.022635

 26 H s       :     0.902322  s :     0.902322
      pz      :     0.038522  p :     0.066817
      px      :     0.011598
      py      :     0.016698

 27 H s       :     0.896600  s :     0.896600
      pz      :     0.014627  p :     0.068852
      px      :     0.031192
      py      :     0.023033

 28 H s       :     0.899448  s :     0.899448
      pz      :     0.037416  p :     0.065905
      px      :     0.011460
      py      :     0.017029

 29 H s       :     0.902168  s :     0.902168
      pz      :     0.015111  p :     0.068424
      px      :     0.017558
      py      :     0.035755

 30 H s       :     0.899352  s :     0.899352
      pz      :     0.014388  p :     0.065839
      px      :     0.039999
      py      :     0.011452

 31 H s       :     0.899711  s :     0.899711
      pz      :     0.017759  p :     0.066060
      px      :     0.019386
      py      :     0.028916

 32 H s       :     0.898994  s :     0.898994
      pz      :     0.014331  p :     0.065814
      px      :     0.017272
      py      :     0.034211

 33 H s       :     0.900240  s :     0.900240
      pz      :     0.014613  p :     0.066932
      px      :     0.040768
      py      :     0.011550



                      *****************************
                      * MAYER POPULATION ANALYSIS *
                      *****************************

  NA   - Mulliken gross atomic population
  ZA   - Total nuclear charge
  QA   - Mulliken gross atomic charge
  VA   - Mayer's total valence
  BVA  - Mayer's bonded valence
  FA   - Mayer's free valence

  ATOM       NA         ZA         QA         VA         BVA        FA
  0 C      5.9932     6.0000     0.0068     3.8280     3.8280    -0.0000
  1 C      6.0021     6.0000    -0.0021     3.8637     3.8637    -0.0000
  2 C      5.9835     6.0000     0.0165     3.8524     3.8524    -0.0000
  3 C      6.1396     6.0000    -0.1396     3.8349     3.8349    -0.0000
  4 C      5.9943     6.0000     0.0057     3.9153     3.9153    -0.0000
  5 C      6.0002     6.0000    -0.0002     3.8483     3.8483    -0.0000
  6 P     14.6480    15.0000     0.3520     2.9953     2.9953    -0.0000
  7 C      6.1298     6.0000    -0.1298     3.8252     3.8252    -0.0000
  8 C      5.9988     6.0000     0.0012     3.9027     3.9027    -0.0000
  9 C      5.9974     6.0000     0.0026     3.8567     3.8567    -0.0000
 10 C      5.9969     6.0000     0.0031     3.8317     3.8317    -0.0000
 11 C      5.9990     6.0000     0.0010     3.8732     3.8732    -0.0000
 12 C      6.0173     6.0000    -0.0173     3.9007     3.9007    -0.0000
 13 C      6.2906     6.0000    -0.2906     3.7114     3.7114    -0.0000
 14 C      5.8432     6.0000     0.1568     3.9325     3.9325    -0.0000
 15 C      5.8325     6.0000     0.1675     3.7729     3.7729    -0.0000
 16 C      5.9126     6.0000     0.0874     3.8184     3.8184    -0.0000
 17 C      5.8221     6.0000     0.1779     3.7877     3.7877    -0.0000
 18 C      5.8339     6.0000     0.1661     3.9076     3.9076    -0.0000
 19 F      9.1289     9.0000    -0.1289     1.2798     1.2798    -0.0000
 20 F      9.1318     9.0000    -0.1318     1.2692     1.2692    -0.0000
 21 F      9.1282     9.0000    -0.1282     1.2732     1.2732    -0.0000
 22 F      9.1315     9.0000    -0.1315     1.2690     1.2690    -0.0000
 23 F      9.1289     9.0000    -0.1289     1.2831     1.2831    -0.0000
 24 H      0.9922     1.0000     0.0078     0.9790     0.9790    -0.0000
 25 H      0.9923     1.0000     0.0077     0.9793     0.9793    -0.0000
 26 H      0.9943     1.0000     0.0057     0.9904     0.9904    -0.0000
 27 H      0.9783     1.0000     0.0217     0.9972     0.9972    -0.0000
 28 H      0.9941     1.0000     0.0059     0.9794     0.9794    -0.0000
 29 H      0.9943     1.0000     0.0057     0.9858     0.9858    -0.0000
 30 H      0.9942     1.0000     0.0058     0.9791     0.9791    -0.0000
 31 H      0.9928     1.0000     0.0072     0.9792     0.9792    -0.0000
 32 H      0.9923     1.0000     0.0077     0.9791     0.9791     0.0000
 33 H      0.9909     1.0000     0.0091     0.9909     0.9909     0.0000

  Mayer bond orders larger than 0.100000
B(  0-C ,  1-C ) :   1.3807 B(  0-C ,  5-C ) :   1.3756 B(  0-C , 24-H ) :   0.9759 
B(  1-C ,  2-C ) :   1.4015 B(  1-C , 25-H ) :   0.9758 B(  2-C ,  3-C ) :   1.3584 
B(  2-C , 26-H ) :   0.9703 B(  3-C ,  4-C ) :   1.3871 B(  3-C ,  6-P ) :   0.9367 
B(  4-C ,  5-C ) :   1.3942 B(  4-C , 27-H ) :   0.9617 B(  5-C , 28-H ) :   0.9738 
B(  6-P ,  7-C ) :   0.9229 B(  6-P , 13-C ) :   0.9252 B(  7-C ,  8-C ) :   1.3902 
B(  7-C , 12-C ) :   1.3525 B(  8-C ,  9-C ) :   1.3933 B(  8-C , 29-H ) :   0.9625 
B(  9-C , 10-C ) :   1.3840 B(  9-C , 30-H ) :   0.9730 B( 10-C , 11-C ) :   1.3731 
B( 10-C , 31-H ) :   0.9761 B( 11-C , 12-C ) :   1.4145 B( 11-C , 32-H ) :   0.9754 
B( 12-C , 33-H ) :   0.9709 B( 13-C , 14-C ) :   1.3247 B( 13-C , 18-C ) :   1.2918 
B( 14-C , 15-C ) :   1.2479 B( 14-C , 23-F ) :   1.1803 B( 15-C , 16-C ) :   1.2470 
B( 15-C , 22-F ) :   1.1833 B( 16-C , 17-C ) :   1.2369 B( 16-C , 21-F ) :   1.1722 
B( 17-C , 18-C ) :   1.2724 B( 17-C , 20-F ) :   1.1847 B( 18-C , 19-F ) :   1.1412 


-------
TIMINGS
-------

Total SCF time: 0 days 0 hours 0 min 8 sec 

Total time                  ....       8.271 sec
Sum of individual times     ....       8.157 sec  ( 98.6%)

SCF preparation             ....       0.131 sec  (  1.6%)
Fock matrix formation       ....       7.336 sec  ( 88.7%)
  Startup                   ....       0.035 sec  (  0.5% of F)
  Split-RI-J                ....       2.600 sec  ( 35.4% of F)
  XC integration            ....       4.575 sec  ( 62.4% of F)
    Basis function eval.    ....       1.383 sec  ( 30.2% of XC)
    Density eval.           ....       1.353 sec  ( 29.6% of XC)
    XC-Functional eval.     ....       0.145 sec  (  3.2% of XC)
    XC-Potential eval.      ....       0.884 sec  ( 19.3% of XC)
Diagonalization             ....       0.000 sec  (  0.0%)
Density matrix formation    ....       0.093 sec  (  1.1%)
Total Energy calculation    ....       0.033 sec  (  0.4%)
Population analysis         ....       0.104 sec  (  1.3%)
Orbital Transformation      ....       0.043 sec  (  0.5%)
Orbital Orthonormalization  ....       0.000 sec  (  0.0%)
DIIS solution               ....       0.058 sec  (  0.7%)
SOSCF solution              ....       0.359 sec  (  4.3%)
Finished LeanSCF after   8.3 sec

Maximum memory used throughout the entire LEANSCF-calculation: 40.1 MB


-------------------------------------------------------------------------------
                          DFT DISPERSION CORRECTION                            
                                                                               
                              DFTD3 V3.1  Rev 1                                
                          USING Becke-Johnson damping                          
-------------------------------------------------------------------------------
The BP86 functional is recognized
Active option DFTDOPT                   ...         4   

molecular C6(AA) [au] = 17541.129398 


            DFT-D V3
 parameters
 s6 scaling factor         :     1.0000 
 a1 scaling factor         :     0.3946 
 s8 scaling factor         :     3.2822 
 a2 scaling factor         :     4.8516 
 ad hoc parameters k1-k3   :    16.0000     1.3333    -4.0000 

 Edisp/kcal,au: -52.432964791926  -0.083557239159 
 E6   /kcal   : -18.786064596 
 E8   /kcal   : -33.646900196 
 % E8         :  64.171271507 

-------------------------   ----------------
Dispersion correction           -0.083557239
-------------------------   ----------------


-------------------------   --------------------
FINAL SINGLE POINT ENERGY     -1531.599974931966
-------------------------   --------------------

                                *** OPTIMIZATION RUN DONE ***



           ************************************************************
           *        Program running with 6 parallel MPI-processes     *
           *              working on a common directory               *
           ************************************************************

------------------------------------------------------------------------------
                              ORCA PROPERTY CALCULATIONS
------------------------------------------------------------------------------

GBWName                                 ... data/geom_opt_P_BP86/300563/300563.gbw
Number of atoms                         ...     34
Number of basis functions               ...    390
Max core memory                         ...   1024 MB

Electric properties:
Dipole moment                           ... YES
Quadrupole moment                       ...  NO
Static polarizability (Dipole/Dipole)   ...  NO
Static polarizability (Dipole/Quad.)    ...  NO
Static polarizability (Quad./Quad.)     ...  NO
Static polarizability (Velocity)        ...  NO

Atomic electric properties:
Dipole moment                           ...  NO
Quadrupole moment                       ...  NO
Static polarizability                   ...  NO

Choice of electric origin               ... Center of mass
Position of electric origin             ...     0.749336     1.321690    -0.639795

General magnetic properties:
Magnetizability                         ...  NO

EPR properties:
g-Tensor (aka g-matrix)                 ...  NO
Zero-Field splitting spin-orbit         ...  NO
Zero-field splitting spin-spin          ...  NO
Hyperfine couplings                     ...  NO (   0 nuclei)
Quadrupole couplings                    ...  NO (   0 nuclei)
Contact density                         ...  NO (   0 nuclei)

NMR properties:
Chemical shifts                         ...  NO (   0 nuclei)
Spin-rotation constants                 ...  NO (   0 nuclei)
Spin-spin couplings                     ...  NO (   0 nuclei,    0 pairs)

Choice of magnetic origin               ... GIAO
Position of magnetic origin             ...     0.000000     0.000000     0.000000

Properties with geometric perturbations:
SCF Hessian                             ...  NO
IR spectrum                             ...  NO
VCD spectrum                            ...  NO
X-ray spectroscopy properties:
SCF XES/XAS/RIXS spectra                ...  NO


-------------
DIPOLE MOMENT
-------------

Method             : SCF
Type of density    : Electron Density
Multiplicity       :   1
Irrep              :   0
Energy             : -1531.5164176928064990 Eh
Relativity type    : 
Basis              : AO
                                X                 Y                 Z
Electronic contribution:     16.262019421      28.245518283     -11.286486726
Nuclear contribution   :    -16.532067434     -28.710085160      11.820791155
                        -----------------------------------------
Total Dipole Moment    :     -0.270048013      -0.464566877       0.534304429
                        -----------------------------------------
Magnitude (a.u.)       :      0.757779345
Magnitude (Debye)      :      1.926122023



--------------------
Rotational spectrum 
--------------------
 
Rotational constants in cm-1:             0.009177             0.005809             0.004800 
Rotational constants in MHz :           275.116451           174.152765           143.889194 

Dipole components along the rotational axes: 
x,y,z [a.u.] :     0.662779    -0.080069    -0.358528 
x,y,z [Debye]:     1.684651    -0.203518    -0.911305 

 

Dipole moment calculation done in   0.0 sec 

Maximum memory used throughout the entire PROP-calculation: 20.8 MB

--------------------------------
SUGGESTED CITATIONS FOR THIS RUN
--------------------------------

Below you find a list of papers that are relevant to this ORCA run
We neither can nor want to force you to cite these papers, but we appreciate if you do
You receive ORCA, which is the product of decades of hard work by many enthusiastic individuals, for free
The only thing we kindly ask in return is that you cite our papers,
We deeply appreciate it, if you show your appreciation for ORCA by not just citing the generic ORCA reference.

Please note that relegating all ORCA citations to the supporting information does *not* help us.
SI sections are not indexed - citations you put there will not count into any citation statistics
But we need these citations in order to attract the funding resources that allow us to do what we are doing

Therefore, if you are a happy ORCA user, please consider citing a few of the papers listed below in the main body of your paper

In addition to the list printed below, the program has created the file data/geom_opt_P_BP86/300563/300563.bibtex that contains the list in bibtex format
You can import this file easily into all common literature databanks and citation aid programs


List of essential papers. We consider these as the minimum necessary citations

  1. Neese,F.
     Software update: the ORCA program system, version 5.0
     WIRES Comput. Molec. Sci., 2022 12(1)e1606
     doi.org/10.1002/wcms.1606

List of papers to cite with high priority. The work reported in these papers was absolutely
necessary for this run to complete.
Our perspective: the developers of density functionals and basis sets usually get cited in chemistry papers
Good! But without the algorithms to do something with them, the functionals or basis sets would not do anything.
Hence, in our opinion, the algorithm design and method developments papers are equally worthy of getting cited

  1. Neese,F.
     An improvement of the resolution of the identity approximation for the formation of the Coulomb matrix
     J. Comp. Chem., 2003 24(14)1740-1747
     doi.org/10.1002/jcc.10318
  2. Neese,F.
     The SHARK Integral Generation and Digestion System
     J. Comp. Chem., 2022  1-16
     doi.org/10.1002/jcc.26942
  3. Grimme,S.; Antony,J.; Ehrlich,S.; Krieg,H.
     A consistent and accurate ab initio parametrization of density functional dispersion correction (DFT-D) for the 94 elements H-Pu
     J. Chem. Phys., 2010 132 154104-XXXX
     doi.org/10.1063/1.3382344
  4. Grimme,S.; Ehrlich,S.; Goerigk,L.
     Effect of the damping function in dispersion corrected density functional theory
     J. Comput. Chem., 2011 32(7)1456-1465
     doi.org/10.1002/jcc.21759

List of suggested additional citations. These are papers that are important in the 'surrounding' of 
of this run, or papers that preceded the highly important papers. If you like your results we are grateful for a citation.

  1. Neese,F.
     The ORCA program system
     WIRES Comput. Molec. Sci., 2012 2(1)73-78
     doi.org/10.1002/wcms.81
  2. Neese,F.
     Software update: the ORCA program system, version 4.0
     WIRES Comput. Molec. Sci., 2018 8(1)1-6
     doi.org/10.1002/wcms.1327
  3. Neese,F.; Wennmohs,F.; Becker,U.; Riplinger,C.
     The ORCA quantum chemistry program package
     J. Chem. Phys., 2020 152 Art. No. L224108
     doi.org/10.1063/5.0004608

List of optional additional citations

  1. Neese,F.
     Approximate second-order SCF convergence for spin unrestricted wavefunctions
     Chem. Phys. Lett., 2000 325(1-3)93-98
     doi.org/10.1016/s0009-2614(00)00662-x

Timings for individual modules:

Sum of individual times          ...      282.641 sec (=   4.711 min)
Startup calculation              ...       22.398 sec (=   0.373 min)   7.9 %
SCF iterations                   ...      178.725 sec (=   2.979 min)  63.2 %
Property calculations            ...        0.182 sec (=   0.003 min)   0.1 %
SCF Gradient evaluation          ...       81.093 sec (=   1.352 min)  28.7 %
Geometry relaxation              ...        0.243 sec (=   0.004 min)   0.1 %
                             ****ORCA TERMINATED NORMALLY****
TOTAL RUN TIME: 0 days 0 hours 4 minutes 45 seconds 475 msec
