
                                 *****************
                                 * O   R   C   A *
                                 *****************

                                            #,                                       
                                            ###                                      
                                            ####                                     
                                            #####                                    
                                            ######                                   
                                           ########,                                 
                                     ,,################,,,,,                         
                               ,,#################################,,                 
                          ,,##########################################,,             
                       ,#########################################, ''#####,          
                    ,#############################################,,   '####,        
                  ,##################################################,,,,####,       
                ,###########''''           ''''###############################       
              ,#####''   ,,,,##########,,,,          '''####'''          '####       
            ,##' ,,,,###########################,,,                        '##       
           ' ,,###''''                  '''############,,,                           
         ,,##''                                '''############,,,,        ,,,,,,###''
      ,#''                                            '''#######################'''  
     '                                                          ''''####''''         
             ,#######,   #######,   ,#######,      ##                                
            ,#'     '#,  ##    ##  ,#'     '#,    #''#        ,####,   ,####,        
            ##       ##  ##   ,#'  ##            #'  '#       #'       #'  '#        
            ##       ##  #######   ##           ,######,      #####,   #    #        
            '#,     ,#'  ##    ##  '#,     ,#' ,#      #,     #,   #   #,  ,#        
             '#######'   ##     ##  '#######'  #'      '#     '####' # '####'        



                #########################################################
                #                        -***-                          #
                #          Department of theory and spectroscopy        #
                #                                                       #
                #                      Frank Neese                      #
                #                                                       #
                #     Directorship, Architecture, Infrastructure        #
                #                    SHARK, DRIVERS                     #
                #        Core code/Algorithms in most modules           #
                #                                                       #
                #        Max Planck Institute fuer Kohlenforschung      #
                #                Kaiser Wilhelm Platz 1                 #
                #                 D-45470 Muelheim/Ruhr                 #
                #                      Germany                          #
                #                                                       #
                #                  All rights reserved                  #
                #                        -***-                          #
                #########################################################


                         Program Version 6.0.0  -   RELEASE   -


 With contributions from (in alphabetic order):
   Daniel Aravena         : Magnetic Suceptibility
   Michael Atanasov       : Ab Initio Ligand Field Theory (pilot matlab implementation)
   Alexander A. Auer      : GIAO ZORA, VPT2 properties, NMR spectrum
   Ute Becker             : All parallelization in ORCA, NUMFREQ, NUMCALC
   Giovanni Bistoni       : ED, misc. LED, open-shell LED, HFLD
   Martin Brehm           : Molecular dynamics
   Dmytro Bykov           : pre 5.0 version of the SCF Hessian
   Marcos Casanova-Páez   : Triplet and SCS-CIS(D). UHF-(DLPNO)-IP/EA/STEOM-CCSD. UHF-CVS-IP/STEOM-CCSD
   Vijay G. Chilkuri      : MRCI spin determinant printing, contributions to CSF-ICE
   Pauline Colinet        : FMM embedding
   Dipayan Datta          : RHF DLPNO-CCSD density
   Achintya Kumar Dutta   : EOM-CC, STEOM-CC
   Nicolas Foglia         : Exact transition moments, OPA infrastructure, MCD improvements
   Dmitry Ganyushin       : Spin-Orbit,Spin-Spin,Magnetic field MRCI
   Miquel Garcia          : C-PCM and meta-GGA Hessian, CCSD/C-PCM, Gaussian charge scheme
   Tiago L. C. Gouveia    : GS-ROHF, GS-ROCIS
   Yang Guo               : DLPNO-NEVPT2, F12-NEVPT2, CIM, IAO-localization
   Andreas Hansen         : Spin unrestricted coupled pair/coupled cluster methods
   Ingolf Harden          : AUTO-CI MPn and infrastructure 
   Benjamin Helmich-Paris : MC-RPA, TRAH-(SCF,CASSCF), AVAS, COSX integrals, SCF dyn. polar.
   Lee Huntington         : MR-EOM, pCC
   Robert Izsak           : Overlap fitted RIJCOSX, COSX-SCS-MP3, EOM
   Riya Kayal             : Wick's Theorem for AUTO-CI, AUTO-CI UHF-CCSDT
   Emily Kempfer          : AUTO-CI, RHF CISDT and CCSDT
   Christian Kollmar      : KDIIS, OOCD, Brueckner-CCSD(T), CCSD density, CASPT2, CASPT2-K, improved NEVPT2
   Axel Koslowski         : Symmetry handling
   Simone Kossmann        : Meta GGA functionals, TD-DFT gradient, OOMP2, (MP2 Hessian; deprecated post 5.0)
   Lucas Lang             : DCDCAS
   Marvin Lechner         : AUTO-CI (C++ implementation), FIC-MRCC
   Spencer Leger          : CASSCF response
   Dagmar Lenk            : GEPOL surface, SMD, ORCA-2-JSON
   Dimitrios Liakos       : Extrapolation schemes; Compound Job, initial MDCI parallelization
   Dimitrios Manganas     : Further ROCIS development; embedding schemes. LFT, Crystal Embedding
   Dimitrios Pantazis     : SARC Basis sets
   Anastasios Papadopoulos: AUTO-CI, single reference methods and gradients
   Taras Petrenko         : pre 6.0 DFT Hessian and TD-DFT gradient, (ASA, deprecated), ECA, 1-Electron XAS/XES, NRVS
   Peter Pinski           : DLPNO-MP2, DLPNO-MP2 Gradient
   Christoph Reimann      : Effective Core Potentials
   Marius Retegan         : Local ZFS, SOC
   Christoph Riplinger    : Optimizer, TS searches, QM/MM, DLPNO-CCSD(T), (RO)-DLPNO pert. Triples
   Michael Roemelt        : Original ROCIS implementation
   Masaaki Saitow         : Open-shell DLPNO-CCSD energy and density
   Barbara Sandhoefer     : DKH picture change effects
   Kantharuban Sivalingam : CASSCF convergence/infrastructure, NEVPT2 and variants, FIC-MRCI
   Bernardo de Souza      : ESD, SOC TD-DFT
   Georgi Stoychev        : AutoAux, RI-MP2 NMR, DLPNO-MP2 response, X2C
   Van Anh Tran           : RI-MP2 g-tensors
   Willem Van den Heuvel  : Paramagnetic NMR
   Zikuan Wang            : NOTCH, Electric field optimization 
   Frank Wennmohs         : Technical directorship and infrastructure
   Hang Xu                : AUTO-CI-Response properties 


 We gratefully acknowledge several colleagues who have allowed us to
 interface, adapt or use parts of their codes:
   Stefan Grimme, W. Hujo, H. Kruse, P. Pracht,  : VdW corrections, initial TS optimization,
                  C. Bannwarth, S. Ehlert,         DFT functionals, gCP, sTDA/sTD-DF
                  L. Wittmann, M. Mueller
   Ed Valeev, F. Pavosevic, A. Kumar             : LibInt (2-el integral package), F12 methods
   Garnet Chan, S. Sharma, J. Yang, R. Olivares  : DMRG
   Ulf Ekstrom                                   : XCFun DFT Library
   Mihaly Kallay                                 : mrcc  (arbitrary order and MRCC methods)
   Frank Weinhold                                : gennbo (NPA and NBO analysis)
   Simon Mueller                                 : openCOSMO-RS
   Christopher J. Cramer and Donald G. Truhlar   : smd solvation model
   Lars Goerigk                                  : TD-DFT with DH, B97 family of functionals
   V. Asgeirsson, H. Jonsson                     : NEB implementation
   FAccTs GmbH                                   : IRC, NEB, NEB-TS, DLPNO-Multilevel, CI-OPT
                                                   MM, QMMM, 2- and 3-layer-ONIOM, Crystal-QMMM,
                                                   LR-CPCM, SF, NACMEs, symmetry and pop. for TD-DFT,
                                                   nearIR, NL-DFT gradient (VV10), updates on ESD,
                                                   ML-optimized integration grids, MBIS, APM,
                                                   GOAT, DOCKER, SOLVATOR, interface openCOSMO-RS
   S Lehtola, MJT Oliveira, MAL Marques          : LibXC Library
   Liviu Ungur et al                             : ANISO software


 Your calculation uses the libint2 library for the computation of 2-el integrals
 For citations please refer to: http://libint.valeyev.net

 Your ORCA version has been built with support for libXC version: 6.2.2
 For citations please refer to: https://libxc.gitlab.io

 This ORCA versions uses:
   CBLAS   interface :  Fast vector & matrix operations
   LAPACKE interface :  Fast linear algebra routines
   Shared memory     :  Shared parallel matrices


Your calculation utilizes the atom-pairwise dispersion correction
with the zero-damping scheme (D30)


XCFun DFT library Copyright 2009-2010 Ulf Ekstrom and contributors.
See http://admol.org/xcfun for more information.
This is free software; see the source code for copying conditions.
There is ABSOLUTELY NO WARRANTY; not even for MERCHANTABILITY or FITNESS FOR A PARTICULAR PURPOSE.
For details see the documentation.
Scientific users of this library should cite U. Ekstrom, L. Visscher, R. Bast, A. J. Thorvaldsen and K. Ruud;
J.Chem.Theor.Comp. 2010, DOI: 10.1021/ct100117s
XCFun Version 0.99 

Warning: RI is on but no J-basis has been assigned. Assigning Def2/J (nothing to worry about!)
================================================================================

----- Orbital basis set information -----
Your calculation utilizes the basis: def2-TZVP
   F. Weigend and R. Ahlrichs, Phys. Chem. Chem. Phys. 7, 3297 (2005).

----- AuxJ basis set information -----
Your calculation utilizes the auxiliary basis: def2/J
   F. Weigend, Phys. Chem. Chem. Phys. 8, 1057 (2006).

================================================================================
                                        WARNINGS
                       Please study these warnings very carefully!
================================================================================

WARNING: Functional chosen is sensitive to the integration grid.
         DEFGRID3 seems to be a minimum grid for robust results!

================================================================================
                                       INPUT FILE
================================================================================
NAME = data/single_point_P_M06-2x/69597/69597.inp
|  1> ! RIJCOSX M062X def2-TZVP D3ZERO NormalSCF
|  2> %pal
|  3> nprocs 6
|  4> end
|  5> 
|  6> * xyz 0 1
|  7>   C          -2.29252171049806     -0.83232267712843     -0.97754361826166
|  8>   P          -1.58963066169351     -0.56534306956191      0.73452101691008
|  9>   C          -2.11004533677527      1.21242122666832      0.99231711287561
| 10>   C           0.20846409646046     -0.32286453557806      0.31616285204493
| 11>   C           0.66696646096495      0.57461037506947     -0.67235419956066
| 12>   C           2.03779176390828      0.70836473313722     -0.93975662628010
| 13>   C           2.97414596043848     -0.05523080790972     -0.22005070358818
| 14>   C           2.53207318076771     -0.95095811828996      0.76632401909723
| 15>   C           1.15793665833021     -1.08260711310382      1.03103373029638
| 16>   H          -3.39866629065822     -0.87454887039600     -0.90790973596074
| 17>   H          -2.01137601145266     -0.03391687022563     -1.69557471170611
| 18>   H          -1.93601484510660     -1.80597575607207     -1.36853307138436
| 19>   H          -1.84488472794942      1.87554638688846      0.14236810080999
| 20>   H          -3.20895380036166      1.24566037218599      1.13913614306729
| 21>   H          -1.62935424223197      1.60156481340292      1.91181675418742
| 22>   H          -0.05360640539851      1.18061185258976     -1.24509834164759
| 23>   H           2.37954385178625      1.41239357877148     -1.71452656782679
| 24>   H           4.04971941183239      0.04966789957515     -0.43019923942079
| 25>   H           3.26004258227766     -1.55157920893394      1.33344337314871
| 26>   H           0.80837006535949     -1.78549521108921      1.80442171319935
| 27> **                         ****END OF INPUT****
================================================================================

                       ****************************
                       * Single Point Calculation *
                       ****************************

---------------------------------
CARTESIAN COORDINATES (ANGSTROEM)
---------------------------------
  C     -2.292522   -0.832323   -0.977544
  P     -1.589631   -0.565343    0.734521
  C     -2.110045    1.212421    0.992317
  C      0.208464   -0.322865    0.316163
  C      0.666966    0.574610   -0.672354
  C      2.037792    0.708365   -0.939757
  C      2.974146   -0.055231   -0.220051
  C      2.532073   -0.950958    0.766324
  C      1.157937   -1.082607    1.031034
  H     -3.398666   -0.874549   -0.907910
  H     -2.011376   -0.033917   -1.695575
  H     -1.936015   -1.805976   -1.368533
  H     -1.844885    1.875546    0.142368
  H     -3.208954    1.245660    1.139136
  H     -1.629354    1.601565    1.911817
  H     -0.053606    1.180612   -1.245098
  H      2.379544    1.412394   -1.714527
  H      4.049719    0.049668   -0.430199
  H      3.260043   -1.551579    1.333443
  H      0.808370   -1.785495    1.804422

----------------------------
CARTESIAN COORDINATES (A.U.)
----------------------------
  NO LB      ZA    FRAG     MASS         X           Y           Z
   0 C     6.0000    0    12.011   -4.332238   -1.572862   -1.847290
   1 P    15.0000    0    30.974   -3.003967   -1.068344    1.388044
   2 C     6.0000    0    12.011   -3.987408    2.291144    1.875208
   3 C     6.0000    0    12.011    0.393940   -0.610126    0.597461
   4 C     6.0000    0    12.011    1.260384    1.085856   -1.270565
   5 C     6.0000    0    12.011    3.850868    1.338615   -1.775883
   6 C     6.0000    0    12.011    5.620321   -0.104371   -0.415836
   7 C     6.0000    0    12.011    4.784925   -1.797050    1.448143
   8 C     6.0000    0    12.011    2.188183   -2.045831    1.948371
   9 H     1.0000    0     1.008   -6.422549   -1.652658   -1.715701
  10 H     1.0000    0     1.008   -3.800950   -0.064094   -3.204172
  11 H     1.0000    0     1.008   -3.658538   -3.412800   -2.586153
  12 H     1.0000    0     1.008   -3.486327    3.544269    0.269037
  13 H     1.0000    0     1.008   -6.064044    2.353957    2.152655
  14 H     1.0000    0     1.008   -3.079033    3.026519    3.612810
  15 H     1.0000    0     1.008   -0.101301    2.231033   -2.352895
  16 H     1.0000    0     1.008    4.496686    2.669037   -3.239986
  17 H     1.0000    0     1.008    7.652861    0.093859   -0.812959
  18 H     1.0000    0     1.008    6.160588   -2.932060    2.519843
  19 H     1.0000    0     1.008    1.527598   -3.374097    3.409863

--------------------------------
INTERNAL COORDINATES (ANGSTROEM)
--------------------------------
 C      0   0   0     0.000000000000     0.00000000     0.00000000
 P      1   0   0     1.869892845152     0.00000000     0.00000000
 C      2   1   0     1.870223557248    99.05185510     0.00000000
 C      2   1   3     1.861978558645   100.12960278   257.91277911
 C      4   2   1     1.411683957128   123.62616401    50.11075499
 C      5   4   2     1.403052492713   120.75668154   180.07786084
 C      6   5   4     1.406347733252   120.08059836   359.96965062
 C      7   6   5     1.403812968539   119.75940619     0.00000000
 C      8   7   6     1.405579549985   119.99689923     0.03403463
 H      1   2   3     1.109138296688   108.83460421   288.77134220
 H      1   2   3     1.109983507869   113.22692982    49.76894070
 H      1   2   3     1.108138175347   109.12139643   171.09859630
 H      3   2   1     1.110161452088   113.31568008   310.43392821
 H      3   2   1     1.109171077771   108.80938230    71.43188565
 H      3   2   1     1.108140898010   109.11581744   189.07696636
 H      5   4   2     1.102043056686   120.07597475     0.06788739
 H      6   5   4     1.101235473175   119.88356209   179.95982147
 H      7   6   5     1.100919795120   120.06986230   179.98390778
 H      8   7   6     1.101049274920   120.11717135   180.00960786
 H      9   8   7     1.101987955156   120.13438822   179.96385569

---------------------------
INTERNAL COORDINATES (A.U.)
---------------------------
 C      0   0   0     0.000000000000     0.00000000     0.00000000
 P      1   0   0     3.533585377117     0.00000000     0.00000000
 C      2   1   0     3.534210332407    99.05185510     0.00000000
 C      2   1   3     3.518629543072   100.12960278   257.91277911
 C      4   2   1     2.667696066622   123.62616401    50.11075499
 C      5   4   2     2.651384962742   120.75668154   180.07786084
 C      6   5   4     2.657612064908   120.08059836   359.96965062
 C      7   6   5     2.652822053787   119.75940619     0.00000000
 C      8   7   6     2.656160408911   119.99689923     0.03403463
 H      1   2   3     2.095967625384   108.83460421   288.77134220
 H      1   2   3     2.097564843041   113.22692982    49.76894070
 H      1   2   3     2.094077669949   109.12139643   171.09859630
 H      3   2   1     2.097901108882   113.31568008   310.43392821
 H      3   2   1     2.096029572653   108.80938230    71.43188565
 H      3   2   1     2.094082815036   109.11581744   189.07696636
 H      5   4   2     2.082559564927   120.07597475     0.06788739
 H      6   5   4     2.081033453259   119.88356209   179.95982147
 H      7   6   5     2.080436908190   120.06986230   179.98390778
 H      8   7   6     2.080681589551   120.11717135   180.00960786
 H      9   8   7     2.082455438125   120.13438822   179.96385569

---------------------
BASIS SET INFORMATION
---------------------
There are 3 groups of distinct atoms

 Group   1 Type C   : 11s6p2d1f contracted to 5s3p2d1f pattern {62111/411/11/1}
 Group   2 Type P   : 14s9p3d1f contracted to 5s5p2d1f pattern {73211/51111/21/1}
 Group   3 Type H   : 5s1p contracted to 3s1p pattern {311/1}

Atom   0C    basis set group =>   1
Atom   1P    basis set group =>   2
Atom   2C    basis set group =>   1
Atom   3C    basis set group =>   1
Atom   4C    basis set group =>   1
Atom   5C    basis set group =>   1
Atom   6C    basis set group =>   1
Atom   7C    basis set group =>   1
Atom   8C    basis set group =>   1
Atom   9H    basis set group =>   3
Atom  10H    basis set group =>   3
Atom  11H    basis set group =>   3
Atom  12H    basis set group =>   3
Atom  13H    basis set group =>   3
Atom  14H    basis set group =>   3
Atom  15H    basis set group =>   3
Atom  16H    basis set group =>   3
Atom  17H    basis set group =>   3
Atom  18H    basis set group =>   3
Atom  19H    basis set group =>   3
---------------------------------
AUXILIARY/J BASIS SET INFORMATION
---------------------------------
There are 3 groups of distinct atoms

 Group   1 Type C   : 12s5p4d2f1g contracted to 6s4p3d1f1g pattern {711111/2111/211/2/1}
 Group   2 Type P   : 14s5p5d2f1g contracted to 8s4p3d1f1g pattern {71111111/2111/311/2/1}
 Group   3 Type H   : 5s2p1d contracted to 3s1p1d pattern {311/2/1}

Atom   0C    basis set group =>   1
Atom   1P    basis set group =>   2
Atom   2C    basis set group =>   1
Atom   3C    basis set group =>   1
Atom   4C    basis set group =>   1
Atom   5C    basis set group =>   1
Atom   6C    basis set group =>   1
Atom   7C    basis set group =>   1
Atom   8C    basis set group =>   1
Atom   9H    basis set group =>   3
Atom  10H    basis set group =>   3
Atom  11H    basis set group =>   3
Atom  12H    basis set group =>   3
Atom  13H    basis set group =>   3
Atom  14H    basis set group =>   3
Atom  15H    basis set group =>   3
Atom  16H    basis set group =>   3
Atom  17H    basis set group =>   3
Atom  18H    basis set group =>   3
Atom  19H    basis set group =>   3


           ************************************************************
           *        Program running with 6 parallel MPI-processes     *
           *              working on a common directory               *
           ************************************************************
------------------------------------------------------------------------------
                             ORCA STARTUP CALCULATIONS
                           -- RI-GTO INTEGRALS CHOSEN --
------------------------------------------------------------------------------
------------------------------------------------------------------------------
                   ___                                                        
                  /   \      - P O W E R E D   B Y -                         
                 /     \                                                     
                 |  |  |   _    _      __       _____    __    __             
                 |  |  |  | |  | |    /  \     |  _  \  |  |  /  |          
                  \  \/   | |  | |   /    \    | | | |  |  | /  /          
                 / \  \   | |__| |  /  /\  \   | |_| |  |  |/  /          
                |  |  |   |  __  | /  /__\  \  |    /   |      \           
                |  |  |   | |  | | |   __   |  |    \   |  |\   \          
                \     /   | |  | | |  |  |  |  | |\  \  |  | \   \       
                 \___/    |_|  |_| |__|  |__|  |_| \__\ |__|  \__/        
                                                                              
                      - O R C A' S   B I G   F R I E N D -                    
                                      &                                       
                       - I N T E G R A L  F E E D E R -                       
                                                                              
 v1 FN, 2020, v2 2021, v3 2022-2024                                           
------------------------------------------------------------------------------


----------------------
SHARK INTEGRAL PACKAGE
----------------------

Number of atoms                             ...     20
Number of basis functions                   ...    351
Number of shells                            ...    145
Maximum angular momentum                    ...      3
Integral batch strategy                     ... SHARK/LIBINT Hybrid
RI-J (if used) integral strategy            ... SPLIT-RIJ (Revised 2003 algorithm where possible)
Printlevel                                  ...      1
Contraction scheme used                     ... SEGMENTED contraction
Prescreening option                         ... SCHWARTZ
   Thresh                                   ... 1.000e-10
   Tcut                                     ... 1.000e-11
   Tpresel                                  ... 1.000e-11 
Coulomb Range Separation                    ... NOT USED
Exchange Range Separation                   ... NOT USED
Multipole approximations                    ... NOT USED
Finite Nucleus Model                        ... NOT USED
CABS basis                                  ... NOT available
Auxiliary Coulomb fitting basis             ... AVAILABLE
   # of basis functions in Aux-J            ...    564
   # of shells in Aux-J                     ...    192
   Maximum angular momentum in Aux-J        ...      4
Auxiliary J/K fitting basis                 ... NOT available
Auxiliary Correlation fitting basis         ... NOT available
Auxiliary 'external' fitting basis          ... NOT available

Checking pre-screening integrals            ... done (  0.0 sec) Dimension = 145
Check shell pair data                       ... done (  0.0 sec)
Shell pair information
Shell pair cut-off parameter TPreSel        ...   1.0e-11
Total number of shell pairs                 ...     10585
Shell pairs after pre-screening             ...      9244
Total number of primitive shell pairs       ...     32376
Primitive shell pairs kept                  ...     20570
          la=0 lb=0:   2575 shell pairs
          la=1 lb=0:   2725 shell pairs
          la=1 lb=1:    746 shell pairs
          la=2 lb=0:   1245 shell pairs
          la=2 lb=1:    664 shell pairs
          la=2 lb=2:    164 shell pairs
          la=3 lb=0:    611 shell pairs
          la=3 lb=1:    323 shell pairs
          la=3 lb=2:    150 shell pairs
          la=3 lb=3:     41 shell pairs

Calculating one electron integrals          ... done (  0.0 sec)
Calculating RI/J V-Matrix + Cholesky decomp.... done (  0.0 sec)
Calculating Nuclear repulsion               ... done (  0.0 sec) ENN=    490.847246305987 Eh

Diagonalization of the overlap matrix:
Smallest eigenvalue                        ... 9.362e-06
Time for diagonalization                   ...    0.015 sec
Threshold for overlap eigenvalues          ... 1.000e-07
Number of eigenvalues below threshold      ... 0
Time for construction of square roots      ...    0.010 sec
Total time needed                          ...    0.026 sec

-------------------
DFT GRID GENERATION
-------------------

General Integration Accuracy     IntAcc      ... 4.388
Radial Grid Type                 RadialGrid  ... OptM3 with GC (2021)
Angular Grid (max. ang.)         AngularGrid ... 4 (Lebedev-302)
Angular grid pruning method      GridPruning ... 4 (adaptive)
Weight generation scheme         WeightScheme... mBecke (2022)
Basis function cutoff            BFCut       ... 1.0000e-10
Integration weight cutoff        WCut        ... 1.0000e-14
Partially contracted basis set               ... off
Rotationally invariant grid construction     ... off
Angular grids for H and He will be reduced by one unit

Total number of grid points                  ...    90695
Total number of batches                      ...     1428
Average number of points per batch           ...       63
Average number of grid points per atom       ...     4535

--------------------
COSX GRID GENERATION
--------------------

GRIDX 1
-------
General Integration Accuracy     IntAcc      ... 3.816
Radial Grid Type                 RadialGrid  ... OptM3 with GC (2021)
Angular Grid (max. ang.)         AngularGrid ... 1 (Lebedev-50)
Angular grid pruning method      GridPruning ... 4 (adaptive)
Weight generation scheme         WeightScheme... mBecke (2022)
Basis function cutoff            BFCut       ... 1.0000e-10
Integration weight cutoff        WCut        ... 1.0000e-14
Partially contracted basis set               ... on
Rotationally invariant grid construction     ... off
Angular grids for H and He will be reduced by one unit

Total number of grid points                  ...    12596
Total number of batches                      ...      110
Average number of points per batch           ...      114
Average number of grid points per atom       ...      630
UseSFitting                                  ... on

GRIDX 2
-------
General Integration Accuracy     IntAcc      ... 4.020
Radial Grid Type                 RadialGrid  ... OptM3 with GC (2021)
Angular Grid (max. ang.)         AngularGrid ... 2 (Lebedev-110)
Angular grid pruning method      GridPruning ... 4 (adaptive)
Weight generation scheme         WeightScheme... mBecke (2022)
Basis function cutoff            BFCut       ... 1.0000e-10
Integration weight cutoff        WCut        ... 1.0000e-14
Partially contracted basis set               ... on
Rotationally invariant grid construction     ... off
Angular grids for H and He will be reduced by one unit

Total number of grid points                  ...    24587
Total number of batches                      ...      202
Average number of points per batch           ...      121
Average number of grid points per atom       ...     1229
UseSFitting                                  ... on

GRIDX 3
-------
General Integration Accuracy     IntAcc      ... 4.338
Radial Grid Type                 RadialGrid  ... OptM3 with GC (2021)
Angular Grid (max. ang.)         AngularGrid ... 3 (Lebedev-194)
Angular grid pruning method      GridPruning ... 4 (adaptive)
Weight generation scheme         WeightScheme... mBecke (2022)
Basis function cutoff            BFCut       ... 1.0000e-10
Integration weight cutoff        WCut        ... 1.0000e-14
Partially contracted basis set               ... on
Rotationally invariant grid construction     ... off
Angular grids for H and He will be reduced by one unit

Total number of grid points                  ...    54304
Total number of batches                      ...      435
Average number of points per batch           ...      124
Average number of grid points per atom       ...     2715
UseSFitting                                  ... on
Initializing property integral containers    ... done (  0.0 sec)

SHARK setup successfully completed in   1.4 seconds

Maximum memory used throughout the entire STARTUP-calculation: 31.9 MB


           ************************************************************
           *        Program running with 6 parallel MPI-processes     *
           *              working on a common directory               *
           ************************************************************
-------------------------------------------------------------------------------
                                 ORCA GUESS
                   Start orbitals & Density for SCF / CASSCF
-------------------------------------------------------------------------------

------------
SCF SETTINGS
------------
Hamiltonian:
 Density Functional     Method          .... DFT(GTOs)
 Exchange Functional    Exchange        .... M062X
 Correlation Functional Correlation     .... M062X
 Gradients option       PostSCFGGA      .... off
 Hybrid DFT is turned on
   Fraction HF Exchange ScalHFX         ....  0.540000
   Scaling of DF-GGA-X  ScalDFX         ....  0.460000
   Scaling of DF-GGA-C  ScalDFC         ....  1.000000
   Scaling of DF-LDA-C  ScalLDAC        ....  1.000000
   Perturbative correction              ....  0.000000
 RI-approximation to the Coulomb term is turned on
   Number of AuxJ basis functions       .... 564
   RIJ-COSX (HFX calculated with COS-X)).... on


General Settings:
 Integral files         IntName         .... data/single_point_P_M06-2x/69597/69597
 Hartree-Fock type      HFTyp           .... RHF
 Total Charge           Charge          ....    0
 Multiplicity           Mult            ....    1
 Number of Electrons    NEL             ....   74
 Basis Dimension        Dim             ....  351
 Nuclear Repulsion      ENuc            ....    490.8472463060 Eh

Convergence Acceleration:
 AO-DIIS                CNVDIIS         .... on
   Start iteration      DIISMaxIt       ....    12
   Startup error        DIISStart       ....  0.200000
   # of expansion vecs  DIISMaxEq       ....     5
   Bias factor          DIISBfac        ....   1.050
   Max. coefficient     DIISMaxC        ....  10.000
 MO-DIIS                CNVKDIIS        .... off
 Trust-Rad. Augm. Hess. CNVTRAH         .... auto
   Auto Start mean grad. ratio tolernc. ....  1.125000
   Auto Start start iteration           ....    50
   Auto Start num. interpolation iter.  ....    10
   Max. Number of Micro iterations      ....    24
   Max. Number of Macro iterations      .... Maxiter - #DIIS iter
   Number of Davidson start vectors     ....     2
   Converg. threshold    (grad. norm)   ....   5.000e-05
   Grad. Scal. Fac. for Micro threshold ....   0.100
   Minimum threshold for Micro iter.    ....   1.000e-02
   NR start threshold (gradient norm)   ....   1.000e-04
   Initial trust radius                 ....   0.400
   Minimum AH scaling param. (alpha)    ....   1.000
   Maximum AH scaling param. (alpha)    .... 1000.000
   Quad. conv. algorithm                .... NR
   White noise on init. David. guess    .... on
   Maximum white noise                  ....   0.010
   Pseudo random numbers                .... off
   Inactive MOs                         .... canonical
   Orbital update algorithm             .... Taylor
   Preconditioner                       .... Diag
   Full preconditioner red. dimension   ....   250
 SOSCF                  CNVSOSCF        .... on
   Start iteration      SOSCFMaxIt      ....   150
   Startup grad/error   SOSCFStart      ....  0.003300
   Hessian update       SOSCFHessUp     .... L-BFGS
 Level Shifting         CNVShift        .... on
   Level shift para.    LevelShift      ....    0.2500
   Turn off err/grad.   ShiftErr        ....    0.0010
 Zerner damping         CNVZerner       .... off
 Static damping         CNVDamp         .... on
   Fraction old density DampFac         ....    0.7000
   Max. Damping (<1)    DampMax         ....    0.9800
   Min. Damping (>=0)   DampMin         ....    0.0000
   Turn off err/grad.   DampErr         ....    0.1000

SCF Procedure:
 Maximum # iterations   MaxIter         ....   125
 SCF integral mode      SCFMode         .... Direct
   Integral package                     .... SHARK and LIBINT hybrid scheme
 Reset frequency        DirectResetFreq ....    20
 Integral Threshold     Thresh          ....  1.000e-10 Eh
 Primitive CutOff       TCut            ....  1.000e-11 Eh

Convergence Tolerance:
 Convergence Check Mode ConvCheckMode   .... Total+1el-Energy
 Convergence forced     ConvForced      .... 0
 Energy Change          TolE            ....  1.000e-06 Eh
 1-El. energy change                    ....  1.000e-03 Eh
 Orbital Gradient       TolG            ....  5.000e-05
 Orbital Rotation angle TolX            ....  5.000e-05
 DIIS Error             TolErr          ....  1.000e-05

------------------------------
INITIAL GUESS: MODEL POTENTIAL
------------------------------
Loading Hartree-Fock densities                     ... done
Calculating cut-offs                               ... done
Initializing the effective Hamiltonian             ... done
Setting up the integral package (SHARK)            ... done
Starting the Coulomb interaction                   ... done (   0.1 sec)
Making the grid                                    ... done (   0.2 sec)
Mapping shells                                     ... done
Starting the XC term evaluation                    ... done (   0.1 sec)
  promolecular density results
     # of electrons  =     73.997810095
     EX              =    -66.597280409
     EC              =     -2.493667589
     EX+EC           =    -69.090947997
Transforming the Hamiltonian                       ... done (   0.0 sec)
Diagonalizing the Hamiltonian                      ... done (   0.0 sec)
Back transforming the eigenvectors                 ... done (   0.0 sec)
Now organizing SCF variables                       ... done
                      ------------------
                      INITIAL GUESS DONE (   0.4 sec)
                      ------------------
             **** ENERGY FILE WAS UPDATED (data/single_point_P_M06-2x/69597/69597.en.tmp) ****
Finished Guess after   0.5 sec
Maximum memory used throughout the entire GUESS-calculation: 20.9 MB


           ************************************************************
           *        Program running with 6 parallel MPI-processes     *
           *              working on a common directory               *
           ************************************************************

-------------------------------------------------------------------------------------------
                                      ORCA LEAN-SCF
                              memory conserving SCF solver
-------------------------------------------------------------------------------------------

----------------------------------------D-I-I-S--------------------------------------------
Iteration    Energy (Eh)           Delta-E    RMSDP     MaxDP     DIISErr   Damp  Time(sec)
-------------------------------------------------------------------------------------------
               ***  Starting incremental Fock matrix formation  ***
    1    -652.5149269926162106     0.00e+00  1.48e-03  3.45e-02  1.89e-01  0.700   3.4
    2    -652.6308736255587064    -1.16e-01  1.17e-03  2.13e-02  1.05e-01  0.700   2.1
                               ***Turning on AO-DIIS***
    3    -652.6862950402398837    -5.54e-02  7.78e-04  1.88e-02  4.64e-02  0.700   2.1
    4    -652.7183561273534451    -3.21e-02  1.78e-03  4.12e-02  2.70e-02  0.000   1.9
                              *** Initializing SOSCF ***
---------------------------------------S-O-S-C-F--------------------------------------
Iteration    Energy (Eh)           Delta-E    RMSDP     MaxDP     MaxGrad    Time(sec)
--------------------------------------------------------------------------------------
    5    -652.7861976113958917    -6.78e-02  1.35e-04  9.95e-03  3.24e-03     2.1
               *** Restarting incremental Fock matrix formation ***
    6    -652.7862869408886581    -8.93e-05  1.05e-04  6.67e-03  3.37e-04     3.2
    7    -652.7862939288893358    -6.99e-06  4.50e-05  3.12e-03  3.85e-04     2.5
    8    -652.7862976844112382    -3.76e-06  1.85e-05  8.79e-04  1.37e-04     2.3
    9    -652.7862979493634157    -2.65e-07  3.50e-06  1.60e-04  5.08e-05     2.2
                 **** Energy Check signals convergence ****

               *****************************************************
               *                     SUCCESS                       *
               *           SCF CONVERGED AFTER   9 CYCLES          *
               *****************************************************

Recomputing exchange energy using gridx3       ... done (    4.425 sec)
Old exchange energy                            :    -36.677932096 Eh
New exchange energy                            :    -36.677882796 Eh
Exchange energy change after final integration :      0.000049300 Eh
Total energy after final integration           :   -652.786248650 Eh
             **** ENERGY FILE WAS UPDATED (data/single_point_P_M06-2x/69597/69597.en.tmp) ****

----------------
TOTAL SCF ENERGY
----------------

Total Energy       :       -652.78624864976382 Eh          -17763.21689 eV

Components:
Nuclear Repulsion  :        490.84724630598697 Eh           13356.63261 eV
Electronic Energy  :      -1143.63354425535044 Eh          -31119.85084 eV
One Electron Energy:      -1865.01160607699626 Eh          -50749.54586 eV
Two Electron Energy:        721.37806182164582 Eh           19629.69502 eV

Virial components:
Potential Energy   :      -1302.81010430090237 Eh          -35451.26525 eV
Kinetic Energy     :        650.02385565113866 Eh           17688.04836 eV
Virial Ratio       :          2.00424967941501

DFT components:
N(Alpha)           :       37.000134615424 electrons
N(Beta)            :       37.000134615424 electrons
N(Total)           :       74.000269230847 electrons
E(XC)              :      -33.867407735757 Eh       

---------------
SCF CONVERGENCE
---------------

  Last Energy change         ...    2.6495e-07  Tolerance :   1.0000e-06
  Last MAX-Density change    ...    1.6037e-04  Tolerance :   1.0000e-05
  Last RMS-Density change    ...    3.4994e-06  Tolerance :   1.0000e-06
  Last DIIS Error            ...    3.2445e-03  Tolerance :   1.0000e-05
  Last Orbital Gradient      ...    5.0795e-05  Tolerance :   5.0000e-05
  Last Orbital Rotation      ...    6.3152e-05  Tolerance :   5.0000e-05


----------------
ORBITAL ENERGIES
----------------

  NO   OCC          E(Eh)            E(eV) 
   0   2.0000     -78.022854     -2123.1098 
   1   2.0000     -10.552757      -287.1551 
   2   2.0000     -10.552228      -287.1407 
   3   2.0000     -10.551118      -287.1105 
   4   2.0000     -10.550929      -287.1054 
   5   2.0000     -10.550441      -287.0921 
   6   2.0000     -10.549813      -287.0750 
   7   2.0000     -10.535895      -286.6963 
   8   2.0000     -10.535867      -286.6955 
   9   2.0000      -6.838332      -186.0805 
  10   2.0000      -4.952917      -134.7757 
  11   2.0000      -4.952555      -134.7659 
  12   2.0000      -4.952331      -134.7598 
  13   2.0000      -0.955585       -26.0028 
  14   2.0000      -0.856617       -23.3097 
  15   2.0000      -0.840782       -22.8789 
  16   2.0000      -0.814094       -22.1526 
  17   2.0000      -0.772735       -21.0272 
  18   2.0000      -0.690644       -18.7934 
  19   2.0000      -0.683737       -18.6054 
  20   2.0000      -0.619476       -16.8568 
  21   2.0000      -0.575161       -15.6509 
  22   2.0000      -0.518719       -14.1151 
  23   2.0000      -0.518107       -14.0984 
  24   2.0000      -0.493857       -13.4385 
  25   2.0000      -0.487861       -13.2754 
  26   2.0000      -0.478473       -13.0199 
  27   2.0000      -0.468482       -12.7481 
  28   2.0000      -0.460197       -12.5226 
  29   2.0000      -0.442629       -12.0446 
  30   2.0000      -0.436417       -11.8755 
  31   2.0000      -0.403917       -10.9912 
  32   2.0000      -0.385568       -10.4918 
  33   2.0000      -0.368659       -10.0317 
  34   2.0000      -0.309797        -8.4300 
  35   2.0000      -0.305482        -8.3126 
  36   2.0000      -0.282271        -7.6810 
  37   0.0000       0.003014         0.0820 
  38   0.0000       0.015864         0.4317 
  39   0.0000       0.065310         1.7772 
  40   0.0000       0.074310         2.0221 
  41   0.0000       0.077272         2.1027 
  42   0.0000       0.096746         2.6326 
  43   0.0000       0.101709         2.7676 
  44   0.0000       0.117747         3.2041 
  45   0.0000       0.128945         3.5088 
  46   0.0000       0.132800         3.6137 
  47   0.0000       0.134938         3.6718 
*Only the first 10 virtual orbitals were printed.

                    ********************************
                    * MULLIKEN POPULATION ANALYSIS *
                    ********************************

-----------------------
MULLIKEN ATOMIC CHARGES
-----------------------
   0 C :   -0.515684
   1 P :    0.171648
   2 C :   -0.516544
   3 C :   -0.039772
   4 C :   -0.171702
   5 C :   -0.173773
   6 C :   -0.137186
   7 C :   -0.153050
   8 C :   -0.127778
   9 H :    0.154700
  10 H :    0.145950
  11 H :    0.162680
  12 H :    0.146147
  13 H :    0.155107
  14 H :    0.162529
  15 H :    0.149465
  16 H :    0.143423
  17 H :    0.145206
  18 H :    0.144589
  19 H :    0.154047
Sum of atomic charges:   -0.0000000

--------------------------------
MULLIKEN REDUCED ORBITAL CHARGES
--------------------------------
  0 C s       :     3.297052  s :     3.297052
      pz      :     1.012489  p :     3.177279
      px      :     1.080224
      py      :     1.084566
      dz2     :     0.009022  d :     0.039386
      dxz     :     0.004148
      dyz     :     0.012265
      dx2y2   :     0.011017
      dxy     :     0.002934
      f0      :     0.000318  f :     0.001968
      f+1     :     0.000272
      f-1     :     0.000315
      f+2     :     0.000370
      f-2     :     0.000162
      f+3     :     0.000491
      f-3     :     0.000041

  1 P s       :     5.696464  s :     5.696464
      pz      :     3.073862  p :     8.857759
      px      :     2.751293
      py      :     3.032605
      dz2     :     0.057918  d :     0.247921
      dxz     :     0.046468
      dyz     :     0.031951
      dx2y2   :     0.070984
      dxy     :     0.040600
      f0      :     0.004656  f :     0.026207
      f+1     :     0.003898
      f-1     :     0.003639
      f+2     :     0.004289
      f-2     :     0.001117
      f+3     :     0.003880
      f-3     :     0.004726

  2 C s       :     3.297276  s :     3.297276
      pz      :     1.082264  p :     3.177874
      px      :     1.085484
      py      :     1.010126
      dz2     :     0.006415  d :     0.039426
      dxz     :     0.004103
      dyz     :     0.012586
      dx2y2   :     0.011974
      dxy     :     0.004349
      f0      :     0.000106  f :     0.001969
      f+1     :     0.000401
      f-1     :     0.000459
      f+2     :     0.000278
      f-2     :     0.000150
      f+3     :     0.000356
      f-3     :     0.000218

  3 C s       :     3.244853  s :     3.244853
      pz      :     0.898164  p :     2.716234
      px      :     0.920612
      py      :     0.897458
      dz2     :     0.019743  d :     0.071904
      dxz     :     0.014528
      dyz     :     0.006427
      dx2y2   :     0.017802
      dxy     :     0.013404
      f0      :     0.000727  f :     0.006781
      f+1     :     0.000784
      f-1     :     0.001173
      f+2     :     0.001391
      f-2     :     0.001110
      f+3     :     0.000784
      f-3     :     0.000811

  4 C s       :     3.157088  s :     3.157088
      pz      :     0.939608  p :     2.939961
      px      :     1.051760
      py      :     0.948593
      dz2     :     0.012718  d :     0.068130
      dxz     :     0.018402
      dyz     :     0.007539
      dx2y2   :     0.010847
      dxy     :     0.018623
      f0      :     0.000882  f :     0.006522
      f+1     :     0.000582
      f-1     :     0.000864
      f+2     :     0.001303
      f-2     :     0.001075
      f+3     :     0.000611
      f-3     :     0.001205

  5 C s       :     3.239333  s :     3.239333
      pz      :     0.980038  p :     2.866652
      px      :     0.912090
      py      :     0.974523
      dz2     :     0.007715  d :     0.061483
      dxz     :     0.017707
      dyz     :     0.007650
      dx2y2   :     0.011185
      dxy     :     0.017225
      f0      :     0.000518  f :     0.006306
      f+1     :     0.000864
      f-1     :     0.000867
      f+2     :     0.001294
      f-2     :     0.000752
      f+3     :     0.000875
      f-3     :     0.001136

  6 C s       :     3.223012  s :     3.223012
      pz      :     0.923254  p :     2.846338
      px      :     0.999328
      py      :     0.923756
      dz2     :     0.018830  d :     0.061528
      dxz     :     0.010786
      dyz     :     0.006802
      dx2y2   :     0.015398
      dxy     :     0.009712
      f0      :     0.000671  f :     0.006308
      f+1     :     0.000820
      f-1     :     0.001137
      f+2     :     0.001226
      f-2     :     0.000973
      f+3     :     0.000908
      f-3     :     0.000574

  7 C s       :     3.229360  s :     3.229360
      pz      :     0.952984  p :     2.856305
      px      :     0.941655
      py      :     0.961666
      dz2     :     0.013242  d :     0.061090
      dxz     :     0.013941
      dyz     :     0.007121
      dx2y2   :     0.011792
      dxy     :     0.014993
      f0      :     0.000900  f :     0.006295
      f+1     :     0.000549
      f-1     :     0.000914
      f+2     :     0.001260
      f-2     :     0.000931
      f+3     :     0.000594
      f-3     :     0.001148

  8 C s       :     3.195197  s :     3.195197
      pz      :     0.976238  p :     2.861102
      px      :     0.916940
      py      :     0.967923
      dz2     :     0.007521  d :     0.065002
      dxz     :     0.019306
      dyz     :     0.008201
      dx2y2   :     0.010916
      dxy     :     0.019058
      f0      :     0.000510  f :     0.006477
      f+1     :     0.000938
      f-1     :     0.000810
      f+2     :     0.001273
      f-2     :     0.000772
      f+3     :     0.000986
      f-3     :     0.001187

  9 H s       :     0.826112  s :     0.826112
      pz      :     0.004128  p :     0.019189
      px      :     0.011388
      py      :     0.003672

 10 H s       :     0.834695  s :     0.834695
      pz      :     0.007777  p :     0.019355
      px      :     0.004143
      py      :     0.007436

 11 H s       :     0.817977  s :     0.817977
      pz      :     0.005233  p :     0.019342
      px      :     0.004476
      py      :     0.009633

 12 H s       :     0.834509  s :     0.834509
      pz      :     0.007969  p :     0.019345
      px      :     0.004039
      py      :     0.007337

 13 H s       :     0.825744  s :     0.825744
      pz      :     0.003802  p :     0.019150
      px      :     0.011133
      py      :     0.004215

 14 H s       :     0.818105  s :     0.818105
      pz      :     0.008984  p :     0.019366
      px      :     0.005089
      py      :     0.005294

 15 H s       :     0.830729  s :     0.830729
      pz      :     0.006036  p :     0.019806
      px      :     0.007328
      py      :     0.006442

 16 H s       :     0.836936  s :     0.836936
      pz      :     0.008400  p :     0.019641
      px      :     0.003689
      py      :     0.007552

 17 H s       :     0.835191  s :     0.835191
      pz      :     0.003577  p :     0.019603
      px      :     0.012670
      py      :     0.003357

 18 H s       :     0.835753  s :     0.835753
      pz      :     0.005994  p :     0.019658
      px      :     0.007268
      py      :     0.006396

 19 H s       :     0.826050  s :     0.826050
      pz      :     0.008425  p :     0.019903
      px      :     0.003942
      py      :     0.007537



                     *******************************
                     * LOEWDIN POPULATION ANALYSIS *
                     *******************************

----------------------
LOEWDIN ATOMIC CHARGES
----------------------
   0 C :   -0.485114
   1 P :    0.537013
   2 C :   -0.485276
   3 C :   -0.285283
   4 C :   -0.141194
   5 C :   -0.144597
   6 C :   -0.140892
   7 C :   -0.143830
   8 C :   -0.145805
   9 H :    0.119185
  10 H :    0.109386
  11 H :    0.122105
  12 H :    0.109507
  13 H :    0.119196
  14 H :    0.122078
  15 H :    0.144400
  16 H :    0.146972
  17 H :    0.147020
  18 H :    0.147311
  19 H :    0.147817

-------------------------------
LOEWDIN REDUCED ORBITAL CHARGES
-------------------------------
  0 C s       :     2.919731  s :     2.919731
      pz      :     1.143438  p :     3.347507
      px      :     1.101714
      py      :     1.102355
      dz2     :     0.058948  d :     0.203134
      dxz     :     0.025919
      dyz     :     0.059451
      dx2y2   :     0.046719
      dxy     :     0.012097
      f0      :     0.002991  f :     0.014742
      f+1     :     0.002662
      f-1     :     0.001538
      f+2     :     0.001711
      f-2     :     0.002463
      f+3     :     0.002662
      f-3     :     0.000715

  1 P s       :     4.981972  s :     4.981972
      pz      :     3.071413  p :     8.878138
      px      :     2.771403
      py      :     3.035322
      dz2     :     0.110307  d :     0.503646
      dxz     :     0.094003
      dyz     :     0.081028
      dx2y2   :     0.134244
      dxy     :     0.084063
      f0      :     0.017912  f :     0.099231
      f+1     :     0.015947
      f-1     :     0.012242
      f+2     :     0.013790
      f-2     :     0.005577
      f+3     :     0.015970
      f-3     :     0.017792

  2 C s       :     2.919902  s :     2.919902
      pz      :     1.102034  p :     3.347581
      px      :     1.100004
      py      :     1.145544
      dz2     :     0.034194  d :     0.203059
      dxz     :     0.017392
      dyz     :     0.060797
      dx2y2   :     0.066602
      dxy     :     0.024074
      f0      :     0.000889  f :     0.014734
      f+1     :     0.002482
      f-1     :     0.003153
      f+2     :     0.001173
      f-2     :     0.002469
      f+3     :     0.002676
      f-3     :     0.001892

  3 C s       :     2.784409  s :     2.784409
      pz      :     0.980792  p :     3.005320
      px      :     1.055915
      py      :     0.968613
      dz2     :     0.085630  d :     0.450999
      dxz     :     0.100474
      dyz     :     0.067746
      dx2y2   :     0.107409
      dxy     :     0.089739
      f0      :     0.004725  f :     0.044554
      f+1     :     0.006298
      f-1     :     0.005435
      f+2     :     0.007952
      f-2     :     0.007513
      f+3     :     0.005705
      f-3     :     0.006926

  4 C s       :     2.775839  s :     2.775839
      pz      :     0.958434  p :     2.941352
      px      :     1.036229
      py      :     0.946689
      dz2     :     0.054357  d :     0.383348
      dxz     :     0.111035
      dyz     :     0.043813
      dx2y2   :     0.069235
      dxy     :     0.104908
      f0      :     0.005843  f :     0.040655
      f+1     :     0.004373
      f-1     :     0.004417
      f+2     :     0.007160
      f-2     :     0.005579
      f+3     :     0.005111
      f-3     :     0.008173

  5 C s       :     2.778520  s :     2.778520
      pz      :     0.946677  p :     2.950087
      px      :     1.059837
      py      :     0.943572
      dz2     :     0.045331  d :     0.375410
      dxz     :     0.095963
      dyz     :     0.047069
      dx2y2   :     0.091309
      dxy     :     0.095739
      f0      :     0.003673  f :     0.040580
      f+1     :     0.006889
      f-1     :     0.003233
      f+2     :     0.006671
      f-2     :     0.005365
      f+3     :     0.006748
      f-3     :     0.008001

  6 C s       :     2.779062  s :     2.779062
      pz      :     0.979158  p :     2.946322
      px      :     0.996203
      py      :     0.970962
      dz2     :     0.083501  d :     0.374903
      dxz     :     0.067036
      dyz     :     0.064598
      dx2y2   :     0.101616
      dxy     :     0.058152
      f0      :     0.004167  f :     0.040604
      f+1     :     0.006168
      f-1     :     0.005460
      f+2     :     0.006764
      f-2     :     0.007055
      f+3     :     0.005813
      f-3     :     0.005177

  7 C s       :     2.778687  s :     2.778687
      pz      :     0.964195  p :     2.950824
      px      :     1.034692
      py      :     0.951938
      dz2     :     0.054275  d :     0.373876
      dxz     :     0.106640
      dyz     :     0.043484
      dx2y2   :     0.068262
      dxy     :     0.101215
      f0      :     0.005818  f :     0.040442
      f+1     :     0.004330
      f-1     :     0.004563
      f+2     :     0.007148
      f-2     :     0.005484
      f+3     :     0.005090
      f-3     :     0.008009

  8 C s       :     2.779643  s :     2.779643
      pz      :     0.940969  p :     2.942569
      px      :     1.065203
      py      :     0.936397
      dz2     :     0.046642  d :     0.383128
      dxz     :     0.096489
      dyz     :     0.047552
      dx2y2   :     0.095986
      dxy     :     0.096459
      f0      :     0.003642  f :     0.040465
      f+1     :     0.006905
      f-1     :     0.003106
      f+2     :     0.006645
      f-2     :     0.005349
      f+3     :     0.006754
      f-3     :     0.008064

  9 H s       :     0.819639  s :     0.819639
      pz      :     0.013288  p :     0.061175
      px      :     0.035437
      py      :     0.012450

 10 H s       :     0.828986  s :     0.828986
      pz      :     0.023607  p :     0.061628
      px      :     0.013805
      py      :     0.024216

 11 H s       :     0.816538  s :     0.816538
      pz      :     0.016002  p :     0.061357
      px      :     0.014904
      py      :     0.030451

 12 H s       :     0.828916  s :     0.828916
      pz      :     0.025850  p :     0.061577
      px      :     0.013503
      py      :     0.022224

 13 H s       :     0.819631  s :     0.819631
      pz      :     0.012830  p :     0.061172
      px      :     0.034990
      py      :     0.013352

 14 H s       :     0.816555  s :     0.816555
      pz      :     0.028465  p :     0.061367
      px      :     0.016808
      py      :     0.016094

 15 H s       :     0.799795  s :     0.799795
      pz      :     0.017284  p :     0.055805
      px      :     0.020346
      py      :     0.018175

 16 H s       :     0.797283  s :     0.797283
      pz      :     0.022761  p :     0.055745
      px      :     0.012179
      py      :     0.020805

 17 H s       :     0.797215  s :     0.797215
      pz      :     0.011714  p :     0.055764
      px      :     0.032881
      py      :     0.011170

 18 H s       :     0.796881  s :     0.796881
      pz      :     0.017258  p :     0.055808
      px      :     0.020398
      py      :     0.018152

 19 H s       :     0.795909  s :     0.795909
      pz      :     0.023007  p :     0.056274
      px      :     0.012338
      py      :     0.020929



                      *****************************
                      * MAYER POPULATION ANALYSIS *
                      *****************************

  NA   - Mulliken gross atomic population
  ZA   - Total nuclear charge
  QA   - Mulliken gross atomic charge
  VA   - Mayer's total valence
  BVA  - Mayer's bonded valence
  FA   - Mayer's free valence

  ATOM       NA         ZA         QA         VA         BVA        FA
  0 C      6.5157     6.0000    -0.5157     3.8249     3.8249    -0.0000
  1 P     14.8284    15.0000     0.1716     3.0559     3.0559    -0.0000
  2 C      6.5165     6.0000    -0.5165     3.8247     3.8247    -0.0000
  3 C      6.0398     6.0000    -0.0398     3.7565     3.7565     0.0000
  4 C      6.1717     6.0000    -0.1717     3.9204     3.9204     0.0000
  5 C      6.1738     6.0000    -0.1738     4.0368     4.0368     0.0000
  6 C      6.1372     6.0000    -0.1372     3.9428     3.9428    -0.0000
  7 C      6.1530     6.0000    -0.1530     3.9577     3.9577    -0.0000
  8 C      6.1278     6.0000    -0.1278     3.9036     3.9036    -0.0000
  9 H      0.8453     1.0000     0.1547     0.9580     0.9580    -0.0000
 10 H      0.8541     1.0000     0.1459     0.9541     0.9541    -0.0000
 11 H      0.8373     1.0000     0.1627     0.9597     0.9597    -0.0000
 12 H      0.8539     1.0000     0.1461     0.9538     0.9538    -0.0000
 13 H      0.8449     1.0000     0.1551     0.9578     0.9578    -0.0000
 14 H      0.8375     1.0000     0.1625     0.9599     0.9599     0.0000
 15 H      0.8505     1.0000     0.1495     0.9636     0.9636     0.0000
 16 H      0.8566     1.0000     0.1434     0.9669     0.9669     0.0000
 17 H      0.8548     1.0000     0.1452     0.9636     0.9636    -0.0000
 18 H      0.8554     1.0000     0.1446     0.9655     0.9655     0.0000
 19 H      0.8460     1.0000     0.1540     0.9746     0.9746     0.0000

  Mayer bond orders larger than 0.100000
B(  0-C ,  1-P ) :   0.9780 B(  0-C ,  9-H ) :   0.9505 B(  0-C , 10-H ) :   0.9480 
B(  0-C , 11-H ) :   0.9526 B(  1-P ,  2-C ) :   0.9781 B(  1-P ,  3-C ) :   0.9507 
B(  2-C , 12-H ) :   0.9479 B(  2-C , 13-H ) :   0.9502 B(  2-C , 14-H ) :   0.9526 
B(  3-C ,  4-C ) :   1.3463 B(  3-C ,  8-C ) :   1.3971 B(  4-C ,  5-C ) :   1.5080 
B(  4-C , 15-H ) :   0.9130 B(  5-C ,  6-C ) :   1.4324 B(  5-C , 16-H ) :   0.9428 
B(  6-C ,  7-C ) :   1.4532 B(  6-C , 17-H ) :   0.9455 B(  7-C ,  8-C ) :   1.4480 
B(  7-C , 18-H ) :   0.9483 B(  8-C , 19-H ) :   0.9282 

-------
TIMINGS
-------

Total SCF time: 0 days 0 hours 0 min 26 sec 

Total time                  ....      26.472 sec
Sum of individual times     ....      26.456 sec  ( 99.9%)

SCF preparation             ....       0.127 sec  (  0.5%)
Fock matrix formation       ....      25.669 sec  ( 97.0%)
  Startup                   ....       0.029 sec  (  0.1% of F)
  Split-RI-J                ....       1.581 sec  (  6.2% of F)
  Chain of spheres X        ....      17.126 sec  ( 66.7% of F)
  XC integration            ....       6.825 sec  ( 26.6% of F)
    Basis function eval.    ....       0.981 sec  ( 14.4% of XC)
    Density eval.           ....       2.494 sec  ( 36.5% of XC)
    XC-Functional eval.     ....       0.199 sec  (  2.9% of XC)
    XC-Potential eval.      ....       2.675 sec  ( 39.2% of XC)
Diagonalization             ....       0.000 sec  (  0.0%)
Density matrix formation    ....       0.071 sec  (  0.3%)
Total Energy calculation    ....       0.032 sec  (  0.1%)
Population analysis         ....       0.051 sec  (  0.2%)
Orbital Transformation      ....       0.069 sec  (  0.3%)
Orbital Orthonormalization  ....       0.000 sec  (  0.0%)
DIIS solution               ....       0.298 sec  (  1.1%)
SOSCF solution              ....       0.139 sec  (  0.5%)
Finished LeanSCF after  26.5 sec

Maximum memory used throughout the entire LEANSCF-calculation: 36.8 MB


-------------------------------------------------------------------------------
                          DFT DISPERSION CORRECTION                            
                                                                               
                              DFTD3 V3.1  Rev 1                                
                              USING zero damping                               
-------------------------------------------------------------------------------
The M062X functional is recognized
Active option DFTDOPT                   ...         3   

molecular C6(AA) [au] = 4923.671122 


            DFT-D V3
 parameters
 s6 scaling factor         :     1.0000 
 rs6 scaling factor        :     1.6190 
 s8 scaling factor         :     0.0000 
 rs8 scaling factor        :     1.0000 
 Damping factor alpha6     :    14.0000 
 Damping factor alpha8     :    16.0000 
 ad hoc parameters k1-k3   :    16.0000     1.3333    -4.0000 

 Edisp/kcal,au: -0.396372018844  -0.000631658952 
 E6   /kcal   :  -0.396372019 
 E8   /kcal   :  -0.000000000 
 % E8         :   0.000000000 

-------------------------   ----------------
Dispersion correction           -0.000631659
-------------------------   ----------------


-------------------------   --------------------
FINAL SINGLE POINT ENERGY      -652.786880308715
-------------------------   --------------------



           ************************************************************
           *        Program running with 6 parallel MPI-processes     *
           *              working on a common directory               *
           ************************************************************

------------------------------------------------------------------------------
                              ORCA PROPERTY CALCULATIONS
------------------------------------------------------------------------------

GBWName                                 ... data/single_point_P_M06-2x/69597/69597.gbw
Number of atoms                         ...     20
Number of basis functions               ...    351
Max core memory                         ...   1024 MB

Electric properties:
Dipole moment                           ... YES
Quadrupole moment                       ...  NO
Static polarizability (Dipole/Dipole)   ...  NO
Static polarizability (Dipole/Quad.)    ...  NO
Static polarizability (Quad./Quad.)     ...  NO
Static polarizability (Velocity)        ...  NO

Atomic electric properties:
Dipole moment                           ...  NO
Quadrupole moment                       ...  NO
Static polarizability                   ...  NO

Choice of electric origin               ... Center of mass
Position of electric origin             ...     0.127262    -0.344402     0.345650

General magnetic properties:
Magnetizability                         ...  NO

EPR properties:
g-Tensor (aka g-matrix)                 ...  NO
Zero-Field splitting spin-orbit         ...  NO
Zero-field splitting spin-spin          ...  NO
Hyperfine couplings                     ...  NO (   0 nuclei)
Quadrupole couplings                    ...  NO (   0 nuclei)
Contact density                         ...  NO (   0 nuclei)

NMR properties:
Chemical shifts                         ...  NO (   0 nuclei)
Spin-rotation constants                 ...  NO (   0 nuclei)
Spin-spin couplings                     ...  NO (   0 nuclei,    0 pairs)

Choice of magnetic origin               ... GIAO
Position of magnetic origin             ...     0.000000     0.000000     0.000000

Properties with geometric perturbations:
SCF Hessian                             ...  NO
IR spectrum                             ...  NO
VCD spectrum                            ...  NO
X-ray spectroscopy properties:
SCF XES/XAS/RIXS spectra                ...  NO


-------------
DIPOLE MOMENT
-------------

Method             : SCF
Type of density    : Electron Density
Multiplicity       :   1
Irrep              :   0
Energy             :  -652.7862486497638201 Eh
Relativity type    : 
Basis              : AO
                                X                 Y                 Z
Electronic contribution:      2.703348095      -3.153027762       3.020615758
Nuclear contribution   :     -2.578021124       3.455793281      -3.347417118
                        -----------------------------------------
Total Dipole Moment    :      0.125326971       0.302765519      -0.326801361
                        -----------------------------------------
Magnitude (a.u.)       :      0.462788222
Magnitude (Debye)      :      1.176314177



--------------------
Rotational spectrum 
--------------------
 
Rotational constants in cm-1:             0.094036             0.028605             0.026638 
Rotational constants in MHz :          2819.134760           857.556130           798.595302 

Dipole components along the rotational axes: 
x,y,z [a.u.] :    -0.143155    -0.440037     0.006848 
x,y,z [Debye]:    -0.363870    -1.118486     0.017405 

 

Dipole moment calculation done in   0.0 sec 

Maximum memory used throughout the entire PROP-calculation: 18.3 MB

--------------------------------
SUGGESTED CITATIONS FOR THIS RUN
--------------------------------

Below you find a list of papers that are relevant to this ORCA run
We neither can nor want to force you to cite these papers, but we appreciate if you do
You receive ORCA, which is the product of decades of hard work by many enthusiastic individuals, for free
The only thing we kindly ask in return is that you cite our papers,
We deeply appreciate it, if you show your appreciation for ORCA by not just citing the generic ORCA reference.

Please note that relegating all ORCA citations to the supporting information does *not* help us.
SI sections are not indexed - citations you put there will not count into any citation statistics
But we need these citations in order to attract the funding resources that allow us to do what we are doing

Therefore, if you are a happy ORCA user, please consider citing a few of the papers listed below in the main body of your paper

In addition to the list printed below, the program has created the file data/single_point_P_M06-2x/69597/69597.bibtex that contains the list in bibtex format
You can import this file easily into all common literature databanks and citation aid programs


List of essential papers. We consider these as the minimum necessary citations

  1. Neese,F.
     Software update: the ORCA program system, version 5.0
     WIRES Comput. Molec. Sci., 2022 12(1)e1606
     doi.org/10.1002/wcms.1606

List of papers to cite with high priority. The work reported in these papers was absolutely
necessary for this run to complete.
Our perspective: the developers of density functionals and basis sets usually get cited in chemistry papers
Good! But without the algorithms to do something with them, the functionals or basis sets would not do anything.
Hence, in our opinion, the algorithm design and method developments papers are equally worthy of getting cited

  1. Neese,F.
     An improvement of the resolution of the identity approximation for the formation of the Coulomb matrix
     J. Comp. Chem., 2003 24(14)1740-1747
     doi.org/10.1002/jcc.10318
  2. Neese,F.; Wennmohs,F.; Hansen,A.; Becker,U.
     Efficient, approximate and parallel Hartree-Fock and hybrid DFT calculations. A 'chain-of-spheres' algorithm for the Hartree-Fock exchange
     Chem. Phys., 2009 356(1-3)98-109
     doi.org/10.1016/j.chemphys.2008.10.036
  3. Helmich-Paris,B.; de Souza,B.; Neese,F.; Izsák,R.
     An improved chain of spheres for exchange algorithm
     J. Chem. Phys., 2021 155 104109
     doi.org/doi: 10.1063/5.0058766.
  4. Neese,F.
     The SHARK Integral Generation and Digestion System
     J. Comp. Chem., 2022  1-16
     doi.org/10.1002/jcc.26942
  5. Grimme,S.; Antony,J.; Ehrlich,S.; Krieg,H.
     A consistent and accurate ab initio parametrization of density functional dispersion correction (DFT-D) for the 94 elements H-Pu
     J. Chem. Phys., 2010 132 154104-XXXX
     doi.org/10.1063/1.3382344

List of suggested additional citations. These are papers that are important in the 'surrounding' of 
of this run, or papers that preceded the highly important papers. If you like your results we are grateful for a citation.

  1. Izsak,R.; Neese,F.
     An overlap fitted chain of spheres exchange method
     J. Chem. Phys., 2011 135 144105
     doi.org/10.1063/1.3646921
  2. Izsak,R.; Hansen,A.; Neese,F.
     The resolution of identity and chain of spheres approximations for the LPNO-CCSD singles Fock term
     Molec. Phys., 2012 110 2413-2417
     doi.org/10.1080/00268976.2012.687466
  3. Neese,F.
     The ORCA program system
     WIRES Comput. Molec. Sci., 2012 2(1)73-78
     doi.org/10.1002/wcms.81
  4. Izsak,R.; Neese,F.; Klopper,W.
     Robust fitting techniques in the chain of spheres approximation to the Fock exchange: The role of the complementary space
     J. Chem. Phys., 2013 139 
     doi.org/10.1063/1.4819264
  5. Neese,F.
     Software update: the ORCA program system, version 4.0
     WIRES Comput. Molec. Sci., 2018 8(1)1-6
     doi.org/10.1002/wcms.1327
  6. Neese,F.; Wennmohs,F.; Becker,U.; Riplinger,C.
     The ORCA quantum chemistry program package
     J. Chem. Phys., 2020 152 Art. No. L224108
     doi.org/10.1063/5.0004608

List of optional additional citations

  1. Neese,F.
     Approximate second-order SCF convergence for spin unrestricted wavefunctions
     Chem. Phys. Lett., 2000 325(1-3)93-98
     doi.org/10.1016/s0009-2614(00)00662-x

Timings for individual modules:

Sum of individual times          ...       28.778 sec (=   0.480 min)
Startup calculation              ...        1.465 sec (=   0.024 min)   5.1 %
SCF iterations                   ...       27.147 sec (=   0.452 min)  94.3 %
Property calculations            ...        0.166 sec (=   0.003 min)   0.6 %
                             ****ORCA TERMINATED NORMALLY****
TOTAL RUN TIME: 0 days 0 hours 0 minutes 28 seconds 989 msec
