
                                 *****************
                                 * O   R   C   A *
                                 *****************

                                            #,                                       
                                            ###                                      
                                            ####                                     
                                            #####                                    
                                            ######                                   
                                           ########,                                 
                                     ,,################,,,,,                         
                               ,,#################################,,                 
                          ,,##########################################,,             
                       ,#########################################, ''#####,          
                    ,#############################################,,   '####,        
                  ,##################################################,,,,####,       
                ,###########''''           ''''###############################       
              ,#####''   ,,,,##########,,,,          '''####'''          '####       
            ,##' ,,,,###########################,,,                        '##       
           ' ,,###''''                  '''############,,,                           
         ,,##''                                '''############,,,,        ,,,,,,###''
      ,#''                                            '''#######################'''  
     '                                                          ''''####''''         
             ,#######,   #######,   ,#######,      ##                                
            ,#'     '#,  ##    ##  ,#'     '#,    #''#        ,####,   ,####,        
            ##       ##  ##   ,#'  ##            #'  '#       #'       #'  '#        
            ##       ##  #######   ##           ,######,      #####,   #    #        
            '#,     ,#'  ##    ##  '#,     ,#' ,#      #,     #,   #   #,  ,#        
             '#######'   ##     ##  '#######'  #'      '#     '####' # '####'        



                #########################################################
                #                        -***-                          #
                #          Department of theory and spectroscopy        #
                #                                                       #
                #                      Frank Neese                      #
                #                                                       #
                #     Directorship, Architecture, Infrastructure        #
                #                    SHARK, DRIVERS                     #
                #        Core code/Algorithms in most modules           #
                #                                                       #
                #        Max Planck Institute fuer Kohlenforschung      #
                #                Kaiser Wilhelm Platz 1                 #
                #                 D-45470 Muelheim/Ruhr                 #
                #                      Germany                          #
                #                                                       #
                #                  All rights reserved                  #
                #                        -***-                          #
                #########################################################


                         Program Version 6.0.0  -   RELEASE   -


 With contributions from (in alphabetic order):
   Daniel Aravena         : Magnetic Suceptibility
   Michael Atanasov       : Ab Initio Ligand Field Theory (pilot matlab implementation)
   Alexander A. Auer      : GIAO ZORA, VPT2 properties, NMR spectrum
   Ute Becker             : All parallelization in ORCA, NUMFREQ, NUMCALC
   Giovanni Bistoni       : ED, misc. LED, open-shell LED, HFLD
   Martin Brehm           : Molecular dynamics
   Dmytro Bykov           : pre 5.0 version of the SCF Hessian
   Marcos Casanova-Páez   : Triplet and SCS-CIS(D). UHF-(DLPNO)-IP/EA/STEOM-CCSD. UHF-CVS-IP/STEOM-CCSD
   Vijay G. Chilkuri      : MRCI spin determinant printing, contributions to CSF-ICE
   Pauline Colinet        : FMM embedding
   Dipayan Datta          : RHF DLPNO-CCSD density
   Achintya Kumar Dutta   : EOM-CC, STEOM-CC
   Nicolas Foglia         : Exact transition moments, OPA infrastructure, MCD improvements
   Dmitry Ganyushin       : Spin-Orbit,Spin-Spin,Magnetic field MRCI
   Miquel Garcia          : C-PCM and meta-GGA Hessian, CCSD/C-PCM, Gaussian charge scheme
   Tiago L. C. Gouveia    : GS-ROHF, GS-ROCIS
   Yang Guo               : DLPNO-NEVPT2, F12-NEVPT2, CIM, IAO-localization
   Andreas Hansen         : Spin unrestricted coupled pair/coupled cluster methods
   Ingolf Harden          : AUTO-CI MPn and infrastructure 
   Benjamin Helmich-Paris : MC-RPA, TRAH-(SCF,CASSCF), AVAS, COSX integrals, SCF dyn. polar.
   Lee Huntington         : MR-EOM, pCC
   Robert Izsak           : Overlap fitted RIJCOSX, COSX-SCS-MP3, EOM
   Riya Kayal             : Wick's Theorem for AUTO-CI, AUTO-CI UHF-CCSDT
   Emily Kempfer          : AUTO-CI, RHF CISDT and CCSDT
   Christian Kollmar      : KDIIS, OOCD, Brueckner-CCSD(T), CCSD density, CASPT2, CASPT2-K, improved NEVPT2
   Axel Koslowski         : Symmetry handling
   Simone Kossmann        : Meta GGA functionals, TD-DFT gradient, OOMP2, (MP2 Hessian; deprecated post 5.0)
   Lucas Lang             : DCDCAS
   Marvin Lechner         : AUTO-CI (C++ implementation), FIC-MRCC
   Spencer Leger          : CASSCF response
   Dagmar Lenk            : GEPOL surface, SMD, ORCA-2-JSON
   Dimitrios Liakos       : Extrapolation schemes; Compound Job, initial MDCI parallelization
   Dimitrios Manganas     : Further ROCIS development; embedding schemes. LFT, Crystal Embedding
   Dimitrios Pantazis     : SARC Basis sets
   Anastasios Papadopoulos: AUTO-CI, single reference methods and gradients
   Taras Petrenko         : pre 6.0 DFT Hessian and TD-DFT gradient, (ASA, deprecated), ECA, 1-Electron XAS/XES, NRVS
   Peter Pinski           : DLPNO-MP2, DLPNO-MP2 Gradient
   Christoph Reimann      : Effective Core Potentials
   Marius Retegan         : Local ZFS, SOC
   Christoph Riplinger    : Optimizer, TS searches, QM/MM, DLPNO-CCSD(T), (RO)-DLPNO pert. Triples
   Michael Roemelt        : Original ROCIS implementation
   Masaaki Saitow         : Open-shell DLPNO-CCSD energy and density
   Barbara Sandhoefer     : DKH picture change effects
   Kantharuban Sivalingam : CASSCF convergence/infrastructure, NEVPT2 and variants, FIC-MRCI
   Bernardo de Souza      : ESD, SOC TD-DFT
   Georgi Stoychev        : AutoAux, RI-MP2 NMR, DLPNO-MP2 response, X2C
   Van Anh Tran           : RI-MP2 g-tensors
   Willem Van den Heuvel  : Paramagnetic NMR
   Zikuan Wang            : NOTCH, Electric field optimization 
   Frank Wennmohs         : Technical directorship and infrastructure
   Hang Xu                : AUTO-CI-Response properties 


 We gratefully acknowledge several colleagues who have allowed us to
 interface, adapt or use parts of their codes:
   Stefan Grimme, W. Hujo, H. Kruse, P. Pracht,  : VdW corrections, initial TS optimization,
                  C. Bannwarth, S. Ehlert,         DFT functionals, gCP, sTDA/sTD-DF
                  L. Wittmann, M. Mueller
   Ed Valeev, F. Pavosevic, A. Kumar             : LibInt (2-el integral package), F12 methods
   Garnet Chan, S. Sharma, J. Yang, R. Olivares  : DMRG
   Ulf Ekstrom                                   : XCFun DFT Library
   Mihaly Kallay                                 : mrcc  (arbitrary order and MRCC methods)
   Frank Weinhold                                : gennbo (NPA and NBO analysis)
   Simon Mueller                                 : openCOSMO-RS
   Christopher J. Cramer and Donald G. Truhlar   : smd solvation model
   Lars Goerigk                                  : TD-DFT with DH, B97 family of functionals
   V. Asgeirsson, H. Jonsson                     : NEB implementation
   FAccTs GmbH                                   : IRC, NEB, NEB-TS, DLPNO-Multilevel, CI-OPT
                                                   MM, QMMM, 2- and 3-layer-ONIOM, Crystal-QMMM,
                                                   LR-CPCM, SF, NACMEs, symmetry and pop. for TD-DFT,
                                                   nearIR, NL-DFT gradient (VV10), updates on ESD,
                                                   ML-optimized integration grids, MBIS, APM,
                                                   GOAT, DOCKER, SOLVATOR, interface openCOSMO-RS
   S Lehtola, MJT Oliveira, MAL Marques          : LibXC Library
   Liviu Ungur et al                             : ANISO software


 Your calculation uses the libint2 library for the computation of 2-el integrals
 For citations please refer to: http://libint.valeyev.net

 Your ORCA version has been built with support for libXC version: 6.2.2
 For citations please refer to: https://libxc.gitlab.io

 This ORCA versions uses:
   CBLAS   interface :  Fast vector & matrix operations
   LAPACKE interface :  Fast linear algebra routines
   Shared memory     :  Shared parallel matrices


Your calculation utilizes the atom-pairwise dispersion correction
with the Becke-Johnson damping scheme (D3BJ)


Warning: RI is on but no J-basis has been assigned. Assigning Def2/J (nothing to worry about!)
================================================================================

----- Orbital basis set information -----
Your calculation utilizes the basis: def2-SVP
   F. Weigend and R. Ahlrichs, Phys. Chem. Chem. Phys. 7, 3297 (2005).

----- AuxJ basis set information -----
Your calculation utilizes the auxiliary basis: def2/J
   F. Weigend, Phys. Chem. Chem. Phys. 8, 1057 (2006).

================================================================================
                                        WARNINGS
                       Please study these warnings very carefully!
================================================================================


WARNING: Geometry Optimization
  ===> : Switching off AutoStart
         For restart on a previous wavefunction, please use MOREAD

================================================================================
                                       INPUT FILE
================================================================================
NAME = data/geom_opt_PO_BP86/83681/83681.inp
|  1> ! RI BP86 def2-SVP D3BJ TIGHTSCF Opt
|  2> %pal
|  3> nprocs 6
|  4> end
|  5> 
|  6> * xyz 0 1
|  7> C      0.759828   -2.320581    1.659910
|  8> C     -0.119300   -1.695805    0.544152
|  9> C     -1.539618   -2.210560    0.862672
| 10> C      0.304118   -2.308257   -0.796648
| 11> P     -0.033059    0.173500    0.614805
| 12> O     -0.111271    0.583972    2.069339
| 13> C      1.593622    0.801114   -0.068378
| 14> C      2.788460   -0.011855    0.474921
| 15> C      1.869706    2.244060    0.431435
| 16> C      1.691223    0.798980   -1.598932
| 17> C     -1.485053    0.951005   -0.276222
| 18> C     -1.777121    0.364025   -1.662684
| 19> C     -1.296772    2.473954   -0.446248
| 20> C     -2.773214    0.830569    0.580670
| 21> H      0.616076   -3.406162    1.721651
| 22> H      1.824695   -2.166693    1.496994
| 23> H      0.511978   -1.898015    2.639159
| 24> H     -1.553589   -3.298015    1.005829
| 25> H     -1.922610   -1.754740    1.781366
| 26> H     -2.238396   -2.007786    0.050330
| 27> H      0.133019   -3.391326   -0.809135
| 28> H      1.366172   -2.159768   -0.997212
| 29> H     -0.250251   -1.882263   -1.633805
| 30> H      3.746369    0.462924    0.229475
| 31> H      2.736775   -0.099838    1.564894
| 32> H      2.831718   -1.011817    0.041895
| 33> H      1.184087    2.977063    0.010958
| 34> H      2.877330    2.577330    0.154689
| 35> H      1.789076    2.305069    1.521709
| 36> H      2.698361    1.076734   -1.932090
| 37> H      1.468381   -0.181611   -2.021319
| 38> H      1.005568    1.515399   -2.053744
| 39> H     -2.121357   -0.669627   -1.605267
| 40> H     -0.897517    0.381249   -2.307377
| 41> H     -2.567126    0.927730   -2.173171
| 42> H     -2.216423    2.959174   -0.795602
| 43> H     -1.021234    2.941302    0.504603
| 44> H     -0.534325    2.709976   -1.189400
| 45> H     -3.601784    1.397622    0.139211
| 46> H     -2.610423    1.216514    1.592335
| 47> H     -3.126120   -0.194549    0.674233
| 48> **                         ****END OF INPUT****
================================================================================

                       *****************************
                       * Geometry Optimization Run *
                       *****************************

Geometry optimization settings:
Update method            Update   .... BFGS
Choice of coordinates    CoordSys .... (2022) Redundant Internals
Initial Hessian          InHess   .... Almloef's Model
Max. no of cycles        MaxIter  .... 123

Convergence Tolerances:
Energy Change            TolE     ....  5.0000e-06 Eh
Max. Gradient            TolMAXG  ....  3.0000e-04 Eh/bohr
RMS Gradient             TolRMSG  ....  1.0000e-04 Eh/bohr
Max. Displacement        TolMAXD  ....  4.0000e-03 bohr
RMS Displacement         TolRMSD  ....  2.0000e-03 bohr
Strict Convergence                .... False

------------------------------------------------------------------------------
                        ORCA OPTIMIZATION COORDINATE SETUP
------------------------------------------------------------------------------

The optimization will be done in redundant internal coordinates (2022)
Making redundant internal coordinates   ...  (2022 redundants) done
Evaluating the initial hessian          ...  (Almloef) done
Evaluating the coordinates              ...  done
Calculating the B-matrix                .... done
Calculating the G-matrix                .... done
Diagonalizing the G-matrix              .... done
Small eigenvalue found = 8.767e-03
Small eigenvalue found = 1.016e-02
Small eigenvalue found = 1.936e-02
Small eigenvalue found = 2.510e-02
Small eigenvalue found = 2.764e-02
The first mode is                       ....   73
The number of degrees of freedom        ....  117

    -----------------------------------------------------------------
                    Redundant Internal Coordinates


    -----------------------------------------------------------------
         Definition                    Initial Value    Approx d2E/dq
    -----------------------------------------------------------------
      1. B(C   1,C   0)                  1.5518         0.344806   
      2. B(C   2,C   1)                  1.5439         0.354934   
      3. B(C   3,C   1)                  1.5337         0.368580   
      4. B(P   4,C   1)                  1.8726         0.356642   
      5. B(O   5,P   4)                  1.5134         1.195497   
      6. B(C   6,P   4)                  1.8726         0.356642   
      7. B(C   7,C   6)                  1.5439         0.354934   
      8. B(C   8,C   6)                  1.5518         0.344805   
      9. B(C   9,C   6)                  1.5337         0.368580   
     10. B(C  10,P   4)                  1.8726         0.356642   
     11. B(C  11,C  10)                  1.5337         0.368580   
     12. B(C  12,C  10)                  1.5439         0.354933   
     13. B(C  13,C  10)                  1.5518         0.344806   
     14. B(H  14,C   0)                  1.0968         0.351220   
     15. B(H  15,C   0)                  1.0882         0.362498   
     16. B(H  16,C   0)                  1.0950         0.353608   
     17. B(H  17,C   2)                  1.0969         0.351053   
     18. B(H  18,C   2)                  1.0947         0.353885   
     19. B(H  19,C   2)                  1.0906         0.359368   
     20. B(H  20,C   3)                  1.0966         0.351511   
     21. B(H  21,C   3)                  1.0910         0.358808   
     22. B(H  22,C   3)                  1.0907         0.359174   
     23. B(H  23,C   7)                  1.0969         0.351052   
     24. B(H  24,C   7)                  1.0947         0.353885   
     25. B(H  25,C   7)                  1.0906         0.359369   
     26. B(H  26,C   8)                  1.0882         0.362496   
     27. B(H  27,C   8)                  1.0968         0.351220   
     28. B(H  28,C   8)                  1.0950         0.353608   
     29. B(H  29,C   9)                  1.0966         0.351511   
     30. B(H  30,C   9)                  1.0907         0.359174   
     31. B(H  31,C   9)                  1.0910         0.358809   
     32. B(H  32,C  11)                  1.0910         0.358809   
     33. B(H  33,C  11)                  1.0907         0.359174   
     34. B(H  34,C  11)                  1.0966         0.351511   
     35. B(H  35,C  12)                  1.0969         0.351055   
     36. B(H  36,C  12)                  1.0947         0.353885   
     37. B(H  37,C  12)                  1.0906         0.359369   
     38. B(H  38,C  13)                  1.0968         0.351220   
     39. B(H  39,C  13)                  1.0950         0.353608   
     40. B(H  40,C  13)                  1.0882         0.362499   
     41. A(C   1,C   0,H  15)          112.9416         0.320436   
     42. A(C   1,C   0,H  16)          111.0643         0.319139   
     43. A(H  15,C   0,H  16)          107.5070         0.290312   
     44. A(H  14,C   0,H  15)          106.0606         0.290004   
     45. A(C   1,C   0,H  14)          111.3901         0.318787   
     46. A(H  14,C   0,H  16)          107.5756         0.288877   
     47. A(C   3,C   1,P   4)          114.7652         0.382656   
     48. A(C   0,C   1,P   4)          110.4065         0.378258   
     49. A(C   2,C   1,P   4)          111.5551         0.380160   
     50. A(C   2,C   1,C   3)          107.5295         0.359366   
     51. A(C   0,C   1,C   3)          108.1437         0.357601   
     52. A(C   0,C   1,C   2)          103.8035         0.355317   
     53. A(H  17,C   2,H  18)          107.3856         0.288891   
     54. A(C   1,C   2,H  17)          111.6643         0.320272   
     55. A(H  18,C   2,H  19)          108.8758         0.289953   
     56. A(H  17,C   2,H  19)          105.8657         0.289588   
     57. A(C   1,C   2,H  19)          111.9494         0.321501   
     58. A(C   1,C   2,H  18)          110.8636         0.320693   
     59. A(H  20,C   3,H  21)          106.5129         0.289576   
     60. A(H  21,C   3,H  22)          107.4895         0.290558   
     61. A(C   1,C   3,H  22)          112.0074         0.323466   
     62. A(H  20,C   3,H  22)          107.3204         0.289623   
     63. A(C   1,C   3,H  21)          112.0324         0.323412   
     64. A(C   1,C   3,H  20)          111.1800         0.322325   
     65. A(C   1,P   4,O   5)          107.7361         0.502016   
     66. A(O   5,P   4,C   6)          107.7361         0.502016   
     67. A(C   6,P   4,C  10)          111.1493         0.405241   
     68. A(O   5,P   4,C  10)          107.7361         0.502016   
     69. A(C   1,P   4,C  10)          111.1492         0.405241   
     70. A(C   1,P   4,C   6)          111.1492         0.405241   
     71. A(C   8,C   6,C   9)          108.1437         0.357600   
     72. A(P   4,C   6,C   9)          114.7652         0.382656   
     73. A(C   7,C   6,C   9)          107.5295         0.359366   
     74. A(C   7,C   6,C   8)          103.8036         0.355317   
     75. A(P   4,C   6,C   8)          110.4065         0.378258   
     76. A(P   4,C   6,C   7)          111.5551         0.380160   
     77. A(H  23,C   7,H  25)          105.8658         0.289588   
     78. A(H  24,C   7,H  25)          108.8760         0.289953   
     79. A(C   6,C   7,H  25)          111.9494         0.321501   
     80. A(H  23,C   7,H  24)          107.3854         0.288891   
     81. A(C   6,C   7,H  24)          110.8635         0.320694   
     82. A(C   6,C   7,H  23)          111.6643         0.320272   
     83. A(H  27,C   8,H  28)          107.5756         0.288877   
     84. A(H  26,C   8,H  28)          107.5069         0.290312   
     85. A(C   6,C   8,H  28)          111.0643         0.319139   
     86. A(H  26,C   8,H  27)          106.0605         0.290003   
     87. A(C   6,C   8,H  27)          111.3902         0.318787   
     88. A(C   6,C   8,H  26)          112.9417         0.320436   
     89. A(H  30,C   9,H  31)          107.4897         0.290558   
     90. A(C   6,C   9,H  31)          112.0323         0.323412   
     91. A(H  29,C   9,H  30)          107.3203         0.289623   
     92. A(C   6,C   9,H  30)          112.0073         0.323466   
     93. A(C   6,C   9,H  29)          111.1799         0.322325   
     94. A(H  29,C   9,H  31)          106.5129         0.289576   
     95. A(C  12,C  10,C  13)          103.8036         0.355317   
     96. A(C  11,C  10,C  13)          108.1437         0.357600   
     97. A(P   4,C  10,C  13)          110.4065         0.378258   
     98. A(C  11,C  10,C  12)          107.5295         0.359366   
     99. A(P   4,C  10,C  12)          111.5550         0.380159   
    100. A(P   4,C  10,C  11)          114.7652         0.382656   
    101. A(H  32,C  11,H  33)          107.4895         0.290558   
    102. A(C  10,C  11,H  33)          112.0073         0.323466   
    103. A(C  10,C  11,H  32)          112.0324         0.323412   
    104. A(H  33,C  11,H  34)          107.3203         0.289623   
    105. A(H  32,C  11,H  34)          106.5130         0.289577   
    106. A(C  10,C  11,H  34)          111.1800         0.322325   
    107. A(H  36,C  12,H  37)          108.8758         0.289953   
    108. A(H  35,C  12,H  37)          105.8659         0.289588   
    109. A(C  10,C  12,H  37)          111.9493         0.321501   
    110. A(H  35,C  12,H  36)          107.3857         0.288891   
    111. A(C  10,C  12,H  36)          110.8636         0.320693   
    112. A(C  10,C  12,H  35)          111.6642         0.320273   
    113. A(H  39,C  13,H  40)          107.5070         0.290312   
    114. A(H  38,C  13,H  40)          106.0606         0.290004   
    115. A(C  10,C  13,H  40)          112.9417         0.320437   
    116. A(H  38,C  13,H  39)          107.5756         0.288877   
    117. A(C  10,C  13,H  39)          111.0643         0.319139   
    118. A(C  10,C  13,H  38)          111.3901         0.318787   
    119. D(C   2,C   1,C   0,H  14)     52.6006         0.009603   
    120. D(C   2,C   1,C   0,H  15)    171.8383         0.009603   
    121. D(C   3,C   1,C   0,H  15)     57.8284         0.009603   
    122. D(C   2,C   1,C   0,H  16)    -67.2928         0.009603   
    123. D(C   3,C   1,C   0,H  16)    178.6973         0.009603   
    124. D(C   3,C   1,C   0,H  14)    -61.4093         0.009603   
    125. D(H  17,C   2,C   1,C   0)    -50.5198         0.010128   
    126. D(H  18,C   2,C   1,P   4)    -49.7071         0.010128   
    127. D(H  18,C   2,C   1,C   0)     69.1809         0.010128   
    128. D(H  18,C   2,C   1,C   3)   -176.3701         0.010128   
    129. D(H  17,C   2,C   1,C   3)     63.9292         0.010128   
    130. D(H  17,C   2,C   1,P   4)   -169.4078         0.010128   
    131. D(H  20,C   3,C   1,C   2)    -49.3426         0.010865   
    132. D(H  20,C   3,C   1,P   4)   -174.0948         0.010865   
    133. D(H  20,C   3,C   1,C   0)     62.1765         0.010865   
    134. D(H  21,C   3,C   1,C   0)    -56.8780         0.010865   
    135. D(H  21,C   3,C   1,P   4)     66.8507         0.010865   
    136. D(H  21,C   3,C   1,C   2)   -168.3971         0.010865   
    137. D(C   6,P   4,C   1,C   3)    -47.1381         0.003347   
    138. D(C   6,P   4,C   1,C   2)   -169.7455         0.003347   
    139. D(C   6,P   4,C   1,C   0)     75.3776         0.003347   
    140. D(O   5,P   4,C   1,C   2)     72.4365         0.003347   
    141. D(O   5,P   4,C   1,C   0)    -42.4403         0.003347   
    142. D(O   5,P   4,C   1,C   3)   -164.9560         0.003347   
    143. D(C   8,C   6,P   4,C  10)     75.3775         0.003347   
    144. D(C   8,C   6,P   4,O   5)    -42.4405         0.003347   
    145. D(C   8,C   6,P   4,C   1)   -160.2584         0.003347   
    146. D(C   7,C   6,P   4,O   5)     72.4364         0.003347   
    147. D(C   7,C   6,P   4,C   1)    -45.3815         0.003347   
    148. D(C   7,C   6,P   4,C  10)   -169.7456         0.003347   
    149. D(H  23,C   7,C   6,P   4)   -169.4076         0.010128   
    150. D(H  24,C   7,C   6,C   9)   -176.3702         0.010128   
    151. D(H  24,C   7,C   6,C   8)     69.1808         0.010128   
    152. D(H  24,C   7,C   6,P   4)    -49.7072         0.010128   
    153. D(H  23,C   7,C   6,C   9)     63.9294         0.010128   
    154. D(H  23,C   7,C   6,C   8)    -50.5196         0.010128   
    155. D(H  27,C   8,C   6,C   9)    -61.4096         0.009603   
    156. D(H  27,C   8,C   6,C   7)     52.6002         0.009603   
    157. D(H  27,C   8,C   6,P   4)    172.2737         0.009603   
    158. D(H  26,C   8,C   6,C   9)     57.8281         0.009603   
    159. D(H  26,C   8,C   6,C   7)    171.8379         0.009603   
    160. D(H  26,C   8,C   6,P   4)    -68.4886         0.009603   
    161. D(H  30,C   9,C   6,C   8)   -177.7585         0.010865   
    162. D(H  30,C   9,C   6,C   7)     70.7223         0.010865   
    163. D(H  30,C   9,C   6,P   4)    -54.0298         0.010865   
    164. D(H  29,C   9,C   6,C   8)     62.1767         0.010865   
    165. D(H  29,C   9,C   6,C   7)    -49.3425         0.010865   
    166. D(H  29,C   9,C   6,P   4)   -174.0946         0.010865   
    167. D(C  12,C  10,P   4,C   6)    -45.3815         0.003347   
    168. D(C  12,C  10,P   4,O   5)     72.4365         0.003347   
    169. D(C  12,C  10,P   4,C   1)   -169.7456         0.003347   
    170. D(C  11,C  10,P   4,C   6)     77.2259         0.003347   
    171. D(C  11,C  10,P   4,O   5)   -164.9561         0.003347   
    172. D(C  11,C  10,P   4,C   1)    -47.1382         0.003347   
    173. D(H  33,C  11,C  10,C  13)   -177.7589         0.010865   
    174. D(H  33,C  11,C  10,C  12)     70.7219         0.010865   
    175. D(H  33,C  11,C  10,P   4)    -54.0302         0.010865   
    176. D(H  32,C  11,C  10,C  13)    -56.8783         0.010865   
    177. D(H  32,C  11,C  10,C  12)   -168.3975         0.010865   
    178. D(H  32,C  11,C  10,P   4)     66.8504         0.010865   
    179. D(H  35,C  12,C  10,C  13)    -50.5198         0.010128   
    180. D(H  35,C  12,C  10,C  11)     63.9293         0.010128   
    181. D(H  35,C  12,C  10,P   4)   -169.4077         0.010128   
    182. D(H  36,C  12,C  10,C  13)     69.1809         0.010128   
    183. D(H  36,C  12,C  10,C  11)   -176.3700         0.010128   
    184. D(H  36,C  12,C  10,P   4)    -49.7070         0.010128   
    185. D(H  39,C  13,C  10,C  12)    -67.2929         0.009603   
    186. D(H  39,C  13,C  10,C  11)    178.6972         0.009603   
    187. D(H  39,C  13,C  10,P   4)     52.3806         0.009603   
    188. D(H  38,C  13,C  10,C  12)     52.6005         0.009603   
    189. D(H  38,C  13,C  10,C  11)    -61.4094         0.009603   
    190. D(H  38,C  13,C  10,P   4)    172.2739         0.009603   
    -----------------------------------------------------------------

Number of atoms                         .... 41
Number of degrees of freedom            .... 190


         *************************************************************
         *                GEOMETRY OPTIMIZATION CYCLE   1            *
         *************************************************************
---------------------------------
CARTESIAN COORDINATES (ANGSTROEM)
---------------------------------
  C      0.759828   -2.320581    1.659910
  C     -0.119300   -1.695805    0.544152
  C     -1.539618   -2.210560    0.862672
  C      0.304118   -2.308257   -0.796648
  P     -0.033059    0.173500    0.614805
  O     -0.111271    0.583972    2.069339
  C      1.593622    0.801114   -0.068378
  C      2.788460   -0.011855    0.474921
  C      1.869706    2.244060    0.431435
  C      1.691223    0.798980   -1.598932
  C     -1.485053    0.951005   -0.276222
  C     -1.777121    0.364025   -1.662684
  C     -1.296772    2.473954   -0.446248
  C     -2.773214    0.830569    0.580670
  H      0.616076   -3.406162    1.721651
  H      1.824695   -2.166693    1.496994
  H      0.511978   -1.898015    2.639159
  H     -1.553589   -3.298015    1.005829
  H     -1.922610   -1.754740    1.781366
  H     -2.238396   -2.007786    0.050330
  H      0.133019   -3.391326   -0.809135
  H      1.366172   -2.159768   -0.997212
  H     -0.250251   -1.882263   -1.633805
  H      3.746369    0.462924    0.229475
  H      2.736775   -0.099838    1.564894
  H      2.831718   -1.011817    0.041895
  H      1.184087    2.977063    0.010958
  H      2.877330    2.577330    0.154689
  H      1.789076    2.305069    1.521709
  H      2.698361    1.076734   -1.932090
  H      1.468381   -0.181611   -2.021319
  H      1.005568    1.515399   -2.053744
  H     -2.121357   -0.669627   -1.605267
  H     -0.897517    0.381249   -2.307377
  H     -2.567126    0.927730   -2.173171
  H     -2.216423    2.959174   -0.795602
  H     -1.021234    2.941302    0.504603
  H     -0.534325    2.709976   -1.189400
  H     -3.601784    1.397622    0.139211
  H     -2.610423    1.216514    1.592335
  H     -3.126120   -0.194549    0.674233

----------------------------
CARTESIAN COORDINATES (A.U.)
----------------------------
  NO LB      ZA    FRAG     MASS         X           Y           Z
   0 C     6.0000    0    12.011    1.435867   -4.385263    3.136775
   1 C     6.0000    0    12.011   -0.225444   -3.204607    1.028298
   2 C     6.0000    0    12.011   -2.909456   -4.177353    1.630214
   3 C     6.0000    0    12.011    0.574700   -4.361974   -1.505447
   4 P    15.0000    0    30.974   -0.062472    0.327867    1.161813
   5 O     8.0000    0    15.999   -0.210272    1.103547    3.910484
   6 C     6.0000    0    12.011    3.011509    1.513886   -0.129216
   7 C     6.0000    0    12.011    5.269426   -0.022403    0.897471
   8 C     6.0000    0    12.011    3.533232    4.240659    0.815294
   9 C     6.0000    0    12.011    3.195948    1.509853   -3.021544
  10 C     6.0000    0    12.011   -2.806343    1.797139   -0.521984
  11 C     6.0000    0    12.011   -3.358272    0.687908   -3.142017
  12 C     6.0000    0    12.011   -2.450544    4.675096   -0.843287
  13 C     6.0000    0    12.011   -5.240615    1.569548    1.097307
  14 H     1.0000    0     1.008    1.164215   -6.436713    3.253449
  15 H     1.0000    0     1.008    3.448174   -4.094456    2.828909
  16 H     1.0000    0     1.008    0.967498   -3.586729    4.987288
  17 H     1.0000    0     1.008   -2.935858   -6.232345    1.900741
  18 H     1.0000    0     1.008   -3.633206   -3.315978    3.366294
  19 H     1.0000    0     1.008   -4.229955   -3.794166    0.095110
  20 H     1.0000    0     1.008    0.251369   -6.408677   -1.529044
  21 H     1.0000    0     1.008    2.581691   -4.081370   -1.884458
  22 H     1.0000    0     1.008   -0.472906   -3.556962   -3.087444
  23 H     1.0000    0     1.008    7.079611    0.874800    0.433645
  24 H     1.0000    0     1.008    5.171755   -0.188666    2.957221
  25 H     1.0000    0     1.008    5.351172   -1.912057    0.079170
  26 H     1.0000    0     1.008    2.237600    5.625834    0.020708
  27 H     1.0000    0     1.008    5.437366    4.870448    0.292320
  28 H     1.0000    0     1.008    3.380864    4.355949    2.875613
  29 H     1.0000    0     1.008    5.099163    2.034732   -3.651121
  30 H     1.0000    0     1.008    2.774838   -0.343195   -3.819739
  31 H     1.0000    0     1.008    1.900248    2.863689   -3.881014
  32 H     1.0000    0     1.008   -4.008784   -1.265412   -3.033515
  33 H     1.0000    0     1.008   -1.696061    0.720456   -4.360311
  34 H     1.0000    0     1.008   -4.851165    1.753156   -4.106698
  35 H     1.0000    0     1.008   -4.188432    5.592028   -1.503470
  36 H     1.0000    0     1.008   -1.929853    5.558255    0.953561
  37 H     1.0000    0     1.008   -1.009728    5.121112   -2.247640
  38 H     1.0000    0     1.008   -6.806385    2.641123    0.263071
  39 H     1.0000    0     1.008   -4.932985    2.298878    3.009077
  40 H     1.0000    0     1.008   -5.907511   -0.367644    1.274116

--------------------------------
INTERNAL COORDINATES (ANGSTROEM)
--------------------------------
 C      0   0   0     0.000000000000     0.00000000     0.00000000
 C      1   0   0     1.551814101342     0.00000000     0.00000000
 C      2   1   0     1.543933587156   103.80348942     0.00000000
 C      2   1   3     1.533663879417   108.14373444   245.99015545
 P      2   1   3     1.872626641783   110.40650040   119.67348947
 O      5   2   1     1.513364971474   107.73607359   317.55970394
 C      5   2   1     1.872626342933   111.14918561    75.37761813
 C      7   5   2     1.543933367929   111.55506452   314.61854842
 C      7   5   2     1.551814605209   110.40653034   199.74161910
 C      7   5   2     1.533664257937   114.76521159    77.22591386
 C      5   2   1     1.872626421844   111.14917036   199.74177932
 C     11   5   2     1.533664276975   114.76523954   312.86176725
 C     11   5   2     1.543934011620   111.55502069   190.25440306
 C     11   5   2     1.551814258112   110.40650433    75.37748149
 H      1   2   3     1.096796560966   111.39014355    52.60055242
 H      1   2   3     1.088193396088   112.94164890   171.83829004
 H      1   2   3     1.094952168296   111.06425720   292.70716047
 H      3   2   1     1.096926384273   111.66425800   309.48016455
 H      3   2   1     1.094738968933   110.86361417    69.18089987
 H      3   2   1     1.090553764527   111.94935369   190.97533427
 H      4   2   1     1.096571589880   111.18004175    62.17650019
 H      4   2   1     1.090978276655   112.03239774   303.12204864
 H      4   2   1     1.090700563329   112.00736908   182.24147469
 H      8   7   5     1.096926838963   111.66426525   190.59241080
 H      8   7   5     1.094739004623   110.86348125   310.29280066
 H      8   7   5     1.090553424956   111.94939899    72.08743262
 H      9   7   5     1.088194706245   112.94166353   291.51142185
 H      9   7   5     1.096796866695   111.39019032   172.27369353
 H      9   7   5     1.094952368853   111.06429017    52.38023671
 H     10   7   5     1.096571241883   111.17994503   185.90538308
 H     10   7   5     1.090700712393   112.00734825   305.97020227
 H     10   7   5     1.090977963998   112.03233466    66.85096675
 H     12  11   5     1.090977356634   112.03242147    66.85039278
 H     12  11   5     1.090701117282   112.00729984   305.96981160
 H     12  11   5     1.096571112249   111.17999079   185.90494853
 H     13  11   5     1.096925078352   111.66417830   190.59225414
 H     13  11   5     1.094738766441   110.86358054   310.29296526
 H     13  11   5     1.090553395023   111.94928352    72.08736591
 H     14  11   5     1.096796881100   111.39008839   172.27394515
 H     14  11   5     1.094952293450   111.06428931    52.38056437
 H     14  11   5     1.088192810916   112.94166711   291.51165485

---------------------------
INTERNAL COORDINATES (A.U.)
---------------------------
 C      0   0   0     0.000000000000     0.00000000     0.00000000
 C      1   0   0     2.932503662294     0.00000000     0.00000000
 C      2   1   0     2.917611648688   103.80348942     0.00000000
 C      2   1   3     2.898204713585   108.14373444   245.99015545
 P      2   1   3     3.538751504054   110.40650040   119.67348947
 O      5   2   1     2.859845336755   107.73607359   317.55970394
 C      5   2   1     3.538750939310   111.14918561    75.37761813
 C      7   5   2     2.917611234409   111.55506452   314.61854842
 C      7   5   2     2.932504614465   110.40653034   199.74161910
 C      7   5   2     2.898205428884   114.76521159    77.22591386
 C      5   2   1     3.538751088431   111.14917036   199.74177932
 C     11   5   2     2.898205464860   114.76523954   312.86176725
 C     11   5   2     2.917612450809   111.55502069   190.25440306
 C     11   5   2     2.932503958547   110.40650433    75.37748149
 H      1   2   3     2.072645124852   111.39014355    52.60055242
 H      1   2   3     2.056387499348   112.94164890   171.83829004
 H      1   2   3     2.069159727823   111.06425720   292.70716047
 H      3   2   1     2.072890455349   111.66425800   309.48016455
 H      3   2   1     2.068756839414   110.86361417    69.18089987
 H      3   2   1     2.060847949273   111.94935369   190.97533427
 H      4   2   1     2.072219991111   111.18004175    62.17650019
 H      4   2   1     2.061650160935   112.03239774   303.12204864
 H      4   2   1     2.061125358805   112.00736908   182.24147469
 H      8   7   5     2.072891314589   111.66426525   190.59241080
 H      8   7   5     2.068756906859   110.86348125   310.29280066
 H      8   7   5     2.060847307577   111.94939899    72.08743262
 H      9   7   5     2.056389975185   112.94166353   291.51142185
 H      9   7   5     2.072645702597   111.39019032   172.27369353
 H      9   7   5     2.069160106821   111.06429017    52.38023671
 H     10   7   5     2.072219333492   111.17994503   185.90538308
 H     10   7   5     2.061125640495   112.00734825   305.97020227
 H     10   7   5     2.061649570100   112.03233466    66.85096675
 H     12  11   5     2.061648422348   112.03242147    66.85039278
 H     12  11   5     2.061126405626   112.00729984   305.96981160
 H     12  11   5     2.072219088520   111.17999079   185.90494853
 H     13  11   5     2.072887987515   111.66417830   190.59225414
 H     13  11   5     2.068756456760   110.86358054   310.29296526
 H     13  11   5     2.060847251012   111.94928352    72.08736591
 H     14  11   5     2.072645729817   111.39008839   172.27394515
 H     14  11   5     2.069159964329   111.06428931    52.38056437
 H     14  11   5     2.056386393533   112.94166711   291.51165485

---------------------
BASIS SET INFORMATION
---------------------
There are 4 groups of distinct atoms

 Group   1 Type C   : 7s4p1d contracted to 3s2p1d pattern {511/31/1}
 Group   2 Type P   : 10s7p1d contracted to 4s3p1d pattern {5311/511/1}
 Group   3 Type O   : 7s4p1d contracted to 3s2p1d pattern {511/31/1}
 Group   4 Type H   : 4s1p contracted to 2s1p pattern {31/1}

Atom   0C    basis set group =>   1
Atom   1C    basis set group =>   1
Atom   2C    basis set group =>   1
Atom   3C    basis set group =>   1
Atom   4P    basis set group =>   2
Atom   5O    basis set group =>   3
Atom   6C    basis set group =>   1
Atom   7C    basis set group =>   1
Atom   8C    basis set group =>   1
Atom   9C    basis set group =>   1
Atom  10C    basis set group =>   1
Atom  11C    basis set group =>   1
Atom  12C    basis set group =>   1
Atom  13C    basis set group =>   1
Atom  14H    basis set group =>   4
Atom  15H    basis set group =>   4
Atom  16H    basis set group =>   4
Atom  17H    basis set group =>   4
Atom  18H    basis set group =>   4
Atom  19H    basis set group =>   4
Atom  20H    basis set group =>   4
Atom  21H    basis set group =>   4
Atom  22H    basis set group =>   4
Atom  23H    basis set group =>   4
Atom  24H    basis set group =>   4
Atom  25H    basis set group =>   4
Atom  26H    basis set group =>   4
Atom  27H    basis set group =>   4
Atom  28H    basis set group =>   4
Atom  29H    basis set group =>   4
Atom  30H    basis set group =>   4
Atom  31H    basis set group =>   4
Atom  32H    basis set group =>   4
Atom  33H    basis set group =>   4
Atom  34H    basis set group =>   4
Atom  35H    basis set group =>   4
Atom  36H    basis set group =>   4
Atom  37H    basis set group =>   4
Atom  38H    basis set group =>   4
Atom  39H    basis set group =>   4
Atom  40H    basis set group =>   4
---------------------------------
AUXILIARY/J BASIS SET INFORMATION
---------------------------------
There are 4 groups of distinct atoms

 Group   1 Type C   : 12s5p4d2f1g contracted to 6s4p3d1f1g pattern {711111/2111/211/2/1}
 Group   2 Type P   : 14s5p5d2f1g contracted to 8s4p3d1f1g pattern {71111111/2111/311/2/1}
 Group   3 Type O   : 12s5p4d2f1g contracted to 6s4p3d1f1g pattern {711111/2111/211/2/1}
 Group   4 Type H   : 5s2p1d contracted to 3s1p1d pattern {311/2/1}

Atom   0C    basis set group =>   1
Atom   1C    basis set group =>   1
Atom   2C    basis set group =>   1
Atom   3C    basis set group =>   1
Atom   4P    basis set group =>   2
Atom   5O    basis set group =>   3
Atom   6C    basis set group =>   1
Atom   7C    basis set group =>   1
Atom   8C    basis set group =>   1
Atom   9C    basis set group =>   1
Atom  10C    basis set group =>   1
Atom  11C    basis set group =>   1
Atom  12C    basis set group =>   1
Atom  13C    basis set group =>   1
Atom  14H    basis set group =>   4
Atom  15H    basis set group =>   4
Atom  16H    basis set group =>   4
Atom  17H    basis set group =>   4
Atom  18H    basis set group =>   4
Atom  19H    basis set group =>   4
Atom  20H    basis set group =>   4
Atom  21H    basis set group =>   4
Atom  22H    basis set group =>   4
Atom  23H    basis set group =>   4
Atom  24H    basis set group =>   4
Atom  25H    basis set group =>   4
Atom  26H    basis set group =>   4
Atom  27H    basis set group =>   4
Atom  28H    basis set group =>   4
Atom  29H    basis set group =>   4
Atom  30H    basis set group =>   4
Atom  31H    basis set group =>   4
Atom  32H    basis set group =>   4
Atom  33H    basis set group =>   4
Atom  34H    basis set group =>   4
Atom  35H    basis set group =>   4
Atom  36H    basis set group =>   4
Atom  37H    basis set group =>   4
Atom  38H    basis set group =>   4
Atom  39H    basis set group =>   4
Atom  40H    basis set group =>   4


           ************************************************************
           *        Program running with 6 parallel MPI-processes     *
           *              working on a common directory               *
           ************************************************************
------------------------------------------------------------------------------
                             ORCA STARTUP CALCULATIONS
                           -- RI-GTO INTEGRALS CHOSEN --
------------------------------------------------------------------------------
------------------------------------------------------------------------------
                   ___                                                        
                  /   \      - P O W E R E D   B Y -                         
                 /     \                                                     
                 |  |  |   _    _      __       _____    __    __             
                 |  |  |  | |  | |    /  \     |  _  \  |  |  /  |          
                  \  \/   | |  | |   /    \    | | | |  |  | /  /          
                 / \  \   | |__| |  /  /\  \   | |_| |  |  |/  /          
                |  |  |   |  __  | /  /__\  \  |    /   |      \           
                |  |  |   | |  | | |   __   |  |    \   |  |\   \          
                \     /   | |  | | |  |  |  |  | |\  \  |  | \   \       
                 \___/    |_|  |_| |__|  |__|  |_| \__\ |__|  \__/        
                                                                              
                      - O R C A' S   B I G   F R I E N D -                    
                                      &                                       
                       - I N T E G R A L  F E E D E R -                       
                                                                              
 v1 FN, 2020, v2 2021, v3 2022-2024                                           
------------------------------------------------------------------------------


----------------------
SHARK INTEGRAL PACKAGE
----------------------

Number of atoms                             ...     41
Number of basis functions                   ...    335
Number of shells                            ...    167
Maximum angular momentum                    ...      2
Integral batch strategy                     ... SHARK/LIBINT Hybrid
RI-J (if used) integral strategy            ... SPLIT-RIJ (Revised 2003 algorithm where possible)
Printlevel                                  ...      1
Contraction scheme used                     ... SEGMENTED contraction
Prescreening option                         ... SCHWARTZ
   Thresh                                   ... 2.500e-11
   Tcut                                     ... 2.500e-12
   Tpresel                                  ... 2.500e-12 
Coulomb Range Separation                    ... NOT USED
Exchange Range Separation                   ... NOT USED
Multipole approximations                    ... NOT USED
Finite Nucleus Model                        ... NOT USED
CABS basis                                  ... NOT available
Auxiliary Coulomb fitting basis             ... AVAILABLE
   # of basis functions in Aux-J            ...    985
   # of shells in Aux-J                     ...    347
   Maximum angular momentum in Aux-J        ...      4
Auxiliary J/K fitting basis                 ... NOT available
Auxiliary Correlation fitting basis         ... NOT available
Auxiliary 'external' fitting basis          ... NOT available

Checking pre-screening integrals            ... done (  0.0 sec) Dimension = 167
Check shell pair data                       ... done (  0.0 sec)
Shell pair information
Shell pair cut-off parameter TPreSel        ...   2.5e-12
Total number of shell pairs                 ...     14028
Shell pairs after pre-screening             ...     12444
Total number of primitive shell pairs       ...     48168
Primitive shell pairs kept                  ...     29088
          la=0 lb=0:   4344 shell pairs
          la=1 lb=0:   4813 shell pairs
          la=1 lb=1:   1320 shell pairs
          la=2 lb=0:   1211 shell pairs
          la=2 lb=1:    666 shell pairs
          la=2 lb=2:     90 shell pairs

Calculating one electron integrals          ... done (  0.0 sec)
Calculating RI/J V-Matrix + Cholesky decomp.... done (  0.0 sec)
Calculating Nuclear repulsion               ... done (  0.0 sec) ENN=   1246.336177875521 Eh

Diagonalization of the overlap matrix:
Smallest eigenvalue                        ... 1.642e-03
Time for diagonalization                   ...    0.014 sec
Threshold for overlap eigenvalues          ... 1.000e-07
Number of eigenvalues below threshold      ... 0
Time for construction of square roots      ...    0.009 sec
Total time needed                          ...    0.024 sec

-------------------
DFT GRID GENERATION
-------------------

General Integration Accuracy     IntAcc      ... 4.388
Radial Grid Type                 RadialGrid  ... OptM3 with GC (2021)
Angular Grid (max. ang.)         AngularGrid ... 4 (Lebedev-302)
Angular grid pruning method      GridPruning ... 4 (adaptive)
Weight generation scheme         WeightScheme... mBecke (2022)
Basis function cutoff            BFCut       ... 1.0000e-11
Integration weight cutoff        WCut        ... 1.0000e-14
Partially contracted basis set               ... off
Rotationally invariant grid construction     ... off
Angular grids for H and He will be reduced by one unit

Total number of grid points                  ...   168983
Total number of batches                      ...     2662
Average number of points per batch           ...       63
Average number of grid points per atom       ...     4122
Initializing property integral containers    ... done (  0.0 sec)

SHARK setup successfully completed in   1.2 seconds

Maximum memory used throughout the entire STARTUP-calculation: 50.0 MB


           ************************************************************
           *        Program running with 6 parallel MPI-processes     *
           *              working on a common directory               *
           ************************************************************
-------------------------------------------------------------------------------
                                 ORCA GUESS
                   Start orbitals & Density for SCF / CASSCF
-------------------------------------------------------------------------------

------------
SCF SETTINGS
------------
Hamiltonian:
 Density Functional     Method          .... DFT(GTOs)
 Exchange Functional    Exchange        .... B88
   X-Alpha parameter    XAlpha          ....  0.666667
   Becke's b parameter  XBeta           ....  0.004200
 Correlation Functional Correlation     .... P86
 LDA part of GGA corr.  LDAOpt          .... PW91-LDA
 Gradients option       PostSCFGGA      .... off
   NL short-range parameter             ....  4.400000
 RI-approximation to the Coulomb term is turned on
   Number of AuxJ basis functions       .... 985


General Settings:
 Integral files         IntName         .... data/geom_opt_PO_BP86/83681/83681
 Hartree-Fock type      HFTyp           .... RHF
 Total Charge           Charge          ....    0
 Multiplicity           Mult            ....    1
 Number of Electrons    NEL             ....  122
 Basis Dimension        Dim             ....  335
 Nuclear Repulsion      ENuc            ....   1246.3361778755 Eh

Convergence Acceleration:
 AO-DIIS                CNVDIIS         .... on
   Start iteration      DIISMaxIt       ....    12
   Startup error        DIISStart       ....  0.200000
   # of expansion vecs  DIISMaxEq       ....     5
   Bias factor          DIISBfac        ....   1.050
   Max. coefficient     DIISMaxC        ....  10.000
 MO-DIIS                CNVKDIIS        .... off
 Trust-Rad. Augm. Hess. CNVTRAH         .... auto
   Auto Start mean grad. ratio tolernc. ....  1.125000
   Auto Start start iteration           ....    50
   Auto Start num. interpolation iter.  ....    10
   Max. Number of Micro iterations      ....    24
   Max. Number of Macro iterations      .... Maxiter - #DIIS iter
   Number of Davidson start vectors     ....     2
   Converg. threshold    (grad. norm)   ....   1.000e-05
   Grad. Scal. Fac. for Micro threshold ....   0.100
   Minimum threshold for Micro iter.    ....   1.000e-02
   NR start threshold (gradient norm)   ....   1.000e-04
   Initial trust radius                 ....   0.400
   Minimum AH scaling param. (alpha)    ....   1.000
   Maximum AH scaling param. (alpha)    .... 1000.000
   Quad. conv. algorithm                .... NR
   White noise on init. David. guess    .... on
   Maximum white noise                  ....   0.010
   Pseudo random numbers                .... off
   Inactive MOs                         .... canonical
   Orbital update algorithm             .... Taylor
   Preconditioner                       .... Diag
   Full preconditioner red. dimension   ....   250
 SOSCF                  CNVSOSCF        .... on
   Start iteration      SOSCFMaxIt      ....   150
   Startup grad/error   SOSCFStart      ....  0.003300
   Hessian update       SOSCFHessUp     .... L-BFGS
 Level Shifting         CNVShift        .... on
   Level shift para.    LevelShift      ....    0.2500
   Turn off err/grad.   ShiftErr        ....    0.0010
 Zerner damping         CNVZerner       .... off
 Static damping         CNVDamp         .... on
   Fraction old density DampFac         ....    0.7000
   Max. Damping (<1)    DampMax         ....    0.9800
   Min. Damping (>=0)   DampMin         ....    0.0000
   Turn off err/grad.   DampErr         ....    0.1000

SCF Procedure:
 Maximum # iterations   MaxIter         ....   125
 SCF integral mode      SCFMode         .... Direct
   Integral package                     .... SHARK and LIBINT hybrid scheme
 Reset frequency        DirectResetFreq ....    20
 Integral Threshold     Thresh          ....  2.500e-11 Eh
 Primitive CutOff       TCut            ....  2.500e-12 Eh

Convergence Tolerance:
 Convergence Check Mode ConvCheckMode   .... Total+1el-Energy
 Convergence forced     ConvForced      .... 0
 Energy Change          TolE            ....  1.000e-08 Eh
 1-El. energy change                    ....  1.000e-05 Eh
 Orbital Gradient       TolG            ....  1.000e-05
 Orbital Rotation angle TolX            ....  1.000e-05
 DIIS Error             TolErr          ....  5.000e-07

------------------------------
INITIAL GUESS: MODEL POTENTIAL
------------------------------
Loading Hartree-Fock densities                     ... done
Calculating cut-offs                               ... done
Initializing the effective Hamiltonian             ... done
Setting up the integral package (SHARK)            ... done
Starting the Coulomb interaction                   ... done (   0.1 sec)
Making the grid                                    ... done (   0.2 sec)
Mapping shells                                     ... done
Starting the XC term evaluation                    ... done (   0.1 sec)
  promolecular density results
     # of electrons  =    121.977117709
     EX              =   -100.618035030
     EC              =     -4.519628304
     EX+EC           =   -105.137663334
Transforming the Hamiltonian                       ... done (   0.0 sec)
Diagonalizing the Hamiltonian                      ... done (   0.0 sec)
Back transforming the eigenvectors                 ... done (   0.0 sec)
Now organizing SCF variables                       ... done
                      ------------------
                      INITIAL GUESS DONE (   0.6 sec)
                      ------------------
             **** ENERGY FILE WAS UPDATED (data/geom_opt_PO_BP86/83681/83681.en.tmp) ****
Finished Guess after   0.6 sec
Maximum memory used throughout the entire GUESS-calculation: 27.6 MB


           ************************************************************
           *        Program running with 6 parallel MPI-processes     *
           *              working on a common directory               *
           ************************************************************

-------------------------------------------------------------------------------------------
                                      ORCA LEAN-SCF
                              memory conserving SCF solver
-------------------------------------------------------------------------------------------

----------------------------------------D-I-I-S--------------------------------------------
Iteration    Energy (Eh)           Delta-E    RMSDP     MaxDP     DIISErr   Damp  Time(sec)
-------------------------------------------------------------------------------------------
               ***  Starting incremental Fock matrix formation  ***
    1    -889.0798483287942418     0.00e+00  3.59e-03  1.57e-01  3.36e-01  0.700   1.0
    2    -889.3587078647167345    -2.79e-01  2.17e-03  7.03e-02  8.10e-02  0.700   1.0
                               ***Turning on AO-DIIS***
    3    -889.4430498604704098    -8.43e-02  7.17e-04  2.00e-02  2.55e-02  0.700   1.0
    4    -889.4987223207883744    -5.57e-02  1.10e-03  4.52e-02  1.28e-02  0.000   0.9
    5    -889.6264309629930267    -1.28e-01  3.00e-04  6.08e-03  8.48e-03  0.000   0.9
                              *** Initializing SOSCF ***
---------------------------------------S-O-S-C-F--------------------------------------
Iteration    Energy (Eh)           Delta-E    RMSDP     MaxDP     MaxGrad    Time(sec)
--------------------------------------------------------------------------------------
    6    -889.6277970245048436    -1.37e-03  1.11e-04  2.80e-03  1.65e-03     1.0
               *** Restarting incremental Fock matrix formation ***
    7    -889.6278892500897655    -9.22e-05  7.44e-05  2.29e-03  2.97e-04     1.0
    8    -889.6278894011140892    -1.51e-07  2.47e-05  9.66e-04  2.91e-04     0.8
    9    -889.6278993550797622    -9.95e-06  1.93e-05  6.70e-04  6.95e-05     0.9
   10    -889.6278984254411171     9.30e-07  1.17e-05  4.82e-04  1.56e-04     0.9
   11    -889.6278996882435877    -1.26e-06  4.23e-06  1.83e-04  1.77e-05     0.8
   12    -889.6278996520861710     3.62e-08  1.93e-06  1.27e-04  1.49e-05     0.8
   13    -889.6278997090319081    -5.69e-08  8.98e-07  3.84e-05  3.62e-06     0.8
   14    -889.6278997485530908    -3.95e-08  4.39e-07  1.69e-05  3.16e-06     0.8
   15    -889.6278997301517393     1.84e-08  7.35e-08  2.35e-06  2.55e-07     0.8
                  *** Gradient check signals convergence ***

               *****************************************************
               *                     SUCCESS                       *
               *           SCF CONVERGED AFTER  15 CYCLES          *
               *****************************************************

             **** ENERGY FILE WAS UPDATED (data/geom_opt_PO_BP86/83681/83681.en.tmp) ****

----------------
TOTAL SCF ENERGY
----------------

Total Energy       :       -889.62789973015174 Eh          -24208.00586 eV

Components:
Nuclear Repulsion  :       1246.33617787552134 Eh           33914.53158 eV
Electronic Energy  :      -2135.96407760567308 Eh          -58122.53744 eV
One Electron Energy:      -3690.05575641494852 Eh         -100411.52196 eV
Two Electron Energy:       1554.09167880927566 Eh           42288.98451 eV

Virial components:
Potential Energy   :      -1771.29184783703340 Eh          -48199.30158 eV
Kinetic Energy     :        881.66394810688178 Eh           23991.29572 eV
Virial Ratio       :          2.00903286523212

DFT components:
N(Alpha)           :       61.000005134110 electrons
N(Beta)            :       61.000005134110 electrons
N(Total)           :      122.000010268221 electrons
E(X)               :     -102.612394206502 Eh       
E(C)               :       -4.491760621178 Eh       
E(XC)              :     -107.104154827680 Eh       

---------------
SCF CONVERGENCE
---------------

  Last Energy change         ...   -1.8401e-08  Tolerance :   1.0000e-08
  Last MAX-Density change    ...    2.3529e-06  Tolerance :   1.0000e-07
  Last RMS-Density change    ...    7.3535e-08  Tolerance :   5.0000e-09
  Last DIIS Error            ...    1.6471e-03  Tolerance :   5.0000e-07
  Last Orbital Gradient      ...    2.5530e-07  Tolerance :   1.0000e-05
  Last Orbital Rotation      ...    6.1260e-07  Tolerance :   1.0000e-05


----------------
ORBITAL ENERGIES
----------------

  NO   OCC          E(Eh)            E(eV) 
   0   2.0000     -76.399936     -2078.9480 
   1   2.0000     -18.696630      -508.7612 
   2   2.0000      -9.935484      -270.3583 
   3   2.0000      -9.935472      -270.3579 
   4   2.0000      -9.935427      -270.3567 
   5   2.0000      -9.911895      -269.7164 
   6   2.0000      -9.911887      -269.7162 
   7   2.0000      -9.911872      -269.7158 
   8   2.0000      -9.908457      -269.6228 
   9   2.0000      -9.908442      -269.6224 
  10   2.0000      -9.908430      -269.6221 
  11   2.0000      -9.900886      -269.4168 
  12   2.0000      -9.900877      -269.4166 
  13   2.0000      -9.900876      -269.4165 
  14   2.0000      -6.359397      -173.0480 
  15   2.0000      -4.580582      -124.6440 
  16   2.0000      -4.580375      -124.6383 
  17   2.0000      -4.580373      -124.6383 
  18   2.0000      -0.839324       -22.8392 
  19   2.0000      -0.746466       -20.3124 
  20   2.0000      -0.733345       -19.9553 
  21   2.0000      -0.733344       -19.9553 
  22   2.0000      -0.628704       -17.1079 
  23   2.0000      -0.622278       -16.9330 
  24   2.0000      -0.622272       -16.9329 
  25   2.0000      -0.614837       -16.7306 
  26   2.0000      -0.614835       -16.7305 
  27   2.0000      -0.604155       -16.4399 
  28   2.0000      -0.573030       -15.5929 
  29   2.0000      -0.502564       -13.6755 
  30   2.0000      -0.502561       -13.6754 
  31   2.0000      -0.460161       -12.5216 
  32   2.0000      -0.424785       -11.5590 
  33   2.0000      -0.424776       -11.5587 
  34   2.0000      -0.403331       -10.9752 
  35   2.0000      -0.403328       -10.9751 
  36   2.0000      -0.402718       -10.9585 
  37   2.0000      -0.389170       -10.5898 
  38   2.0000      -0.385393       -10.4871 
  39   2.0000      -0.385388       -10.4869 
  40   2.0000      -0.371290       -10.1033 
  41   2.0000      -0.360993        -9.8231 
  42   2.0000      -0.353075        -9.6077 
  43   2.0000      -0.353069        -9.6075 
  44   2.0000      -0.342352        -9.3159 
  45   2.0000      -0.342347        -9.3157 
  46   2.0000      -0.333056        -9.0629 
  47   2.0000      -0.325111        -8.8467 
  48   2.0000      -0.321998        -8.7620 
  49   2.0000      -0.321996        -8.7620 
  50   2.0000      -0.311511        -8.4767 
  51   2.0000      -0.308735        -8.4011 
  52   2.0000      -0.308732        -8.4010 
  53   2.0000      -0.293849        -7.9960 
  54   2.0000      -0.293848        -7.9960 
  55   2.0000      -0.278707        -7.5840 
  56   2.0000      -0.278706        -7.5840 
  57   2.0000      -0.274638        -7.4733 
  58   2.0000      -0.273669        -7.4469 
  59   2.0000      -0.199168        -5.4196 
  60   2.0000      -0.199166        -5.4196 
  61   0.0000       0.009792         0.2665 
  62   0.0000       0.025061         0.6819 
  63   0.0000       0.048630         1.3233 
  64   0.0000       0.048660         1.3241 
  65   0.0000       0.053553         1.4572 
  66   0.0000       0.053558         1.4574 
  67   0.0000       0.053746         1.4625 
  68   0.0000       0.071444         1.9441 
  69   0.0000       0.074200         2.0191 
  70   0.0000       0.074205         2.0192 
  71   0.0000       0.083865         2.2821 
*Only the first 10 virtual orbitals were printed.

                    ********************************
                    * MULLIKEN POPULATION ANALYSIS *
                    ********************************

-----------------------
MULLIKEN ATOMIC CHARGES
-----------------------
   0 C :    0.050979
   1 C :   -0.397364
   2 C :    0.034002
   3 C :    0.051800
   4 P :    0.611465
   5 O :   -0.477199
   6 C :   -0.398137
   7 C :    0.034038
   8 C :    0.051273
   9 C :    0.051879
  10 C :   -0.398332
  11 C :    0.052172
  12 C :    0.033942
  13 C :    0.051388
  14 H :    0.014761
  15 H :    0.003993
  16 H :    0.046386
  17 H :    0.019509
  18 H :    0.051335
  19 H :    0.022269
  20 H :    0.016920
  21 H :    0.025273
  22 H :    0.015587
  23 H :    0.019532
  24 H :    0.051344
  25 H :    0.022336
  26 H :    0.003946
  27 H :    0.014797
  28 H :    0.046370
  29 H :    0.016890
  30 H :    0.015571
  31 H :    0.025341
  32 H :    0.025330
  33 H :    0.015497
  34 H :    0.016865
  35 H :    0.019568
  36 H :    0.051359
  37 H :    0.022333
  38 H :    0.014766
  39 H :    0.046302
  40 H :    0.003916
Sum of atomic charges:   -0.0000000

--------------------------------
MULLIKEN REDUCED ORBITAL CHARGES
--------------------------------
  0 C s       :     2.986947  s :     2.986947
      pz      :     0.990415  p :     2.936491
      px      :     0.981826
      py      :     0.964250
      dz2     :     0.007468  d :     0.025583
      dxz     :     0.003501
      dyz     :     0.003706
      dx2y2   :     0.009116
      dxy     :     0.001792

  1 C s       :     3.266171  s :     3.266171
      pz      :     1.017799  p :     3.088440
      px      :     1.034027
      py      :     1.036614
      dz2     :     0.010215  d :     0.042753
      dxz     :     0.009611
      dyz     :     0.006919
      dx2y2   :     0.010158
      dxy     :     0.005849

  2 C s       :     2.997057  s :     2.997057
      pz      :     1.010252  p :     2.942600
      px      :     0.946117
      py      :     0.986231
      dz2     :     0.004643  d :     0.026341
      dxz     :     0.008094
      dyz     :     0.002633
      dx2y2   :     0.007520
      dxy     :     0.003452

  3 C s       :     2.972097  s :     2.972097
      pz      :     0.959339  p :     2.949620
      px      :     1.003035
      py      :     0.987245
      dz2     :     0.006635  d :     0.026483
      dxz     :     0.005744
      dyz     :     0.004307
      dx2y2   :     0.008120
      dxy     :     0.001677

  4 P s       :     5.292710  s :     5.292710
      pz      :     2.797837  p :     8.660797
      px      :     2.936877
      py      :     2.926084
      dz2     :     0.093144  d :     0.435027
      dxz     :     0.135097
      dyz     :     0.094235
      dx2y2   :     0.075952
      dxy     :     0.036599

  5 O s       :     3.823210  s :     3.823210
      pz      :     1.366445  p :     4.642179
      px      :     1.648718
      py      :     1.627016
      dz2     :     0.004698  d :     0.011809
      dxz     :     0.003055
      dyz     :     0.003471
      dx2y2   :     0.000268
      dxy     :     0.000316

  6 C s       :     3.266297  s :     3.266297
      pz      :     1.010140  p :     3.089088
      px      :     1.036330
      py      :     1.042618
      dz2     :     0.010441  d :     0.042753
      dxz     :     0.007633
      dyz     :     0.008474
      dx2y2   :     0.008174
      dxy     :     0.008031

  7 C s       :     2.997001  s :     2.997001
      pz      :     1.012287  p :     2.942619
      px      :     0.942505
      py      :     0.987828
      dz2     :     0.008080  d :     0.026342
      dxz     :     0.002639
      dyz     :     0.003409
      dx2y2   :     0.007290
      dxy     :     0.004925

  8 C s       :     2.986782  s :     2.986782
      pz      :     1.029014  p :     2.936362
      px      :     0.986378
      py      :     0.920970
      dz2     :     0.007650  d :     0.025582
      dxz     :     0.002135
      dyz     :     0.003892
      dx2y2   :     0.004962
      dxy     :     0.006943

  9 C s       :     2.972017  s :     2.972017
      pz      :     0.942923  p :     2.949620
      px      :     1.005085
      py      :     1.001613
      dz2     :     0.005700  d :     0.026484
      dxz     :     0.005598
      dyz     :     0.006395
      dx2y2   :     0.004685
      dxy     :     0.004106

 10 C s       :     3.266387  s :     3.266387
      pz      :     1.017538  p :     3.089194
      px      :     1.042916
      py      :     1.028739
      dz2     :     0.008832  d :     0.042752
      dxz     :     0.009459
      dyz     :     0.008345
      dx2y2   :     0.008513
      dxy     :     0.007602

 11 C s       :     2.971914  s :     2.971914
      pz      :     0.951215  p :     2.949431
      px      :     0.995230
      py      :     1.002986
      dz2     :     0.005129  d :     0.026483
      dxz     :     0.008469
      dyz     :     0.003703
      dx2y2   :     0.005302
      dxy     :     0.003881

 12 C s       :     2.997000  s :     2.997000
      pz      :     1.007048  p :     2.942715
      px      :     1.005342
      py      :     0.930324
      dz2     :     0.003878  d :     0.026343
      dxz     :     0.005932
      dyz     :     0.005811
      dx2y2   :     0.005134
      dxy     :     0.005589

 13 C s       :     2.986751  s :     2.986751
      pz      :     1.005956  p :     2.936279
      px      :     0.918266
      py      :     1.012057
      dz2     :     0.006348  d :     0.025582
      dxz     :     0.004899
      dyz     :     0.003243
      dx2y2   :     0.005124
      dxy     :     0.005968

 14 H s       :     0.962055  s :     0.962055
      pz      :     0.004993  p :     0.023184
      px      :     0.005475
      py      :     0.012716

 15 H s       :     0.971574  s :     0.971574
      pz      :     0.005222  p :     0.024432
      px      :     0.012995
      py      :     0.006215

 16 H s       :     0.930148  s :     0.930148
      pz      :     0.010983  p :     0.023466
      px      :     0.005395
      py      :     0.007088

 17 H s       :     0.957379  s :     0.957379
      pz      :     0.005899  p :     0.023113
      px      :     0.004315
      py      :     0.012899

 18 H s       :     0.925622  s :     0.925622
      pz      :     0.010808  p :     0.023043
      px      :     0.005299
      py      :     0.006935

 19 H s       :     0.953914  s :     0.953914
      pz      :     0.009629  p :     0.023817
      px      :     0.007925
      py      :     0.006263

 20 H s       :     0.960079  s :     0.960079
      pz      :     0.004495  p :     0.023001
      px      :     0.005707
      py      :     0.012799

 21 H s       :     0.950989  s :     0.950989
      pz      :     0.005027  p :     0.023738
      px      :     0.012843
      py      :     0.005868

 22 H s       :     0.960684  s :     0.960684
      pz      :     0.009301  p :     0.023730
      px      :     0.007667
      py      :     0.006761

 23 H s       :     0.957356  s :     0.957356
      pz      :     0.005817  p :     0.023113
      px      :     0.010608
      py      :     0.006687

 24 H s       :     0.925617  s :     0.925617
      pz      :     0.013160  p :     0.023039
      px      :     0.004723
      py      :     0.005156

 25 H s       :     0.953847  s :     0.953847
      pz      :     0.006612  p :     0.023817
      px      :     0.005091
      py      :     0.012113

 26 H s       :     0.971622  s :     0.971622
      pz      :     0.006817  p :     0.024432
      px      :     0.009520
      py      :     0.008095

 27 H s       :     0.962017  s :     0.962017
      pz      :     0.006076  p :     0.023186
      px      :     0.012000
      py      :     0.005110

 28 H s       :     0.930165  s :     0.930165
      pz      :     0.013560  p :     0.023464
      px      :     0.005692
      py      :     0.004212

 29 H s       :     0.960107  s :     0.960107
      pz      :     0.004920  p :     0.023003
      px      :     0.011980
      py      :     0.006104

 30 H s       :     0.960703  s :     0.960703
      pz      :     0.005630  p :     0.023726
      px      :     0.006135
      py      :     0.011960

 31 H s       :     0.950922  s :     0.950922
      pz      :     0.005722  p :     0.023737
      px      :     0.009044
      py      :     0.008972

 32 H s       :     0.950933  s :     0.950933
      pz      :     0.004712  p :     0.023737
      px      :     0.006487
      py      :     0.012538

 33 H s       :     0.960770  s :     0.960770
      pz      :     0.007381  p :     0.023733
      px      :     0.010720
      py      :     0.005632

 34 H s       :     0.960133  s :     0.960133
      pz      :     0.006198  p :     0.023002
      px      :     0.009455
      py      :     0.007350

 35 H s       :     0.957320  s :     0.957320
      pz      :     0.006442  p :     0.023112
      px      :     0.010964
      py      :     0.005707

 36 H s       :     0.925603  s :     0.925603
      pz      :     0.011457  p :     0.023038
      px      :     0.006082
      py      :     0.005500

 37 H s       :     0.953849  s :     0.953849
      pz      :     0.008971  p :     0.023819
      px      :     0.010021
      py      :     0.004827

 38 H s       :     0.962050  s :     0.962050
      pz      :     0.006275  p :     0.023184
      px      :     0.008980
      py      :     0.007930

 39 H s       :     0.930231  s :     0.930231
      pz      :     0.012288  p :     0.023467
      px      :     0.004893
      py      :     0.006285

 40 H s       :     0.971649  s :     0.971649
      pz      :     0.005627  p :     0.024436
      px      :     0.005710
      py      :     0.013099



                     *******************************
                     * LOEWDIN POPULATION ANALYSIS *
                     *******************************

----------------------
LOEWDIN ATOMIC CHARGES
----------------------
   0 C :   -0.056947
   1 C :   -0.181146
   2 C :   -0.056389
   3 C :   -0.064736
   4 P :    0.900203
   5 O :   -0.509429
   6 C :   -0.181211
   7 C :   -0.056400
   8 C :   -0.056922
   9 C :   -0.064745
  10 C :   -0.181219
  11 C :   -0.064707
  12 C :   -0.056418
  13 C :   -0.056899
  14 H :    0.025778
  15 H :    0.020166
  16 H :    0.033506
  17 H :    0.028887
  18 H :    0.032242
  19 H :    0.016847
  20 H :    0.029359
  21 H :    0.020527
  22 H :    0.021653
  23 H :    0.028899
  24 H :    0.032251
  25 H :    0.016858
  26 H :    0.020163
  27 H :    0.025780
  28 H :    0.033515
  29 H :    0.029355
  30 H :    0.021655
  31 H :    0.020544
  32 H :    0.020549
  33 H :    0.021637
  34 H :    0.029343
  35 H :    0.028911
  36 H :    0.032255
  37 H :    0.016858
  38 H :    0.025768
  39 H :    0.033502
  40 H :    0.020155

-------------------------------
LOEWDIN REDUCED ORBITAL CHARGES
-------------------------------
  0 C s       :     2.844460  s :     2.844460
      pz      :     1.042354  p :     3.143365
      px      :     1.046518
      py      :     1.054493
      dz2     :     0.018949  d :     0.069122
      dxz     :     0.010666
      dyz     :     0.010654
      dx2y2   :     0.023653
      dxy     :     0.005201

  1 C s       :     2.907642  s :     2.907642
      pz      :     1.046652  p :     3.175427
      px      :     1.051598
      py      :     1.077177
      dz2     :     0.023589  d :     0.098077
      dxz     :     0.021580
      dyz     :     0.015923
      dx2y2   :     0.023993
      dxy     :     0.012992

  2 C s       :     2.844628  s :     2.844628
      pz      :     1.066236  p :     3.141050
      px      :     1.011629
      py      :     1.063185
      dz2     :     0.012885  d :     0.070710
      dxz     :     0.020712
      dyz     :     0.007217
      dx2y2   :     0.020604
      dxy     :     0.009292

  3 C s       :     2.840124  s :     2.840124
      pz      :     1.026330  p :     3.152478
      px      :     1.061353
      py      :     1.064795
      dz2     :     0.018330  d :     0.072135
      dxz     :     0.014874
      dyz     :     0.012581
      dx2y2   :     0.021809
      dxy     :     0.004540

  4 P s       :     4.991470  s :     4.991470
      pz      :     2.785607  p :     8.496046
      px      :     2.858018
      py      :     2.852420
      dz2     :     0.134853  d :     0.612282
      dxz     :     0.189506
      dyz     :     0.127257
      dx2y2   :     0.111400
      dxy     :     0.049266

  5 O s       :     3.657504  s :     3.657504
      pz      :     1.495957  p :     4.833423
      px      :     1.675638
      py      :     1.661828
      dz2     :     0.009136  d :     0.018502
      dxz     :     0.003622
      dyz     :     0.005031
      dx2y2   :     0.000331
      dxy     :     0.000382

  6 C s       :     2.907633  s :     2.907633
      pz      :     1.047148  p :     3.175499
      px      :     1.071584
      py      :     1.056767
      dz2     :     0.026812  d :     0.098079
      dxz     :     0.016207
      dyz     :     0.017197
      dx2y2   :     0.019153
      dxy     :     0.018710

  7 C s       :     2.844626  s :     2.844626
      pz      :     1.067339  p :     3.141065
      px      :     1.025580
      py      :     1.048146
      dz2     :     0.021482  d :     0.070709
      dxz     :     0.007073
      dyz     :     0.009256
      dx2y2   :     0.018344
      dxy     :     0.014552

  8 C s       :     2.844453  s :     2.844453
      pz      :     1.077688  p :     3.143347
      px      :     1.065591
      py      :     1.000067
      dz2     :     0.020413  d :     0.069122
      dxz     :     0.005679
      dyz     :     0.010352
      dx2y2   :     0.014974
      dxy     :     0.017703

  9 C s       :     2.840121  s :     2.840121
      pz      :     1.014201  p :     3.152490
      px      :     1.071902
      py      :     1.066387
      dz2     :     0.018694  d :     0.072134
      dxz     :     0.013689
      dyz     :     0.015594
      dx2y2   :     0.012931
      dxy     :     0.011226

 10 C s       :     2.907638  s :     2.907638
      pz      :     1.053125  p :     3.175501
      px      :     1.068289
      py      :     1.054087
      dz2     :     0.020474  d :     0.098080
      dxz     :     0.022698
      dyz     :     0.017971
      dx2y2   :     0.021757
      dxy     :     0.015181

 11 C s       :     2.840119  s :     2.840119
      pz      :     1.024777  p :     3.152453
      px      :     1.068031
      py      :     1.059644
      dz2     :     0.014920  d :     0.072135
      dxz     :     0.022273
      dyz     :     0.010371
      dx2y2   :     0.013972
      dxy     :     0.010599

 12 C s       :     2.844623  s :     2.844623
      pz      :     1.068380  p :     3.141088
      px      :     1.069761
      py      :     1.002947
      dz2     :     0.011359  d :     0.070707
      dxz     :     0.015902
      dyz     :     0.013924
      dx2y2   :     0.015978
      dxy     :     0.013544

 13 C s       :     2.844453  s :     2.844453
      pz      :     1.060130  p :     3.143322
      px      :     1.010601
      py      :     1.072591
      dz2     :     0.016171  d :     0.069123
      dxz     :     0.015042
      dyz     :     0.008135
      dx2y2   :     0.014707
      dxy     :     0.015068

 14 H s       :     0.907826  s :     0.907826
      pz      :     0.013601  p :     0.066396
      px      :     0.013451
      py      :     0.039344

 15 H s       :     0.909922  s :     0.909922
      pz      :     0.014572  p :     0.069912
      px      :     0.040899
      py      :     0.014441

 16 H s       :     0.897489  s :     0.897489
      pz      :     0.036317  p :     0.069005
      px      :     0.014402
      py      :     0.018285

 17 H s       :     0.904857  s :     0.904857
      pz      :     0.013848  p :     0.066256
      px      :     0.012481
      py      :     0.039927

[...]
      dz2     :     0.016545  d :     0.067362
      dxz     :     0.015786
      dyz     :     0.006212
      dx2y2   :     0.011968
      dxy     :     0.016851

 14 H s       :     0.909686  s :     0.909686
      pz      :     0.013574  p :     0.064475
      px      :     0.013169
      py      :     0.037731

 15 H s       :     0.909067  s :     0.909067
      pz      :     0.013860  p :     0.067305
      px      :     0.040290
      py      :     0.013154

 16 H s       :     0.895615  s :     0.895615
      pz      :     0.033428  p :     0.068961
      px      :     0.013528
      py      :     0.022005

 17 H s       :     0.906635  s :     0.906635
      pz      :     0.012672  p :     0.064322
      px      :     0.012025
      py      :     0.039624

 18 H s       :     0.899042  s :     0.899042
      pz      :     0.033858  p :     0.066074
      px      :     0.015356
      py      :     0.016860

 19 H s       :     0.912976  s :     0.912976
      pz      :     0.028409  p :     0.067186
      px      :     0.024188
      py      :     0.014589

 20 H s       :     0.904140  s :     0.904140
      pz      :     0.012228  p :     0.064283
      px      :     0.012503
      py      :     0.039552

 21 H s       :     0.910290  s :     0.910290
      pz      :     0.013545  p :     0.066638
      px      :     0.039174
      py      :     0.013918

 22 H s       :     0.908387  s :     0.908387
      pz      :     0.029290  p :     0.065843
      px      :     0.020790
      py      :     0.015763

 23 H s       :     0.906622  s :     0.906622
      pz      :     0.013909  p :     0.064339
      px      :     0.033470
      py      :     0.016961

 24 H s       :     0.898911  s :     0.898911
      pz      :     0.041674  p :     0.066155
      px      :     0.012401
      py      :     0.012079

 25 H s       :     0.913083  s :     0.913083
      pz      :     0.017013  p :     0.067092
      px      :     0.012891
      py      :     0.037188

 26 H s       :     0.909126  s :     0.909126
      pz      :     0.018446  p :     0.067282
      px      :     0.022843
      py      :     0.025993

 27 H s       :     0.909637  s :     0.909637
      pz      :     0.013625  p :     0.064479
      px      :     0.036865
      py      :     0.013989

 28 H s       :     0.895630  s :     0.895630
      pz      :     0.042605  p :     0.068996
      px      :     0.014206
      py      :     0.012186

 29 H s       :     0.904102  s :     0.904102
      pz      :     0.014869  p :     0.064274
      px      :     0.034520
      py      :     0.014885

 30 H s       :     0.908389  s :     0.908389
      pz      :     0.017082  p :     0.065872
      px      :     0.013202
      py      :     0.035587

 31 H s       :     0.910339  s :     0.910339
      pz      :     0.017092  p :     0.066568
      px      :     0.025446
      py      :     0.024029

 32 H s       :     0.910179  s :     0.910179
      pz      :     0.013017  p :     0.066716
      px      :     0.014805
      py      :     0.038894

 33 H s       :     0.908397  s :     0.908397
      pz      :     0.023841  p :     0.065801
      px      :     0.029215
      py      :     0.012745

 34 H s       :     0.904079  s :     0.904079
      pz      :     0.017558  p :     0.064269
      px      :     0.028445
      py      :     0.018266

 35 H s       :     0.906580  s :     0.906580
      pz      :     0.015150  p :     0.064338
      px      :     0.031534
      py      :     0.017655

 36 H s       :     0.898949  s :     0.898949
      pz      :     0.034835  p :     0.066155
      px      :     0.013796
      py      :     0.017524

 37 H s       :     0.913159  s :     0.913159
      pz      :     0.025334  p :     0.066967
      px      :     0.027726
      py      :     0.013907

 38 H s       :     0.909756  s :     0.909756
      pz      :     0.015583  p :     0.064481
      px      :     0.026778
      py      :     0.022120

 39 H s       :     0.895558  s :     0.895558
      pz      :     0.039238  p :     0.068973
      px      :     0.015305
      py      :     0.014431

 40 H s       :     0.908949  s :     0.908949
      pz      :     0.013311  p :     0.067400
      px      :     0.016217
      py      :     0.037871



                      *****************************
                      * MAYER POPULATION ANALYSIS *
                      *****************************

  NA   - Mulliken gross atomic population
  ZA   - Total nuclear charge
  QA   - Mulliken gross atomic charge
  VA   - Mayer's total valence
  BVA  - Mayer's bonded valence
  FA   - Mayer's free valence

  ATOM       NA         ZA         QA         VA         BVA        FA
  0 C      5.9688     6.0000     0.0312     3.9021     3.9021    -0.0000
  1 C      6.4076     6.0000    -0.4076     4.1153     4.1153    -0.0000
  2 C      5.9856     6.0000     0.0144     3.9161     3.9161    -0.0000
  3 C      5.9644     6.0000     0.0356     3.8874     3.8874    -0.0000
  4 P     14.3758    15.0000     0.6242     4.4584     4.4584    -0.0000
  5 O      8.4780     8.0000    -0.4780     2.1256     2.1256    -0.0000
  6 C      6.4073     6.0000    -0.4073     4.1165     4.1165    -0.0000
  7 C      5.9854     6.0000     0.0146     3.9153     3.9153    -0.0000
  8 C      5.9693     6.0000     0.0307     3.9019     3.9019    -0.0000
  9 C      5.9641     6.0000     0.0359     3.8876     3.8876    -0.0000
 10 C      6.4081     6.0000    -0.4081     4.1164     4.1164    -0.0000
 11 C      5.9643     6.0000     0.0357     3.8874     3.8874    -0.0000
 12 C      5.9849     6.0000     0.0151     3.9157     3.9157    -0.0000
 13 C      5.9687     6.0000     0.0313     3.9018     3.9018    -0.0000
 14 H      0.9822     1.0000     0.0178     0.9948     0.9948    -0.0000
 15 H      0.9854     1.0000     0.0146     1.0131     1.0131    -0.0000
 16 H      0.9429     1.0000     0.0571     1.0277     1.0277    -0.0000
 17 H      0.9767     1.0000     0.0233     0.9966     0.9966    -0.0000
 18 H      0.9444     1.0000     0.0556     1.0044     1.0044     0.0000
 19 H      0.9691     1.0000     0.0309     1.0021     1.0021    -0.0000
 20 H      0.9773     1.0000     0.0227     0.9961     0.9961    -0.0000
 21 H      0.9686     1.0000     0.0314     1.0077     1.0077     0.0000
 22 H      0.9758     1.0000     0.0242     1.0117     1.0117    -0.0000
 23 H      0.9766     1.0000     0.0234     0.9966     0.9966    -0.0000
 24 H      0.9443     1.0000     0.0557     1.0053     1.0053    -0.0000
 25 H      0.9691     1.0000     0.0309     1.0019     1.0019    -0.0000
 26 H      0.9852     1.0000     0.0148     1.0129     1.0129    -0.0000
 27 H      0.9821     1.0000     0.0179     0.9948     0.9948     0.0000
 28 H      0.9429     1.0000     0.0571     1.0278     1.0278     0.0000
 29 H      0.9772     1.0000     0.0228     0.9960     0.9960    -0.0000
 30 H      0.9763     1.0000     0.0237     1.0120     1.0120    -0.0000
 31 H      0.9687     1.0000     0.0313     1.0077     1.0077    -0.0000
 32 H      0.9685     1.0000     0.0315     1.0080     1.0080    -0.0000
 33 H      0.9761     1.0000     0.0239     1.0115     1.0115    -0.0000
 34 H      0.9771     1.0000     0.0229     0.9960     0.9960    -0.0000
 35 H      0.9768     1.0000     0.0232     0.9967     0.9967     0.0000
 36 H      0.9446     1.0000     0.0554     1.0053     1.0053     0.0000
 37 H      0.9692     1.0000     0.0308     1.0016     1.0016     0.0000
 38 H      0.9821     1.0000     0.0179     0.9946     0.9946     0.0000
 39 H      0.9431     1.0000     0.0569     1.0277     1.0277     0.0000
 40 H      0.9855     1.0000     0.0145     1.0135     1.0135    -0.0000

  Mayer bond orders larger than 0.100000
B(  0-C ,  1-C ) :   1.0227 B(  0-C , 14-H ) :   0.9494 B(  0-C , 15-H ) :   0.9545 
B(  0-C , 16-H ) :   0.9441 B(  1-C ,  2-C ) :   1.0358 B(  1-C ,  3-C ) :   1.0177 
B(  1-C ,  4-P ) :   0.8410 B(  2-C , 17-H ) :   0.9418 B(  2-C , 18-H ) :   0.9502 
B(  2-C , 19-H ) :   0.9476 B(  3-C , 20-H ) :   0.9412 B(  3-C , 21-H ) :   0.9475 
B(  3-C , 22-H ) :   0.9528 B(  4-P ,  5-O ) :   1.7798 B(  4-P ,  6-C ) :   0.8422 
B(  4-P , 10-C ) :   0.8421 B(  6-C ,  7-C ) :   1.0356 B(  6-C ,  8-C ) :   1.0227 
B(  6-C ,  9-C ) :   1.0179 B(  7-C , 23-H ) :   0.9420 B(  7-C , 24-H ) :   0.9499 
B(  7-C , 25-H ) :   0.9479 B(  8-C , 26-H ) :   0.9544 B(  8-C , 27-H ) :   0.9493 
B(  8-C , 28-H ) :   0.9441 B(  9-C , 29-H ) :   0.9414 B(  9-C , 30-H ) :   0.9528 
B(  9-C , 31-H ) :   0.9477 B( 10-C , 11-C ) :   1.0181 B( 10-C , 12-C ) :   1.0357 
B( 10-C , 13-C ) :   1.0222 B( 11-C , 32-H ) :   0.9473 B( 11-C , 33-H ) :   0.9527 
B( 11-C , 34-H ) :   0.9413 B( 12-C , 35-H ) :   0.9422 B( 12-C , 36-H ) :   0.9498 
B( 12-C , 37-H ) :   0.9479 B( 13-C , 38-H ) :   0.9492 B( 13-C , 39-H ) :   0.9443 
B( 13-C , 40-H ) :   0.9544 

-------
TIMINGS
-------

Total SCF time: 0 days 0 hours 0 min 6 sec 

Total time                  ....       6.173 sec
Sum of individual times     ....       6.087 sec  ( 98.6%)

SCF preparation             ....       0.129 sec  (  2.1%)
Fock matrix formation       ....       5.522 sec  ( 89.5%)
  Startup                   ....       0.024 sec  (  0.4% of F)
  Split-RI-J                ....       1.714 sec  ( 31.0% of F)
  XC integration            ....       3.692 sec  ( 66.9% of F)
    Basis function eval.    ....       1.060 sec  ( 28.7% of XC)
    Density eval.           ....       1.182 sec  ( 32.0% of XC)
    XC-Functional eval.     ....       0.094 sec  (  2.5% of XC)
    XC-Potential eval.      ....       0.761 sec  ( 20.6% of XC)
Diagonalization             ....       0.000 sec  (  0.0%)
Density matrix formation    ....       0.054 sec  (  0.9%)
Total Energy calculation    ....       0.020 sec  (  0.3%)
Population analysis         ....       0.094 sec  (  1.5%)
Orbital Transformation      ....       0.033 sec  (  0.5%)
Orbital Orthonormalization  ....       0.000 sec  (  0.0%)
DIIS solution               ....       0.040 sec  (  0.6%)
SOSCF solution              ....       0.195 sec  (  3.2%)
Finished LeanSCF after   6.2 sec

Maximum memory used throughout the entire LEANSCF-calculation: 40.9 MB


-------------------------------------------------------------------------------
                          DFT DISPERSION CORRECTION                            
                                                                               
                              DFTD3 V3.1  Rev 1                                
                          USING Becke-Johnson damping                          
-------------------------------------------------------------------------------
The BP86 functional is recognized
Active option DFTDOPT                   ...         4   

molecular C6(AA) [au] = 13041.630064 


            DFT-D V3
 parameters
 s6 scaling factor         :     1.0000 
 a1 scaling factor         :     0.3946 
 s8 scaling factor         :     3.2822 
 a2 scaling factor         :     4.8516 
 ad hoc parameters k1-k3   :    16.0000     1.3333    -4.0000 

 Edisp/kcal,au: -54.544794620371  -0.086922653851 
 E6   /kcal   : -20.964877495 
 E8   /kcal   : -33.579917125 
 % E8         :  61.563926235 

-------------------------   ----------------
Dispersion correction           -0.086922654
-------------------------   ----------------


-------------------------   --------------------
FINAL SINGLE POINT ENERGY      -889.728257486281
-------------------------   --------------------

                                *** OPTIMIZATION RUN DONE ***



           ************************************************************
           *        Program running with 6 parallel MPI-processes     *
           *              working on a common directory               *
           ************************************************************

------------------------------------------------------------------------------
                              ORCA PROPERTY CALCULATIONS
------------------------------------------------------------------------------

GBWName                                 ... data/geom_opt_PO_BP86/83681/83681.gbw
Number of atoms                         ...     41
Number of basis functions               ...    335
Max core memory                         ...   1024 MB

Electric properties:
Dipole moment                           ... YES
Quadrupole moment                       ...  NO
Static polarizability (Dipole/Dipole)   ...  NO
Static polarizability (Dipole/Quad.)    ...  NO
Static polarizability (Quad./Quad.)     ...  NO
Static polarizability (Velocity)        ...  NO

Atomic electric properties:
Dipole moment                           ...  NO
Quadrupole moment                       ...  NO
Static polarizability                   ...  NO

Choice of electric origin               ... Center of mass
Position of electric origin             ...    -0.020820     0.114113     0.402195

General magnetic properties:
Magnetizability                         ...  NO

EPR properties:
g-Tensor (aka g-matrix)                 ...  NO
Zero-Field splitting spin-orbit         ...  NO
Zero-field splitting spin-spin          ...  NO
Hyperfine couplings                     ...  NO (   0 nuclei)
Quadrupole couplings                    ...  NO (   0 nuclei)
Contact density                         ...  NO (   0 nuclei)

NMR properties:
Chemical shifts                         ...  NO (   0 nuclei)
Spin-rotation constants                 ...  NO (   0 nuclei)
Spin-spin couplings                     ...  NO (   0 nuclei,    0 pairs)

Choice of magnetic origin               ... GIAO
Position of magnetic origin             ...     0.000000     0.000000     0.000000

Properties with geometric perturbations:
SCF Hessian                             ...  NO
IR spectrum                             ...  NO
VCD spectrum                            ...  NO
X-ray spectroscopy properties:
SCF XES/XAS/RIXS spectra                ...  NO


-------------
DIPOLE MOMENT
-------------

Method             : SCF
Type of density    : Electron Density
Multiplicity       :   1
Irrep              :   0
Energy             :  -889.6413348324304025 Eh
Relativity type    : 
Basis              : AO
                                X                 Y                 Z
Electronic contribution:     -0.346251096       1.903144795       6.701260426
Nuclear contribution   :      0.411352744      -2.257174890      -7.954360463
                        -----------------------------------------
Total Dipole Moment    :      0.065101647      -0.354030095      -1.253100037
                        -----------------------------------------
Magnitude (a.u.)       :      1.303777295
Magnitude (Debye)      :      3.313938521



--------------------
Rotational spectrum 
--------------------
 
Rotational constants in cm-1:             0.021754             0.021743             0.015855 
Rotational constants in MHz :           652.170313           651.825823           475.333122 

Dipole components along the rotational axes: 
x,y,z [a.u.] :    -0.002505    -0.000916    -1.303775 
x,y,z [Debye]:    -0.006368    -0.002329    -3.313932 

 

Dipole moment calculation done in   0.0 sec 

Maximum memory used throughout the entire PROP-calculation: 20.1 MB

--------------------------------
SUGGESTED CITATIONS FOR THIS RUN
--------------------------------

Below you find a list of papers that are relevant to this ORCA run
We neither can nor want to force you to cite these papers, but we appreciate if you do
You receive ORCA, which is the product of decades of hard work by many enthusiastic individuals, for free
The only thing we kindly ask in return is that you cite our papers,
We deeply appreciate it, if you show your appreciation for ORCA by not just citing the generic ORCA reference.

Please note that relegating all ORCA citations to the supporting information does *not* help us.
SI sections are not indexed - citations you put there will not count into any citation statistics
But we need these citations in order to attract the funding resources that allow us to do what we are doing

Therefore, if you are a happy ORCA user, please consider citing a few of the papers listed below in the main body of your paper

In addition to the list printed below, the program has created the file data/geom_opt_PO_BP86/83681/83681.bibtex that contains the list in bibtex format
You can import this file easily into all common literature databanks and citation aid programs


List of essential papers. We consider these as the minimum necessary citations

  1. Neese,F.
     Software update: the ORCA program system, version 5.0
     WIRES Comput. Molec. Sci., 2022 12(1)e1606
     doi.org/10.1002/wcms.1606

List of papers to cite with high priority. The work reported in these papers was absolutely
necessary for this run to complete.
Our perspective: the developers of density functionals and basis sets usually get cited in chemistry papers
Good! But without the algorithms to do something with them, the functionals or basis sets would not do anything.
Hence, in our opinion, the algorithm design and method developments papers are equally worthy of getting cited

  1. Neese,F.
     An improvement of the resolution of the identity approximation for the formation of the Coulomb matrix
     J. Comp. Chem., 2003 24(14)1740-1747
     doi.org/10.1002/jcc.10318
  2. Neese,F.
     The SHARK Integral Generation and Digestion System
     J. Comp. Chem., 2022  1-16
     doi.org/10.1002/jcc.26942
  3. Grimme,S.; Antony,J.; Ehrlich,S.; Krieg,H.
     A consistent and accurate ab initio parametrization of density functional dispersion correction (DFT-D) for the 94 elements H-Pu
     J. Chem. Phys., 2010 132 154104-XXXX
     doi.org/10.1063/1.3382344
  4. Grimme,S.; Ehrlich,S.; Goerigk,L.
     Effect of the damping function in dispersion corrected density functional theory
     J. Comput. Chem., 2011 32(7)1456-1465
     doi.org/10.1002/jcc.21759

List of suggested additional citations. These are papers that are important in the 'surrounding' of 
of this run, or papers that preceded the highly important papers. If you like your results we are grateful for a citation.

  1. Neese,F.
     The ORCA program system
     WIRES Comput. Molec. Sci., 2012 2(1)73-78
     doi.org/10.1002/wcms.81
  2. Neese,F.
     Software update: the ORCA program system, version 4.0
     WIRES Comput. Molec. Sci., 2018 8(1)1-6
     doi.org/10.1002/wcms.1327
  3. Neese,F.; Wennmohs,F.; Becker,U.; Riplinger,C.
     The ORCA quantum chemistry program package
     J. Chem. Phys., 2020 152 Art. No. L224108
     doi.org/10.1063/5.0004608

List of optional additional citations

  1. Neese,F.
     Approximate second-order SCF convergence for spin unrestricted wavefunctions
     Chem. Phys. Lett., 2000 325(1-3)93-98
     doi.org/10.1016/s0009-2614(00)00662-x

Timings for individual modules:

Sum of individual times          ...      228.850 sec (=   3.814 min)
Startup calculation              ...       17.943 sec (=   0.299 min)   7.8 %
SCF iterations                   ...      128.821 sec (=   2.147 min)  56.3 %
Property calculations            ...        0.183 sec (=   0.003 min)   0.1 %
SCF Gradient evaluation          ...       81.630 sec (=   1.360 min)  35.7 %
Geometry relaxation              ...        0.273 sec (=   0.005 min)   0.1 %
                             ****ORCA TERMINATED NORMALLY****
TOTAL RUN TIME: 0 days 0 hours 3 minutes 51 seconds 569 msec
