
                                 *****************
                                 * O   R   C   A *
                                 *****************

                                            #,                                       
                                            ###                                      
                                            ####                                     
                                            #####                                    
                                            ######                                   
                                           ########,                                 
                                     ,,################,,,,,                         
                               ,,#################################,,                 
                          ,,##########################################,,             
                       ,#########################################, ''#####,          
                    ,#############################################,,   '####,        
                  ,##################################################,,,,####,       
                ,###########''''           ''''###############################       
              ,#####''   ,,,,##########,,,,          '''####'''          '####       
            ,##' ,,,,###########################,,,                        '##       
           ' ,,###''''                  '''############,,,                           
         ,,##''                                '''############,,,,        ,,,,,,###''
      ,#''                                            '''#######################'''  
     '                                                          ''''####''''         
             ,#######,   #######,   ,#######,      ##                                
            ,#'     '#,  ##    ##  ,#'     '#,    #''#        ,####,   ,####,        
            ##       ##  ##   ,#'  ##            #'  '#       #'       #'  '#        
            ##       ##  #######   ##           ,######,      #####,   #    #        
            '#,     ,#'  ##    ##  '#,     ,#' ,#      #,     #,   #   #,  ,#        
             '#######'   ##     ##  '#######'  #'      '#     '####' # '####'        



                #########################################################
                #                        -***-                          #
                #          Department of theory and spectroscopy        #
                #                                                       #
                #                      Frank Neese                      #
                #                                                       #
                #     Directorship, Architecture, Infrastructure        #
                #                    SHARK, DRIVERS                     #
                #        Core code/Algorithms in most modules           #
                #                                                       #
                #        Max Planck Institute fuer Kohlenforschung      #
                #                Kaiser Wilhelm Platz 1                 #
                #                 D-45470 Muelheim/Ruhr                 #
                #                      Germany                          #
                #                                                       #
                #                  All rights reserved                  #
                #                        -***-                          #
                #########################################################


                         Program Version 6.0.0  -   RELEASE   -


 With contributions from (in alphabetic order):
   Daniel Aravena         : Magnetic Suceptibility
   Michael Atanasov       : Ab Initio Ligand Field Theory (pilot matlab implementation)
   Alexander A. Auer      : GIAO ZORA, VPT2 properties, NMR spectrum
   Ute Becker             : All parallelization in ORCA, NUMFREQ, NUMCALC
   Giovanni Bistoni       : ED, misc. LED, open-shell LED, HFLD
   Martin Brehm           : Molecular dynamics
   Dmytro Bykov           : pre 5.0 version of the SCF Hessian
   Marcos Casanova-Páez   : Triplet and SCS-CIS(D). UHF-(DLPNO)-IP/EA/STEOM-CCSD. UHF-CVS-IP/STEOM-CCSD
   Vijay G. Chilkuri      : MRCI spin determinant printing, contributions to CSF-ICE
   Pauline Colinet        : FMM embedding
   Dipayan Datta          : RHF DLPNO-CCSD density
   Achintya Kumar Dutta   : EOM-CC, STEOM-CC
   Nicolas Foglia         : Exact transition moments, OPA infrastructure, MCD improvements
   Dmitry Ganyushin       : Spin-Orbit,Spin-Spin,Magnetic field MRCI
   Miquel Garcia          : C-PCM and meta-GGA Hessian, CCSD/C-PCM, Gaussian charge scheme
   Tiago L. C. Gouveia    : GS-ROHF, GS-ROCIS
   Yang Guo               : DLPNO-NEVPT2, F12-NEVPT2, CIM, IAO-localization
   Andreas Hansen         : Spin unrestricted coupled pair/coupled cluster methods
   Ingolf Harden          : AUTO-CI MPn and infrastructure 
   Benjamin Helmich-Paris : MC-RPA, TRAH-(SCF,CASSCF), AVAS, COSX integrals, SCF dyn. polar.
   Lee Huntington         : MR-EOM, pCC
   Robert Izsak           : Overlap fitted RIJCOSX, COSX-SCS-MP3, EOM
   Riya Kayal             : Wick's Theorem for AUTO-CI, AUTO-CI UHF-CCSDT
   Emily Kempfer          : AUTO-CI, RHF CISDT and CCSDT
   Christian Kollmar      : KDIIS, OOCD, Brueckner-CCSD(T), CCSD density, CASPT2, CASPT2-K, improved NEVPT2
   Axel Koslowski         : Symmetry handling
   Simone Kossmann        : Meta GGA functionals, TD-DFT gradient, OOMP2, (MP2 Hessian; deprecated post 5.0)
   Lucas Lang             : DCDCAS
   Marvin Lechner         : AUTO-CI (C++ implementation), FIC-MRCC
   Spencer Leger          : CASSCF response
   Dagmar Lenk            : GEPOL surface, SMD, ORCA-2-JSON
   Dimitrios Liakos       : Extrapolation schemes; Compound Job, initial MDCI parallelization
   Dimitrios Manganas     : Further ROCIS development; embedding schemes. LFT, Crystal Embedding
   Dimitrios Pantazis     : SARC Basis sets
   Anastasios Papadopoulos: AUTO-CI, single reference methods and gradients
   Taras Petrenko         : pre 6.0 DFT Hessian and TD-DFT gradient, (ASA, deprecated), ECA, 1-Electron XAS/XES, NRVS
   Peter Pinski           : DLPNO-MP2, DLPNO-MP2 Gradient
   Christoph Reimann      : Effective Core Potentials
   Marius Retegan         : Local ZFS, SOC
   Christoph Riplinger    : Optimizer, TS searches, QM/MM, DLPNO-CCSD(T), (RO)-DLPNO pert. Triples
   Michael Roemelt        : Original ROCIS implementation
   Masaaki Saitow         : Open-shell DLPNO-CCSD energy and density
   Barbara Sandhoefer     : DKH picture change effects
   Kantharuban Sivalingam : CASSCF convergence/infrastructure, NEVPT2 and variants, FIC-MRCI
   Bernardo de Souza      : ESD, SOC TD-DFT
   Georgi Stoychev        : AutoAux, RI-MP2 NMR, DLPNO-MP2 response, X2C
   Van Anh Tran           : RI-MP2 g-tensors
   Willem Van den Heuvel  : Paramagnetic NMR
   Zikuan Wang            : NOTCH, Electric field optimization 
   Frank Wennmohs         : Technical directorship and infrastructure
   Hang Xu                : AUTO-CI-Response properties 


 We gratefully acknowledge several colleagues who have allowed us to
 interface, adapt or use parts of their codes:
   Stefan Grimme, W. Hujo, H. Kruse, P. Pracht,  : VdW corrections, initial TS optimization,
                  C. Bannwarth, S. Ehlert,         DFT functionals, gCP, sTDA/sTD-DF
                  L. Wittmann, M. Mueller
   Ed Valeev, F. Pavosevic, A. Kumar             : LibInt (2-el integral package), F12 methods
   Garnet Chan, S. Sharma, J. Yang, R. Olivares  : DMRG
   Ulf Ekstrom                                   : XCFun DFT Library
   Mihaly Kallay                                 : mrcc  (arbitrary order and MRCC methods)
   Frank Weinhold                                : gennbo (NPA and NBO analysis)
   Simon Mueller                                 : openCOSMO-RS
   Christopher J. Cramer and Donald G. Truhlar   : smd solvation model
   Lars Goerigk                                  : TD-DFT with DH, B97 family of functionals
   V. Asgeirsson, H. Jonsson                     : NEB implementation
   FAccTs GmbH                                   : IRC, NEB, NEB-TS, DLPNO-Multilevel, CI-OPT
                                                   MM, QMMM, 2- and 3-layer-ONIOM, Crystal-QMMM,
                                                   LR-CPCM, SF, NACMEs, symmetry and pop. for TD-DFT,
                                                   nearIR, NL-DFT gradient (VV10), updates on ESD,
                                                   ML-optimized integration grids, MBIS, APM,
                                                   GOAT, DOCKER, SOLVATOR, interface openCOSMO-RS
   S Lehtola, MJT Oliveira, MAL Marques          : LibXC Library
   Liviu Ungur et al                             : ANISO software


 Your calculation uses the libint2 library for the computation of 2-el integrals
 For citations please refer to: http://libint.valeyev.net

 Your ORCA version has been built with support for libXC version: 6.2.2
 For citations please refer to: https://libxc.gitlab.io

 This ORCA versions uses:
   CBLAS   interface :  Fast vector & matrix operations
   LAPACKE interface :  Fast linear algebra routines
   Shared memory     :  Shared parallel matrices


Your calculation utilizes the atom-pairwise dispersion correction
with the zero-damping scheme (D30)


XCFun DFT library Copyright 2009-2010 Ulf Ekstrom and contributors.
See http://admol.org/xcfun for more information.
This is free software; see the source code for copying conditions.
There is ABSOLUTELY NO WARRANTY; not even for MERCHANTABILITY or FITNESS FOR A PARTICULAR PURPOSE.
For details see the documentation.
Scientific users of this library should cite U. Ekstrom, L. Visscher, R. Bast, A. J. Thorvaldsen and K. Ruud;
J.Chem.Theor.Comp. 2010, DOI: 10.1021/ct100117s
XCFun Version 0.99 

Warning: RI is on but no J-basis has been assigned. Assigning Def2/J (nothing to worry about!)
================================================================================

----- Orbital basis set information -----
Your calculation utilizes the basis: def2-TZVP
   F. Weigend and R. Ahlrichs, Phys. Chem. Chem. Phys. 7, 3297 (2005).

----- AuxJ basis set information -----
Your calculation utilizes the auxiliary basis: def2/J
   F. Weigend, Phys. Chem. Chem. Phys. 8, 1057 (2006).

================================================================================
                                        WARNINGS
                       Please study these warnings very carefully!
================================================================================

WARNING: Functional chosen is sensitive to the integration grid.
         DEFGRID3 seems to be a minimum grid for robust results!

================================================================================
                                       INPUT FILE
================================================================================
NAME = data/single_point_PO_M06-2x/69082/69082.inp
|  1> ! RIJCOSX M062X def2-TZVP D3ZERO NormalSCF
|  2> %pal
|  3> nprocs 6
|  4> end
|  5> 
|  6> * xyz 0 1
|  7>   C           0.57365510989854      3.33280978009306     -0.08426067899291
|  8>   C          -0.49545604727340      2.27251277354621      0.19869354836584
|  9>   P          -0.20316689507101      0.76033642633419     -0.81274652393747
| 10>   O          -0.09645379775616      1.01645374832720     -2.30796959343281
| 11>   C          -1.56268412312752     -0.39710129955893     -0.39721114629655
| 12>   C          -2.02387812801745     -0.64269756587131      0.91249652399681
| 13>   C          -3.06838681698726     -1.55494147911056      1.12934165019689
| 14>   C          -3.65720680669981     -2.22276895770948      0.04126691459149
| 15>   C          -3.20469156235295     -1.97364726140412     -1.26554553001318
| 16>   C          -2.16136447801014     -1.06108929601794     -1.48661087477108
| 17>   C           1.33981025660644      0.02127810943196     -0.14398628696769
| 18>   C           2.36025741217941     -0.23411585219183     -1.08064457369887
| 19>   C           3.57895451724262     -0.78795604953024     -0.65681055674102
| 20>   C           3.78232935259811     -1.08571971809543      0.70107410580545
| 21>   C           2.76559463676743     -0.82975721993492      1.63841485218395
| 22>   C           1.54597658961687     -0.27717242259594      1.21818748660197
| 23>   H           1.57734955199318      2.98652384754433      0.23626377516741
| 24>   H           0.62243482137474      3.54544772676500     -1.17047130405842
| 25>   H           0.35067371972129      4.27801349698931      0.44987397659692
| 26>   H          -0.53359564294038      1.99496774902592      1.27369730238945
| 27>   H          -1.50958286963135      2.62742891889023     -0.08327601318024
| 28>   H          -1.57761475386818     -0.12015103029880      1.77270947848840
| 29>   H          -3.42736722092965     -1.74389208928994      2.15270876174340
| 30>   H          -4.47609436391812     -2.93791484898687      0.21424106256813
| 31>   H          -3.66983397526938     -2.49148239259257     -2.11848003412210
| 32>   H          -1.79296849490755     -0.83626912123376     -2.49981953366540
| 33>   H           2.16961511688357      0.01468955487146     -2.13646237804651
| 34>   H           4.37530129851765     -0.98725460700383     -1.39045038384306
| 35>   H           4.73811486039123     -1.51943739290929      1.03326446574774
| 36>   H           2.92463283360907     -1.06275543502405      2.70252132996564
| 37>   H           0.75564789936017     -0.08433809245908      1.95998817735782
| 38> **                         ****END OF INPUT****
================================================================================

                       ****************************
                       * Single Point Calculation *
                       ****************************

---------------------------------
CARTESIAN COORDINATES (ANGSTROEM)
---------------------------------
  C      0.573655    3.332810   -0.084261
  C     -0.495456    2.272513    0.198694
  P     -0.203167    0.760336   -0.812747
  O     -0.096454    1.016454   -2.307970
  C     -1.562684   -0.397101   -0.397211
  C     -2.023878   -0.642698    0.912497
  C     -3.068387   -1.554941    1.129342
  C     -3.657207   -2.222769    0.041267
  C     -3.204692   -1.973647   -1.265546
  C     -2.161364   -1.061089   -1.486611
  C      1.339810    0.021278   -0.143986
  C      2.360257   -0.234116   -1.080645
  C      3.578955   -0.787956   -0.656811
  C      3.782329   -1.085720    0.701074
  C      2.765595   -0.829757    1.638415
  C      1.545977   -0.277172    1.218187
  H      1.577350    2.986524    0.236264
  H      0.622435    3.545448   -1.170471
  H      0.350674    4.278013    0.449874
  H     -0.533596    1.994968    1.273697
  H     -1.509583    2.627429   -0.083276
  H     -1.577615   -0.120151    1.772709
  H     -3.427367   -1.743892    2.152709
  H     -4.476094   -2.937915    0.214241
  H     -3.669834   -2.491482   -2.118480
  H     -1.792968   -0.836269   -2.499820
  H      2.169615    0.014690   -2.136462
  H      4.375301   -0.987255   -1.390450
  H      4.738115   -1.519437    1.033264
  H      2.924633   -1.062755    2.702521
  H      0.755648   -0.084338    1.959988

----------------------------
CARTESIAN COORDINATES (A.U.)
----------------------------
  NO LB      ZA    FRAG     MASS         X           Y           Z
   0 C     6.0000    0    12.011    1.084051    6.298098   -0.159230
   1 C     6.0000    0    12.011   -0.936276    4.294427    0.375476
   2 P    15.0000    0    30.974   -0.383930    1.436828   -1.535868
   3 O     8.0000    0    15.999   -0.182271    1.920819   -4.361430
   4 C     6.0000    0    12.011   -2.953045   -0.750413   -0.750620
   5 C     6.0000    0    12.011   -3.824575   -1.214522    1.724369
   6 C     6.0000    0    12.011   -5.798411   -2.938414    2.134146
   7 C     6.0000    0    12.011   -6.911119   -4.200425    0.077983
   8 C     6.0000    0    12.011   -6.055989   -3.729653   -2.391534
   9 C     6.0000    0    12.011   -4.084387   -2.005168   -2.809287
  10 C     6.0000    0    12.011    2.531874    0.040210   -0.272095
  11 C     6.0000    0    12.011    4.460240   -0.442415   -2.042122
  12 C     6.0000    0    12.011    6.763244   -1.489021   -1.241192
  13 C     6.0000    0    12.011    7.147567   -2.051713    1.324838
  14 C     6.0000    0    12.011    5.226216   -1.568014    3.096155
  15 C     6.0000    0    12.011    2.921472   -0.523780    2.302041
  16 H     1.0000    0     1.008    2.980759    5.643712    0.446474
  17 H     1.0000    0     1.008    1.176231    6.699925   -2.211870
  18 H     1.0000    0     1.008    0.662677    8.084274    0.850139
  19 H     1.0000    0     1.008   -1.008350    3.769943    2.406939
  20 H     1.0000    0     1.008   -2.852698    4.965121   -0.157369
  21 H     1.0000    0     1.008   -2.981260   -0.227053    3.349935
  22 H     1.0000    0     1.008   -6.476785   -3.295478    4.068030
  23 H     1.0000    0     1.008   -8.458592   -5.551854    0.404857
  24 H     1.0000    0     1.008   -6.934981   -4.708219   -4.003347
  25 H     1.0000    0     1.008   -3.388219   -1.580320   -4.723974
  26 H     1.0000    0     1.008    4.099978    0.027759   -4.037329
  27 H     1.0000    0     1.008    8.268121   -1.865641   -2.627570
  28 H     1.0000    0     1.008    8.953739   -2.871321    1.952587
  29 H     1.0000    0     1.008    5.526755   -2.008317    5.107025
  30 H     1.0000    0     1.008    1.427968   -0.159376    3.703841

--------------------------------
INTERNAL COORDINATES (ANGSTROEM)
--------------------------------
 C      0   0   0     0.000000000000     0.00000000     0.00000000
 C      1   0   0     1.532087302755     0.00000000     0.00000000
 P      2   1   0     1.842585486056   110.84793721     0.00000000
 O      3   2   1     1.520748432619   114.36994867   305.46897425
 C      3   2   1     1.833199070689   106.02706455   181.02630779
 C      5   3   2     1.410089223347   124.26762467   316.29979656
 C      6   5   3     1.403641395561   120.00463858   180.35435419
 C      7   6   5     1.405919326178   120.05372786   359.89005936
 C      8   7   6     1.405201206700   120.04319265   359.72806106
 C      9   8   7     1.403625068088   120.07256413     0.20568461
 C      3   2   1     1.836906622813   105.28334902    68.23400618
 C     11   3   2     1.408498214075   116.06627461   233.70349639
 C     12  11   3     1.404135631628   119.97372758   179.47265662
 C     13  12  11     1.404946718830   120.06426577   359.90028091
 C     14  13  12     1.406369068794   120.06260844     0.00000000
 C     15  14  13     1.403356397345   120.02528677     0.03877069
 H      1   2   3     1.109077276788   111.22631762   295.13463023
 H      1   2   3     1.107902468010   110.15856758    54.43134717
 H      1   2   3     1.108345883333   111.14936741   174.75289778
 H      2   1   3     1.110909060436   112.05986315   122.49166623
 H      2   1   3     1.110822000003   111.65833897   242.64914956
 H      6   5   3     1.100986924546   120.69422140     0.77547167
 H      7   6   5     1.100840364675   119.85653170   180.07574012
 H      8   7   6     1.100877165285   119.90132342   179.98534877
 H      9   8   7     1.100912328792   120.06997990   180.39521344
 H     10   9   8     1.101295372647   121.75347572   180.71872647
 H     12  11   3     1.101362724681   118.10801083   359.61026250
 H     13  12  11     1.100961174142   119.87144240   179.97661248
 H     14  13  12     1.100902990091   120.05345061   180.03360269
 H     15  14  13     1.100865074542   120.08467238   180.01161149
 H     16  15  14     1.100941770635   119.41185495   179.77849114

---------------------------
INTERNAL COORDINATES (A.U.)
---------------------------
 C      0   0   0     0.000000000000     0.00000000     0.00000000
 C      1   0   0     2.895225415464     0.00000000     0.00000000
 P      2   1   0     3.481981946984   110.84793721     0.00000000
 O      3   2   1     2.873798056241   114.36994867   305.46897425
 C      3   2   1     3.464244192561   106.02706455   181.02630779
 C      5   3   2     2.664682456519   124.26762467   316.29979656
 C      6   5   3     2.652497827845   120.00463858   180.35435419
 C      7   6   5     2.656802492863   120.05372786   359.89005936
 C      8   7   6     2.655445443718   120.04319265   359.72806106
 C      9   8   7     2.652466973394   120.07256413     0.20568461
 C      3   2   1     3.471250450702   105.28334902    68.23400618
 C     11   3   2     2.661675884719   116.06627461   233.70349639
 C     12  11   3     2.653431798658   119.97372758   179.47265662
 C     13  12  11     2.654964531341   120.06426577   359.90028091
 C     14  13  12     2.657652383239   120.06260844     0.00000000
 C     15  14  13     2.651959259269   120.02528677     0.03877069
 H      1   2   3     2.095852314485   111.22631762   295.13463023
 H      1   2   3     2.093632247634   110.15856758    54.43134717
 H      1   2   3     2.094470181159   111.14936741   174.75289778
 H      2   1   3     2.099313883916   112.05986315   122.49166623
 H      2   1   3     2.099149363540   111.65833897   242.64914956
 H      6   5   3     2.080563764420   120.69422140     0.77547167
 H      7   6   5     2.080286806401   119.85653170   180.07574012
 H      8   7   6     2.080356349476   119.90132342   179.98534877
 H      9   8   7     2.080422798874   120.06997990   180.39521344
 H     10   9   8     2.081146646858   121.75347572   180.71872647
 H     12  11   3     2.081273923757   118.10801083   359.61026250
 H     13  12  11     2.080515103209   119.87144240   179.97661248
 H     14  13  12     2.080405151288   120.05345061   180.03360269
 H     15  14  13     2.080333501283   120.08467238   180.01161149
 H     16  15  14     2.080478435894   119.41185495   179.77849114

---------------------
BASIS SET INFORMATION
---------------------
There are 4 groups of distinct atoms

 Group   1 Type C   : 11s6p2d1f contracted to 5s3p2d1f pattern {62111/411/11/1}
 Group   2 Type P   : 14s9p3d1f contracted to 5s5p2d1f pattern {73211/51111/21/1}
 Group   3 Type O   : 11s6p2d1f contracted to 5s3p2d1f pattern {62111/411/11/1}
 Group   4 Type H   : 5s1p contracted to 3s1p pattern {311/1}

Atom   0C    basis set group =>   1
Atom   1C    basis set group =>   1
Atom   2P    basis set group =>   2
Atom   3O    basis set group =>   3
Atom   4C    basis set group =>   1
Atom   5C    basis set group =>   1
Atom   6C    basis set group =>   1
Atom   7C    basis set group =>   1
Atom   8C    basis set group =>   1
Atom   9C    basis set group =>   1
Atom  10C    basis set group =>   1
Atom  11C    basis set group =>   1
Atom  12C    basis set group =>   1
Atom  13C    basis set group =>   1
Atom  14C    basis set group =>   1
Atom  15C    basis set group =>   1
Atom  16H    basis set group =>   4
Atom  17H    basis set group =>   4
Atom  18H    basis set group =>   4
Atom  19H    basis set group =>   4
Atom  20H    basis set group =>   4
Atom  21H    basis set group =>   4
Atom  22H    basis set group =>   4
Atom  23H    basis set group =>   4
Atom  24H    basis set group =>   4
Atom  25H    basis set group =>   4
Atom  26H    basis set group =>   4
Atom  27H    basis set group =>   4
Atom  28H    basis set group =>   4
Atom  29H    basis set group =>   4
Atom  30H    basis set group =>   4
---------------------------------
AUXILIARY/J BASIS SET INFORMATION
---------------------------------
There are 4 groups of distinct atoms

 Group   1 Type C   : 12s5p4d2f1g contracted to 6s4p3d1f1g pattern {711111/2111/211/2/1}
 Group   2 Type P   : 14s5p5d2f1g contracted to 8s4p3d1f1g pattern {71111111/2111/311/2/1}
 Group   3 Type O   : 12s5p4d2f1g contracted to 6s4p3d1f1g pattern {711111/2111/211/2/1}
 Group   4 Type H   : 5s2p1d contracted to 3s1p1d pattern {311/2/1}

Atom   0C    basis set group =>   1
Atom   1C    basis set group =>   1
Atom   2P    basis set group =>   2
Atom   3O    basis set group =>   3
Atom   4C    basis set group =>   1
Atom   5C    basis set group =>   1
Atom   6C    basis set group =>   1
Atom   7C    basis set group =>   1
Atom   8C    basis set group =>   1
Atom   9C    basis set group =>   1
Atom  10C    basis set group =>   1
Atom  11C    basis set group =>   1
Atom  12C    basis set group =>   1
Atom  13C    basis set group =>   1
Atom  14C    basis set group =>   1
Atom  15C    basis set group =>   1
Atom  16H    basis set group =>   4
Atom  17H    basis set group =>   4
Atom  18H    basis set group =>   4
Atom  19H    basis set group =>   4
Atom  20H    basis set group =>   4
Atom  21H    basis set group =>   4
Atom  22H    basis set group =>   4
Atom  23H    basis set group =>   4
Atom  24H    basis set group =>   4
Atom  25H    basis set group =>   4
Atom  26H    basis set group =>   4
Atom  27H    basis set group =>   4
Atom  28H    basis set group =>   4
Atom  29H    basis set group =>   4
Atom  30H    basis set group =>   4


           ************************************************************
           *        Program running with 6 parallel MPI-processes     *
           *              working on a common directory               *
           ************************************************************
------------------------------------------------------------------------------
                             ORCA STARTUP CALCULATIONS
                           -- RI-GTO INTEGRALS CHOSEN --
------------------------------------------------------------------------------
------------------------------------------------------------------------------
                   ___                                                        
                  /   \      - P O W E R E D   B Y -                         
                 /     \                                                     
                 |  |  |   _    _      __       _____    __    __             
                 |  |  |  | |  | |    /  \     |  _  \  |  |  /  |          
                  \  \/   | |  | |   /    \    | | | |  |  | /  /          
                 / \  \   | |__| |  /  /\  \   | |_| |  |  |/  /          
                |  |  |   |  __  | /  /__\  \  |    /   |      \           
                |  |  |   | |  | | |   __   |  |    \   |  |\   \          
                \     /   | |  | | |  |  |  |  | |\  \  |  | \   \       
                 \___/    |_|  |_| |__|  |__|  |_| \__\ |__|  \__/        
                                                                              
                      - O R C A' S   B I G   F R I E N D -                    
                                      &                                       
                       - I N T E G R A L  F E E D E R -                       
                                                                              
 v1 FN, 2020, v2 2021, v3 2022-2024                                           
------------------------------------------------------------------------------


----------------------
SHARK INTEGRAL PACKAGE
----------------------

Number of atoms                             ...     31
Number of basis functions                   ...    592
Number of shells                            ...    238
Maximum angular momentum                    ...      3
Integral batch strategy                     ... SHARK/LIBINT Hybrid
RI-J (if used) integral strategy            ... SPLIT-RIJ (Revised 2003 algorithm where possible)
Printlevel                                  ...      1
Contraction scheme used                     ... SEGMENTED contraction
Prescreening option                         ... SCHWARTZ
   Thresh                                   ... 1.000e-10
   Tcut                                     ... 1.000e-11
   Tpresel                                  ... 1.000e-11 
Coulomb Range Separation                    ... NOT USED
Exchange Range Separation                   ... NOT USED
Multipole approximations                    ... NOT USED
Finite Nucleus Model                        ... NOT USED
CABS basis                                  ... NOT available
Auxiliary Coulomb fitting basis             ... AVAILABLE
   # of basis functions in Aux-J            ...    951
   # of shells in Aux-J                     ...    317
   Maximum angular momentum in Aux-J        ...      4
Auxiliary J/K fitting basis                 ... NOT available
Auxiliary Correlation fitting basis         ... NOT available
Auxiliary 'external' fitting basis          ... NOT available

Checking pre-screening integrals            ... done (  0.0 sec) Dimension = 238
Check shell pair data                       ... done (  0.0 sec)
Shell pair information
Shell pair cut-off parameter TPreSel        ...   1.0e-11
Total number of shell pairs                 ...     28441
Shell pairs after pre-screening             ...     21894
Total number of primitive shell pairs       ...     87564
Primitive shell pairs kept                  ...     45805
          la=0 lb=0:   5839 shell pairs
          la=1 lb=0:   6374 shell pairs
          la=1 lb=1:   1792 shell pairs
          la=2 lb=0:   3027 shell pairs
          la=2 lb=1:   1706 shell pairs
          la=2 lb=2:    439 shell pairs
          la=3 lb=0:   1437 shell pairs
          la=3 lb=1:    801 shell pairs
          la=3 lb=2:    382 shell pairs
          la=3 lb=3:     97 shell pairs

Calculating one electron integrals          ... done (  0.0 sec)
Calculating RI/J V-Matrix + Cholesky decomp.... done (  0.0 sec)
Calculating Nuclear repulsion               ... done (  0.0 sec) ENN=   1163.106879494876 Eh

Diagonalization of the overlap matrix:
Smallest eigenvalue                        ... 7.958e-06
Time for diagonalization                   ...    0.062 sec
Threshold for overlap eigenvalues          ... 1.000e-07
Number of eigenvalues below threshold      ... 0
Time for construction of square roots      ...    0.030 sec
Total time needed                          ...    0.096 sec

-------------------
DFT GRID GENERATION
-------------------

General Integration Accuracy     IntAcc      ... 4.388
Radial Grid Type                 RadialGrid  ... OptM3 with GC (2021)
Angular Grid (max. ang.)         AngularGrid ... 4 (Lebedev-302)
Angular grid pruning method      GridPruning ... 4 (adaptive)
Weight generation scheme         WeightScheme... mBecke (2022)
Basis function cutoff            BFCut       ... 1.0000e-10
Integration weight cutoff        WCut        ... 1.0000e-14
Partially contracted basis set               ... off
Rotationally invariant grid construction     ... off
Angular grids for H and He will be reduced by one unit

Total number of grid points                  ...   144942
Total number of batches                      ...     2280
Average number of points per batch           ...       63
Average number of grid points per atom       ...     4676

--------------------
COSX GRID GENERATION
--------------------

GRIDX 1
-------
General Integration Accuracy     IntAcc      ... 3.816
Radial Grid Type                 RadialGrid  ... OptM3 with GC (2021)
Angular Grid (max. ang.)         AngularGrid ... 1 (Lebedev-50)
Angular grid pruning method      GridPruning ... 4 (adaptive)
Weight generation scheme         WeightScheme... mBecke (2022)
Basis function cutoff            BFCut       ... 1.0000e-10
Integration weight cutoff        WCut        ... 1.0000e-14
Partially contracted basis set               ... on
Rotationally invariant grid construction     ... off
Angular grids for H and He will be reduced by one unit

Total number of grid points                  ...    19453
Total number of batches                      ...      168
Average number of points per batch           ...      115
Average number of grid points per atom       ...      628
UseSFitting                                  ... on

GRIDX 2
-------
General Integration Accuracy     IntAcc      ... 4.020
Radial Grid Type                 RadialGrid  ... OptM3 with GC (2021)
Angular Grid (max. ang.)         AngularGrid ... 2 (Lebedev-110)
Angular grid pruning method      GridPruning ... 4 (adaptive)
Weight generation scheme         WeightScheme... mBecke (2022)
Basis function cutoff            BFCut       ... 1.0000e-10
Integration weight cutoff        WCut        ... 1.0000e-14
Partially contracted basis set               ... on
Rotationally invariant grid construction     ... off
Angular grids for H and He will be reduced by one unit

Total number of grid points                  ...    39591
Total number of batches                      ...      324
Average number of points per batch           ...      122
Average number of grid points per atom       ...     1277
UseSFitting                                  ... on

GRIDX 3
-------
General Integration Accuracy     IntAcc      ... 4.338
Radial Grid Type                 RadialGrid  ... OptM3 with GC (2021)
Angular Grid (max. ang.)         AngularGrid ... 3 (Lebedev-194)
Angular grid pruning method      GridPruning ... 4 (adaptive)
Weight generation scheme         WeightScheme... mBecke (2022)
Basis function cutoff            BFCut       ... 1.0000e-10
Integration weight cutoff        WCut        ... 1.0000e-14
Partially contracted basis set               ... on
Rotationally invariant grid construction     ... off
Angular grids for H and He will be reduced by one unit

Total number of grid points                  ...    87044
Total number of batches                      ...      697
Average number of points per batch           ...      124
Average number of grid points per atom       ...     2808
UseSFitting                                  ... on
Initializing property integral containers    ... done (  0.0 sec)

SHARK setup successfully completed in   3.0 seconds

Maximum memory used throughout the entire STARTUP-calculation: 56.4 MB


           ************************************************************
           *        Program running with 6 parallel MPI-processes     *
           *              working on a common directory               *
           ************************************************************
-------------------------------------------------------------------------------
                                 ORCA GUESS
                   Start orbitals & Density for SCF / CASSCF
-------------------------------------------------------------------------------

------------
SCF SETTINGS
------------
Hamiltonian:
 Density Functional     Method          .... DFT(GTOs)
 Exchange Functional    Exchange        .... M062X
 Correlation Functional Correlation     .... M062X
 Gradients option       PostSCFGGA      .... off
 Hybrid DFT is turned on
   Fraction HF Exchange ScalHFX         ....  0.540000
   Scaling of DF-GGA-X  ScalDFX         ....  0.460000
   Scaling of DF-GGA-C  ScalDFC         ....  1.000000
   Scaling of DF-LDA-C  ScalLDAC        ....  1.000000
   Perturbative correction              ....  0.000000
 RI-approximation to the Coulomb term is turned on
   Number of AuxJ basis functions       .... 951
   RIJ-COSX (HFX calculated with COS-X)).... on


General Settings:
 Integral files         IntName         .... data/single_point_PO_M06-2x/69082/69082
 Hartree-Fock type      HFTyp           .... RHF
 Total Charge           Charge          ....    0
 Multiplicity           Mult            ....    1
 Number of Electrons    NEL             ....  122
 Basis Dimension        Dim             ....  592
 Nuclear Repulsion      ENuc            ....   1163.1068794949 Eh

Convergence Acceleration:
 AO-DIIS                CNVDIIS         .... on
   Start iteration      DIISMaxIt       ....    12
   Startup error        DIISStart       ....  0.200000
   # of expansion vecs  DIISMaxEq       ....     5
   Bias factor          DIISBfac        ....   1.050
   Max. coefficient     DIISMaxC        ....  10.000
 MO-DIIS                CNVKDIIS        .... off
 Trust-Rad. Augm. Hess. CNVTRAH         .... auto
   Auto Start mean grad. ratio tolernc. ....  1.125000
   Auto Start start iteration           ....    50
   Auto Start num. interpolation iter.  ....    10
   Max. Number of Micro iterations      ....    24
   Max. Number of Macro iterations      .... Maxiter - #DIIS iter
   Number of Davidson start vectors     ....     2
   Converg. threshold    (grad. norm)   ....   5.000e-05
   Grad. Scal. Fac. for Micro threshold ....   0.100
   Minimum threshold for Micro iter.    ....   1.000e-02
   NR start threshold (gradient norm)   ....   1.000e-04
   Initial trust radius                 ....   0.400
   Minimum AH scaling param. (alpha)    ....   1.000
   Maximum AH scaling param. (alpha)    .... 1000.000
   Quad. conv. algorithm                .... NR
   White noise on init. David. guess    .... on
   Maximum white noise                  ....   0.010
   Pseudo random numbers                .... off
   Inactive MOs                         .... canonical
   Orbital update algorithm             .... Taylor
   Preconditioner                       .... Diag
   Full preconditioner red. dimension   ....   250
 SOSCF                  CNVSOSCF        .... on
   Start iteration      SOSCFMaxIt      ....   150
   Startup grad/error   SOSCFStart      ....  0.003300
   Hessian update       SOSCFHessUp     .... L-BFGS
 Level Shifting         CNVShift        .... on
   Level shift para.    LevelShift      ....    0.2500
   Turn off err/grad.   ShiftErr        ....    0.0010
 Zerner damping         CNVZerner       .... off
 Static damping         CNVDamp         .... on
   Fraction old density DampFac         ....    0.7000
   Max. Damping (<1)    DampMax         ....    0.9800
   Min. Damping (>=0)   DampMin         ....    0.0000
   Turn off err/grad.   DampErr         ....    0.1000

SCF Procedure:
 Maximum # iterations   MaxIter         ....   125
 SCF integral mode      SCFMode         .... Direct
   Integral package                     .... SHARK and LIBINT hybrid scheme
 Reset frequency        DirectResetFreq ....    20
 Integral Threshold     Thresh          ....  1.000e-10 Eh
 Primitive CutOff       TCut            ....  1.000e-11 Eh

Convergence Tolerance:
 Convergence Check Mode ConvCheckMode   .... Total+1el-Energy
 Convergence forced     ConvForced      .... 0
 Energy Change          TolE            ....  1.000e-06 Eh
 1-El. energy change                    ....  1.000e-03 Eh
 Orbital Gradient       TolG            ....  5.000e-05
 Orbital Rotation angle TolX            ....  5.000e-05
 DIIS Error             TolErr          ....  1.000e-05

------------------------------
INITIAL GUESS: MODEL POTENTIAL
------------------------------
Loading Hartree-Fock densities                     ... done
Calculating cut-offs                               ... done
Initializing the effective Hamiltonian             ... done
Setting up the integral package (SHARK)            ... done
Starting the Coulomb interaction                   ... done (   0.3 sec)
Making the grid                                    ... done (   0.2 sec)
Mapping shells                                     ... done
Starting the XC term evaluation                    ... done (   0.3 sec)
  promolecular density results
     # of electrons  =    121.996476562
     EX              =   -106.631858482
     EC              =     -4.116203821
     EX+EC           =   -110.748062303
Transforming the Hamiltonian                       ... done (   0.0 sec)
Diagonalizing the Hamiltonian                      ... done (   0.1 sec)
Back transforming the eigenvectors                 ... done (   0.0 sec)
Now organizing SCF variables                       ... done
                      ------------------
                      INITIAL GUESS DONE (   1.0 sec)
                      ------------------
             **** ENERGY FILE WAS UPDATED (data/single_point_PO_M06-2x/69082/69082.en.tmp) ****
Finished Guess after   1.2 sec
Maximum memory used throughout the entire GUESS-calculation: 40.5 MB


           ************************************************************
           *        Program running with 6 parallel MPI-processes     *
           *              working on a common directory               *
           ************************************************************

-------------------------------------------------------------------------------------------
                                      ORCA LEAN-SCF
                              memory conserving SCF solver
-------------------------------------------------------------------------------------------

----------------------------------------D-I-I-S--------------------------------------------
Iteration    Energy (Eh)           Delta-E    RMSDP     MaxDP     DIISErr   Damp  Time(sec)
-------------------------------------------------------------------------------------------
               ***  Starting incremental Fock matrix formation  ***
    1    -958.6073298899991642     0.00e+00  1.58e-03  9.75e-02  3.62e-01  0.700  11.4
    2    -958.8191417369653209    -2.12e-01  1.29e-03  9.19e-02  1.57e-01  0.700   6.0
                               ***Turning on AO-DIIS***
    3    -958.9136233155295486    -9.45e-02  7.29e-04  2.05e-02  4.61e-02  0.700   6.8
    4    -958.9702460245407565    -5.66e-02  1.66e-03  5.20e-02  3.32e-02  0.000   6.3
    5    -959.0928199335517093    -1.23e-01  1.48e-04  1.44e-02  7.08e-03  0.000   7.4
                              *** Initializing SOSCF ***
---------------------------------------S-O-S-C-F--------------------------------------
Iteration    Energy (Eh)           Delta-E    RMSDP     MaxDP     MaxGrad    Time(sec)
--------------------------------------------------------------------------------------
    6    -959.0931629331448676    -3.43e-04  5.10e-05  4.85e-03  1.63e-03     6.0
               *** Restarting incremental Fock matrix formation ***
    7    -959.0932033867870814    -4.05e-05  7.36e-05  2.57e-03  2.15e-04    11.8
    8    -959.0932037625093471    -3.76e-07  2.18e-05  1.31e-03  2.66e-04     8.9
                 **** Energy Check signals convergence ****

               *****************************************************
               *                     SUCCESS                       *
               *           SCF CONVERGED AFTER   8 CYCLES          *
               *****************************************************

Recomputing exchange energy using gridx3       ... done (   15.067 sec)
Old exchange energy                            :    -58.707634146 Eh
New exchange energy                            :    -58.707629744 Eh
Exchange energy change after final integration :      0.000004402 Eh
Total energy after final integration           :   -959.093199360 Eh
             **** ENERGY FILE WAS UPDATED (data/single_point_PO_M06-2x/69082/69082.en.tmp) ****

----------------
TOTAL SCF ENERGY
----------------

Total Energy       :       -959.09319936047075 Eh          -26098.25276 eV

Components:
Nuclear Repulsion  :       1163.10687949487647 Eh           31649.74723 eV
Electronic Energy  :      -2122.20008325738581 Eh          -57748.00012 eV
One Electron Energy:      -3618.12224033257871 Eh          -98454.11147 eV
Two Electron Energy:       1495.92215707519290 Eh           40706.11135 eV

Virial components:
Potential Energy   :      -1913.48069422834760 Eh          -52068.45680 eV
Kinetic Energy     :        954.38749486787674 Eh           25970.20404 eV
Virial Ratio       :          2.00493060158258

DFT components:
N(Alpha)           :       60.999952996291 electrons
N(Beta)            :       60.999952996291 electrons
N(Total)           :      121.999905992583 electrons
E(XC)              :      -54.418179117804 Eh       

---------------
SCF CONVERGENCE
---------------

  Last Energy change         ...    3.7572e-07  Tolerance :   1.0000e-06
  Last MAX-Density change    ...    1.3117e-03  Tolerance :   1.0000e-05
  Last RMS-Density change    ...    2.1756e-05  Tolerance :   1.0000e-06
  Last DIIS Error            ...    1.6318e-03  Tolerance :   1.0000e-05
  Last Orbital Gradient      ...    2.6551e-04  Tolerance :   5.0000e-05
  Last Orbital Rotation      ...    3.7874e-04  Tolerance :   5.0000e-05


----------------
ORBITAL ENERGIES
----------------

  NO   OCC          E(Eh)            E(eV) 
   0   2.0000     -78.092447     -2125.0035 
   1   2.0000     -19.566647      -532.4355 
   2   2.0000     -10.565366      -287.4982 
   3   2.0000     -10.563924      -287.4590 
   4   2.0000     -10.560844      -287.3752 
   5   2.0000     -10.559833      -287.3477 
   6   2.0000     -10.559685      -287.3436 
   7   2.0000     -10.558779      -287.3190 
   8   2.0000     -10.558717      -287.3173 
   9   2.0000     -10.557320      -287.2793 
  10   2.0000     -10.557222      -287.2766 
  11   2.0000     -10.556294      -287.2514 
  12   2.0000     -10.556262      -287.2505 
  13   2.0000     -10.555136      -287.2199 
  14   2.0000     -10.553741      -287.1819 
  15   2.0000     -10.538607      -286.7701 
  16   2.0000      -6.899047      -187.7326 
  17   2.0000      -5.016215      -136.4981 
  18   2.0000      -5.015922      -136.4902 
  19   2.0000      -5.014433      -136.4497 
  20   2.0000      -1.061274       -28.8787 
  21   2.0000      -0.965113       -26.2621 
  22   2.0000      -0.962195       -26.1826 
  23   2.0000      -0.878381       -23.9020 
  24   2.0000      -0.851648       -23.1745 
  25   2.0000      -0.849425       -23.1140 
  26   2.0000      -0.848029       -23.0760 
  27   2.0000      -0.845399       -23.0045 
  28   2.0000      -0.741816       -20.1858 
  29   2.0000      -0.701723       -19.0949 
  30   2.0000      -0.693167       -18.8620 
  31   2.0000      -0.692049       -18.8316 
  32   2.0000      -0.684642       -18.6301 
  33   2.0000      -0.630146       -17.1471 
  34   2.0000      -0.598789       -16.2939 
  35   2.0000      -0.581725       -15.8295 
  36   2.0000      -0.534969       -14.5572 
  37   2.0000      -0.529364       -14.4047 
  38   2.0000      -0.526791       -14.3347 
  39   2.0000      -0.523223       -14.2376 
  40   2.0000      -0.521961       -14.2033 
  41   2.0000      -0.507679       -13.8147 
  42   2.0000      -0.495501       -13.4833 
  43   2.0000      -0.492424       -13.3995 
  44   2.0000      -0.483573       -13.1587 
  45   2.0000      -0.458360       -12.4726 
  46   2.0000      -0.453302       -12.3350 
  47   2.0000      -0.443410       -12.0658 
  48   2.0000      -0.440979       -11.9996 
  49   2.0000      -0.423810       -11.5324 
  50   2.0000      -0.419814       -11.4237 
  51   2.0000      -0.409164       -11.1339 
  52   2.0000      -0.406606       -11.0643 
  53   2.0000      -0.403677       -10.9846 
  54   2.0000      -0.397747       -10.8232 
  55   2.0000      -0.336908        -9.1677 
  56   2.0000      -0.334460        -9.1011 
  57   2.0000      -0.320543        -8.7224 
  58   2.0000      -0.318198        -8.6586 
  59   2.0000      -0.315160        -8.5759 
  60   2.0000      -0.310701        -8.4546 
  61   0.0000      -0.015671        -0.4264 
  62   0.0000       0.003125         0.0850 
  63   0.0000       0.008204         0.2232 
  64   0.0000       0.014120         0.3842 
  65   0.0000       0.053241         1.4488 
  66   0.0000       0.073710         2.0057 
  67   0.0000       0.084159         2.2901 
  68   0.0000       0.090141         2.4529 
  69   0.0000       0.096015         2.6127 
  70   0.0000       0.108798         2.9606 
  71   0.0000       0.111535         3.0350 
*Only the first 10 virtual orbitals were printed.

                    ********************************
                    * MULLIKEN POPULATION ANALYSIS *
                    ********************************

-----------------------
MULLIKEN ATOMIC CHARGES
-----------------------
   0 C :   -0.432475
   1 C :   -0.349116
   2 P :    0.625009
   3 O :   -0.609959
   4 C :   -0.022448
   5 C :   -0.178604
   6 C :   -0.168474
   7 C :   -0.137749
   8 C :   -0.133803
   9 C :   -0.154892
  10 C :   -0.104962
  11 C :   -0.125859
  12 C :   -0.141525
  13 C :   -0.134511
  14 C :   -0.169544
  15 C :   -0.149983
  16 H :    0.155837
  17 H :    0.176671
  18 H :    0.146476
  19 H :    0.154336
  20 H :    0.172937
  21 H :    0.157638
  22 H :    0.146356
  23 H :    0.148598
  24 H :    0.149847
  25 H :    0.194391
  26 H :    0.196872
  27 H :    0.150041
  28 H :    0.148472
  29 H :    0.145946
  30 H :    0.144475
Sum of atomic charges:   -0.0000000

--------------------------------
MULLIKEN REDUCED ORBITAL CHARGES
--------------------------------
  0 C s       :     3.323009  s :     3.323009
      pz      :     1.089904  p :     3.050426
      px      :     0.982659
      py      :     0.977862
      dz2     :     0.012491  d :     0.055657
      dxz     :     0.006176
      dyz     :     0.010728
      dx2y2   :     0.019637
      dxy     :     0.006626
      f0      :     0.000755  f :     0.003382
      f+1     :     0.000220
      f-1     :     0.000282
      f+2     :     0.000243
      f-2     :     0.000507
      f+3     :     0.000670
      f-3     :     0.000704

  1 C s       :     3.237788  s :     3.237788
      pz      :     1.015072  p :     3.037732
      px      :     1.041738
      py      :     0.980922
      dz2     :     0.013895  d :     0.070004
      dxz     :     0.007901
      dyz     :     0.014837
      dx2y2   :     0.024060
      dxy     :     0.009311
      f0      :     0.000657  f :     0.003592
      f+1     :     0.000213
      f-1     :     0.000494
      f+2     :     0.000273
      f-2     :     0.000531
      f+3     :     0.000697
      f-3     :     0.000728

  2 P s       :     5.307759  s :     5.307759
      pz      :     2.621853  p :     8.307656
      px      :     2.827524
      py      :     2.858279
      dz2     :     0.115303  d :     0.694180
      dxz     :     0.187294
      dyz     :     0.207350
      dx2y2   :     0.077987
      dxy     :     0.106247
      f0      :     0.009471  f :     0.065396
      f+1     :     0.017609
      f-1     :     0.016024
      f+2     :     0.006835
      f-2     :     0.005893
      f+3     :     0.005660
      f-3     :     0.003904

  3 O s       :     3.881815  s :     3.881815
      pz      :     1.377881  p :     4.702314
      px      :     1.664577
      py      :     1.659855
      dz2     :     0.009507  d :     0.024581
      dxz     :     0.006963
      dyz     :     0.007348
      dx2y2   :     0.000412
      dxy     :     0.000351
      f0      :     0.000494  f :     0.001250
      f+1     :     0.000327
      f-1     :     0.000356
      f+2     :     0.000035
      f-2     :     0.000033
      f+3     :     0.000002
      f-3     :     0.000002

  4 C s       :     3.227314  s :     3.227314
      pz      :     0.837096  p :     2.714625
      px      :     0.912831
      py      :     0.964698
      dz2     :     0.017681  d :     0.073477
      dxz     :     0.017086
      dyz     :     0.018129
      dx2y2   :     0.009774
      dxy     :     0.010806
      f0      :     0.001461  f :     0.007032
      f+1     :     0.001075
      f-1     :     0.001204
      f+2     :     0.000821
      f-2     :     0.001020
      f+3     :     0.000717
      f-3     :     0.000733

  5 C s       :     3.158826  s :     3.158826
      pz      :     0.937013  p :     2.946938
      px      :     1.021731
      py      :     0.988195
      dz2     :     0.011614  d :     0.066319
      dxz     :     0.015701
      dyz     :     0.016414
      dx2y2   :     0.015723
      dxy     :     0.006866
      f0      :     0.001145  f :     0.006521
      f+1     :     0.000942
      f-1     :     0.001043
      f+2     :     0.000260
      f-2     :     0.001167
      f+3     :     0.001090
      f-3     :     0.000874

  6 C s       :     3.238322  s :     3.238322
      pz      :     0.979960  p :     2.863521
      px      :     0.944360
      py      :     0.939201
      dz2     :     0.012767  d :     0.060322
      dxz     :     0.012026
      dyz     :     0.009854
      dx2y2   :     0.018747
      dxy     :     0.006928
      f0      :     0.001118  f :     0.006308
      f+1     :     0.000793
      f-1     :     0.000652
      f+2     :     0.000581
      f-2     :     0.001096
      f+3     :     0.001141
      f-3     :     0.000927

  7 C s       :     3.228434  s :     3.228434
      pz      :     0.885151  p :     2.841445
      px      :     0.982860
      py      :     0.973434
      dz2     :     0.012862  d :     0.061584
      dxz     :     0.017564
      dyz     :     0.017857
      dx2y2   :     0.005459
      dxy     :     0.007843
      f0      :     0.001358  f :     0.006286
      f+1     :     0.001009
      f-1     :     0.001109
      f+2     :     0.000828
      f-2     :     0.000829
      f+3     :     0.000502
      f-3     :     0.000651

  8 C s       :     3.224174  s :     3.224174
      pz      :     0.946140  p :     2.843597
      px      :     0.942049
      py      :     0.955408
      dz2     :     0.012074  d :     0.059762
      dxz     :     0.012545
      dyz     :     0.013734
      dx2y2   :     0.013991
      dxy     :     0.007417
      f0      :     0.001137  f :     0.006270
      f+1     :     0.000916
      f-1     :     0.001015
      f+2     :     0.000226
      f-2     :     0.001122
      f+3     :     0.001034
      f-3     :     0.000820

  9 C s       :     3.212980  s :     3.212980
      pz      :     1.025346  p :     2.872681
      px      :     0.926770
      py      :     0.920564
      dz2     :     0.012398  d :     0.062767
      dxz     :     0.013450
      dyz     :     0.011431
      dx2y2   :     0.019699
      dxy     :     0.005790
      f0      :     0.001080  f :     0.006464
      f+1     :     0.000819
      f-1     :     0.000694
      f+2     :     0.000611
      f-2     :     0.001128
      f+3     :     0.001149
      f-3     :     0.000983

 10 C s       :     3.253579  s :     3.253579
      pz      :     0.850478  p :     2.771169
      px      :     0.954588
      py      :     0.966103
      dz2     :     0.017457  d :     0.073140
      dxz     :     0.015247
      dyz     :     0.019598
      dx2y2   :     0.009284
      dxy     :     0.011555
      f0      :     0.001177  f :     0.007074
      f+1     :     0.001613
      f-1     :     0.001122
      f+2     :     0.000722
      f-2     :     0.000883
      f+3     :     0.000753
      f-3     :     0.000804

 11 C s       :     3.198448  s :     3.198448
      pz      :     1.035005  p :     2.858272
      px      :     0.898338
      py      :     0.924929
      dz2     :     0.014364  d :     0.062673
      dxz     :     0.013519
      dyz     :     0.008128
      dx2y2   :     0.012995
      dxy     :     0.013667
      f0      :     0.000808  f :     0.006466
      f+1     :     0.001294
      f-1     :     0.000451
      f+2     :     0.000772
      f-2     :     0.000962
      f+3     :     0.001235
      f-3     :     0.000944

 12 C s       :     3.227435  s :     3.227435
      pz      :     0.928532  p :     2.848263
      px      :     0.965517
      py      :     0.954214
      dz2     :     0.011981  d :     0.059578
      dxz     :     0.015794
      dyz     :     0.012327
      dx2y2   :     0.010638
      dxy     :     0.008838
      f0      :     0.000986  f :     0.006249
      f+1     :     0.001335
      f-1     :     0.000991
      f+2     :     0.000699
      f-2     :     0.000533
      f+3     :     0.001024
      f-3     :     0.000682

 13 C s       :     3.226853  s :     3.226853
      pz      :     0.895736  p :     2.839919
      px      :     0.983330
      py      :     0.960853
      dz2     :     0.012913  d :     0.061463
      dxz     :     0.015061
      dyz     :     0.018919
      dx2y2   :     0.006602
      dxy     :     0.007967
      f0      :     0.001129  f :     0.006276
      f+1     :     0.001399
      f-1     :     0.000983
      f+2     :     0.000673
      f-2     :     0.000820
      f+3     :     0.000509
      f-3     :     0.000764

 14 C s       :     3.239010  s :     3.239010
      pz      :     0.995703  p :     2.864544
      px      :     0.906874
      py      :     0.961967
      dz2     :     0.012756  d :     0.059688
      dxz     :     0.012754
      dyz     :     0.007277
      dx2y2   :     0.012355
      dxy     :     0.014547
      f0      :     0.000888  f :     0.006301
      f+1     :     0.001119
      f-1     :     0.000453
      f+2     :     0.000783
      f-2     :     0.000966
      f+3     :     0.001228
      f-3     :     0.000864

 15 C s       :     3.165884  s :     3.165884
      pz      :     0.897755  p :     2.911448
      px      :     1.042860
      py      :     0.970833
      dz2     :     0.011519  d :     0.066124
      dxz     :     0.021080
      dyz     :     0.013562
      dx2y2   :     0.011125
      dxy     :     0.008839
      f0      :     0.000989  f :     0.006529
      f+1     :     0.001447
      f-1     :     0.000972
      f+2     :     0.000716
      f-2     :     0.000577
      f+3     :     0.001095
      f-3     :     0.000733

 16 H s       :     0.825658  s :     0.825658
      pz      :     0.004114  p :     0.018506
      px      :     0.010301
      py      :     0.004090

 17 H s       :     0.804352  s :     0.804352
      pz      :     0.011824  p :     0.018977
      px      :     0.003478
      py      :     0.003675

 18 H s       :     0.835048  s :     0.835048
      pz      :     0.005206  p :     0.018475
      px      :     0.003612
      py      :     0.009657

 19 H s       :     0.825871  s :     0.825871
      pz      :     0.011712  p :     0.019794
      px      :     0.003593
      py      :     0.004488

 20 H s       :     0.807255  s :     0.807255
      pz      :     0.004103  p :     0.019808
      px      :     0.010896
      py      :     0.004809

 21 H s       :     0.822484  s :     0.822484
      pz      :     0.009210  p :     0.019879
      px      :     0.004921
      py      :     0.005748

 22 H s       :     0.833925  s :     0.833925
      pz      :     0.011769  p :     0.019719
      px      :     0.004331
      py      :     0.003620

 23 H s       :     0.831760  s :     0.831760
      pz      :     0.002921  p :     0.019642
      px      :     0.009023
      py      :     0.007697

 24 H s       :     0.830415  s :     0.830415
      pz      :     0.009100  p :     0.019738
      px      :     0.005033
      py      :     0.005605

 25 H s       :     0.784880  s :     0.784880
      pz      :     0.012139  p :     0.020729
      px      :     0.004702
      py      :     0.003888

 26 H s       :     0.782294  s :     0.782294
      pz      :     0.013229  p :     0.020834
      px      :     0.003500
      py      :     0.004106

 27 H s       :     0.830238  s :     0.830238
      pz      :     0.007409  p :     0.019721
      px      :     0.008359
      py      :     0.003953

 28 H s       :     0.831892  s :     0.831892
      pz      :     0.003631  p :     0.019637
      px      :     0.010789
      py      :     0.005217

 29 H s       :     0.834344  s :     0.834344
      pz      :     0.012534  p :     0.019710
      px      :     0.003045
      py      :     0.004131

 30 H s       :     0.835628  s :     0.835628
      pz      :     0.007533  p :     0.019897
      px      :     0.008381
      py      :     0.003983



                     *******************************
                     * LOEWDIN POPULATION ANALYSIS *
                     *******************************

----------------------
LOEWDIN ATOMIC CHARGES
----------------------
   0 C :   -0.333278
   1 C :   -0.387983
   2 P :    0.649661
   3 O :   -0.316266
   4 C :   -0.231527
   5 C :   -0.138108
   6 C :   -0.141222
   7 C :   -0.132362
   8 C :   -0.135411
   9 C :   -0.115026
  10 C :   -0.232163
  11 C :   -0.117390
  12 C :   -0.136087
  13 C :   -0.133100
  14 C :   -0.141271
  15 C :   -0.135759
  16 H :    0.127601
  17 H :    0.135125
  18 H :    0.124155
  19 H :    0.136303
  20 H :    0.147558
  21 H :    0.143872
  22 H :    0.148480
  23 H :    0.148718
  24 H :    0.149678
  25 H :    0.162105
  26 H :    0.162390
  27 H :    0.149472
  28 H :    0.148556
  29 H :    0.148326
  30 H :    0.144951

-------------------------------
LOEWDIN REDUCED ORBITAL CHARGES
-------------------------------
  0 C s       :     2.844454  s :     2.844454
      pz      :     1.088125  p :     3.201905
      px      :     1.061686
      py      :     1.052095
      dz2     :     0.054802  d :     0.262249
      dxz     :     0.027882
      dyz     :     0.048686
      dx2y2   :     0.083333
      dxy     :     0.047546
      f0      :     0.004023  f :     0.024669
      f+1     :     0.001961
      f-1     :     0.001575
      f+2     :     0.003487
      f-2     :     0.004477
      f+3     :     0.004290
      f-3     :     0.004855

  1 C s       :     2.842844  s :     2.842844
      pz      :     1.058738  p :     3.197612
      px      :     1.061664
      py      :     1.077210
      dz2     :     0.065935  d :     0.320739
      dxz     :     0.031160
      dyz     :     0.070574
      dx2y2   :     0.093862
      dxy     :     0.059209
      f0      :     0.003999  f :     0.026788
      f+1     :     0.002072
      f-1     :     0.002743
      f+2     :     0.003440
      f-2     :     0.004830
      f+3     :     0.004506
      f-3     :     0.005197

  2 P s       :     4.653943  s :     4.653943
      pz      :     2.728744  p :     8.286456
      px      :     2.770859
      py      :     2.786853
      dz2     :     0.258022  d :     1.188265
      dxz     :     0.278117
      dyz     :     0.320450
      dx2y2   :     0.138256
      dxy     :     0.193421
      f0      :     0.042864  f :     0.221676
      f+1     :     0.053280
      f-1     :     0.050339
      f+2     :     0.021730
      f-2     :     0.021105
      f+3     :     0.018476
      f-3     :     0.013882

  3 O s       :     3.539204  s :     3.539204
      pz      :     1.530941  p :     4.733329
      px      :     1.602701
      py      :     1.599687
      dz2     :     0.023445  d :     0.041630
      dxz     :     0.007992
      dyz     :     0.009264
      dx2y2   :     0.000473
      dxy     :     0.000456
      f0      :     0.001046  f :     0.002103
      f+1     :     0.000411
      f-1     :     0.000526
      f+2     :     0.000038
      f-2     :     0.000076
      f+3     :     0.000003
      f-3     :     0.000003

  4 C s       :     2.772663  s :     2.772663
      pz      :     1.063281  p :     2.984812
      px      :     0.966750
      py      :     0.954782
      dz2     :     0.137033  d :     0.430424
      dxz     :     0.100979
      dyz     :     0.098075
      dx2y2   :     0.032148
      dxy     :     0.062189
      f0      :     0.011082  f :     0.043628
      f+1     :     0.006682
      f-1     :     0.006942
      f+2     :     0.006553
      f-2     :     0.007709
      f+3     :     0.002227
      f-3     :     0.002432

  5 C s       :     2.774097  s :     2.774097
      pz      :     1.011801  p :     2.939890
      px      :     0.975563
      py      :     0.952526
      dz2     :     0.081323  d :     0.383193
      dxz     :     0.104140
      dyz     :     0.098022
      dx2y2   :     0.052344
      dxy     :     0.047363
      f0      :     0.009671  f :     0.040929
      f+1     :     0.006480
      f-1     :     0.006629
      f+2     :     0.001773
      f-2     :     0.007135
      f+3     :     0.004691
      f-3     :     0.004550

  6 C s       :     2.777844  s :     2.777844
      pz      :     1.002562  p :     2.949298
      px      :     0.979858
      py      :     0.966877
      dz2     :     0.099560  d :     0.373505
      dxz     :     0.083258
      dyz     :     0.064339
      dx2y2   :     0.067015
      dxy     :     0.059332
      f0      :     0.008374  f :     0.040575
      f+1     :     0.005239
      f-1     :     0.004987
      f+2     :     0.004482
      f-2     :     0.007911
      f+3     :     0.004886
      f-3     :     0.004697

  7 C s       :     2.779400  s :     2.779400
      pz      :     1.066622  p :     2.938397
      px      :     0.941137
      py      :     0.930638
      dz2     :     0.130676  d :     0.374091
      dxz     :     0.089843
      dyz     :     0.089300
      dx2y2   :     0.014730
      dxy     :     0.049541
      f0      :     0.010605  f :     0.040473
      f+1     :     0.006286
      f-1     :     0.006657
      f+2     :     0.006576
      f-2     :     0.006746
      f+3     :     0.001440
      f-3     :     0.002163

  8 C s       :     2.778106  s :     2.778106
      pz      :     1.021866  p :     2.944635
      px      :     0.972949
      py      :     0.949820
      dz2     :     0.080872  d :     0.372235
      dxz     :     0.102965
      dyz     :     0.093913
      dx2y2   :     0.047820
      dxy     :     0.046666
      f0      :     0.009744  f :     0.040435
      f+1     :     0.006437
      f-1     :     0.006421
      f+2     :     0.001681
      f-2     :     0.007132
      f+3     :     0.004530
      f-3     :     0.004489

  9 C s       :     2.776547  s :     2.776547
      pz      :     1.010246  p :     2.918425
      px      :     0.963073
      py      :     0.945105
      dz2     :     0.097871  d :     0.379063
      dxz     :     0.084869
      dyz     :     0.067247
      dx2y2   :     0.067625
      dxy     :     0.061451
      f0      :     0.008286  f :     0.040991
      f+1     :     0.005269
      f-1     :     0.005014
      f+2     :     0.004757
      f-2     :     0.008159
      f+3     :     0.004834
      f-3     :     0.004672

 10 C s       :     2.772784  s :     2.772784
      pz      :     1.059264  p :     2.984421
      px      :     1.017449
      py      :     0.907708
      dz2     :     0.124776  d :     0.431278
      dxz     :     0.129734
      dyz     :     0.080626
      dx2y2   :     0.042917
      dxy     :     0.053226
      f0      :     0.008538  f :     0.043680
      f+1     :     0.012646
      f-1     :     0.005116
      f+2     :     0.005499
      f-2     :     0.006035
      f+3     :     0.002624
      f-3     :     0.003221

 11 C s       :     2.776767  s :     2.776767
      pz      :     1.006462  p :     2.920297
      px      :     1.028297
      py      :     0.885538
      dz2     :     0.106821  d :     0.379325
      dxz     :     0.096787
      dyz     :     0.034219
      dx2y2   :     0.071125
      dxy     :     0.070374
      f0      :     0.005462  f :     0.041001
      f+1     :     0.010117
      f-1     :     0.002327
      f+2     :     0.006131
      f-2     :     0.007266
      f+3     :     0.004686
      f-3     :     0.005011

 12 C s       :     2.778179  s :     2.778179
      pz      :     1.030979  p :     2.945139
      px      :     1.004659
      py      :     0.909501
      dz2     :     0.081741  d :     0.372354
      dxz     :     0.145249
      dyz     :     0.060148
      dx2y2   :     0.046224
      dxy     :     0.038993
      f0      :     0.008103  f :     0.040415
      f+1     :     0.010362
      f-1     :     0.006071
      f+2     :     0.003341
      f-2     :     0.004040
      f+3     :     0.004332
      f-3     :     0.004166

 13 C s       :     2.779427  s :     2.779427
      pz      :     1.059523  p :     2.939105
      px      :     0.986106
      py      :     0.893475
      dz2     :     0.117251  d :     0.374113
      dxz     :     0.114554
      dyz     :     0.073663
      dx2y2   :     0.030975
      dxy     :     0.037670
      f0      :     0.008384  f :     0.040455
      f+1     :     0.011422
      f-1     :     0.004862
      f+2     :     0.005206
      f-2     :     0.005640
      f+3     :     0.001787
      f-3     :     0.003154

 14 C s       :     2.777861  s :     2.777861
      pz      :     0.994792  p :     2.949178
      px      :     1.040667
      py      :     0.913718
      dz2     :     0.108135  d :     0.373653
      dxz     :     0.094544
      dyz     :     0.032802
      dx2y2   :     0.069320
      dxy     :     0.068852
      f0      :     0.005655  f :     0.040579
      f+1     :     0.009871
      f-1     :     0.002338
      f+2     :     0.005992
      f-2     :     0.007025
      f+3     :     0.004664
      f-3     :     0.005034

 15 C s       :     2.773809  s :     2.773809
      pz      :     1.021522  p :     2.937946
      px      :     1.006056
      py      :     0.910367
      dz2     :     0.081122  d :     0.383008
      dxz     :     0.150506
      dyz     :     0.062810
      dx2y2   :     0.048106
      dxy     :     0.040464
      f0      :     0.008047  f :     0.040996
      f+1     :     0.010527
      f-1     :     0.006240
      f+2     :     0.003381
      f-2     :     0.004044
      f+3     :     0.004544
      f-3     :     0.004213

 16 H s       :     0.813782  s :     0.813782
      pz      :     0.014266  p :     0.058616
      px      :     0.030207
      py      :     0.014143

 17 H s       :     0.805466  s :     0.805466
      pz      :     0.035666  p :     0.059408
      px      :     0.011656
      py      :     0.012086

 18 H s       :     0.817624  s :     0.817624
      pz      :     0.017672  p :     0.058221
      px      :     0.012775
      py      :     0.027774

 19 H s       :     0.804412  s :     0.804412
      pz      :     0.032870  p :     0.059286
      px      :     0.012048
      py      :     0.014367

 20 H s       :     0.793025  s :     0.793025
      pz      :     0.013777  p :     0.059418
      px      :     0.030342
      py      :     0.015298

 21 H s       :     0.799842  s :     0.799842
      pz      :     0.024631  p :     0.056286
      px      :     0.015052
      py      :     0.016604

 22 H s       :     0.795605  s :     0.795605
      pz      :     0.030753  p :     0.055915
      px      :     0.013410
      py      :     0.011752

 23 H s       :     0.795501  s :     0.795501
      pz      :     0.010474  p :     0.055781
      px      :     0.024176
      py      :     0.021130

 24 H s       :     0.794436  s :     0.794436
      pz      :     0.024592  p :     0.055886
      px      :     0.015024
      py      :     0.016270

 25 H s       :     0.779083  s :     0.779083
      pz      :     0.032605  p :     0.058812
      px      :     0.014116
      py      :     0.012091

 26 H s       :     0.778592  s :     0.778592
      pz      :     0.035074  p :     0.059018
      px      :     0.011316
      py      :     0.012627

 27 H s       :     0.794652  s :     0.794652
      pz      :     0.020769  p :     0.055877
      px      :     0.022792
      py      :     0.012315

 28 H s       :     0.795666  s :     0.795666
      pz      :     0.012106  p :     0.055777
      px      :     0.028463
      py      :     0.015208

 29 H s       :     0.795782  s :     0.795782
      pz      :     0.032478  p :     0.055893
      px      :     0.010625
      py      :     0.012790

 30 H s       :     0.798767  s :     0.798767
      pz      :     0.020941  p :     0.056282
      px      :     0.022725
      py      :     0.012616



                      *****************************
                      * MAYER POPULATION ANALYSIS *
                      *****************************

  NA   - Mulliken gross atomic population
  ZA   - Total nuclear charge
  QA   - Mulliken gross atomic charge
  VA   - Mayer's total valence
  BVA  - Mayer's bonded valence
  FA   - Mayer's free valence

  ATOM       NA         ZA         QA         VA         BVA        FA
  0 C      6.4325     6.0000    -0.4325     3.8260     3.8260    -0.0000
  1 C      6.3491     6.0000    -0.3491     3.7422     3.7422    -0.0000
  2 P     14.3750    15.0000     0.6250     4.8842     4.8842    -0.0000
  3 O      8.6100     8.0000    -0.6100     1.9690     1.9690     0.0000
  4 C      6.0224     6.0000    -0.0224     3.6782     3.6782    -0.0000
  5 C      6.1786     6.0000    -0.1786     3.9512     3.9512    -0.0000
  6 C      6.1685     6.0000    -0.1685     4.0500     4.0500    -0.0000
  7 C      6.1377     6.0000    -0.1377     3.9509     3.9509    -0.0000
  8 C      6.1338     6.0000    -0.1338     3.9087     3.9087    -0.0000
  9 C      6.1549     6.0000    -0.1549     3.9594     3.9594    -0.0000
 10 C      6.1050     6.0000    -0.1050     3.7112     3.7112     0.0000
 11 C      6.1259     6.0000    -0.1259     3.9145     3.9145     0.0000
 12 C      6.1415     6.0000    -0.1415     3.9163     3.9163    -0.0000
 13 C      6.1345     6.0000    -0.1345     3.9379     3.9379    -0.0000
 14 C      6.1695     6.0000    -0.1695     4.0462     4.0462     0.0000
 15 C      6.1500     6.0000    -0.1500     3.9233     3.9233     0.0000
 16 H      0.8442     1.0000     0.1558     0.9557     0.9557     0.0000
 17 H      0.8233     1.0000     0.1767     0.9620     0.9620    -0.0000
 18 H      0.8535     1.0000     0.1465     0.9530     0.9530    -0.0000
 19 H      0.8457     1.0000     0.1543     0.9463     0.9463    -0.0000
 20 H      0.8271     1.0000     0.1729     0.9518     0.9518    -0.0000
 21 H      0.8424     1.0000     0.1576     0.9577     0.9577    -0.0000
 22 H      0.8536     1.0000     0.1464     0.9666     0.9666    -0.0000
 23 H      0.8514     1.0000     0.1486     0.9630     0.9630    -0.0000
 24 H      0.8502     1.0000     0.1498     0.9655     0.9655    -0.0000
 25 H      0.8056     1.0000     0.1944     0.9734     0.9734     0.0000
 26 H      0.8031     1.0000     0.1969     0.9720     0.9720     0.0000
 27 H      0.8500     1.0000     0.1500     0.9655     0.9655    -0.0000
 28 H      0.8515     1.0000     0.1485     0.9631     0.9631    -0.0000
 29 H      0.8541     1.0000     0.1459     0.9663     0.9663     0.0000
 30 H      0.8555     1.0000     0.1445     0.9675     0.9675     0.0000

  Mayer bond orders larger than 0.100000
B(  0-C ,  1-C ) :   0.9342 B(  0-C , 16-H ) :   0.9630 B(  0-C , 17-H ) :   0.9661 
B(  0-C , 18-H ) :   0.9694 B(  1-C ,  2-P ) :   0.9335 B(  1-C , 19-H ) :   0.9373 
B(  1-C , 20-H ) :   0.9391 B(  2-P ,  3-O ) :   1.9282 B(  2-P ,  4-C ) :   0.8898 
B(  2-P , 10-C ) :   0.9154 B(  4-C ,  5-C ) :   1.3544 B(  4-C ,  9-C ) :   1.4185 
B(  5-C ,  6-C ) :   1.5167 B(  5-C , 21-H ) :   0.9060 B(  6-C ,  7-C ) :   1.4450 
B(  6-C , 22-H ) :   0.9441 B(  7-C ,  8-C ) :   1.4388 B(  7-C , 23-H ) :   0.9455 
B(  8-C ,  9-C ) :   1.4311 B(  8-C , 24-H ) :   0.9475 B(  9-C , 25-H ) :   0.9070 
B( 10-C , 11-C ) :   1.4007 B( 10-C , 15-C ) :   1.3414 B( 11-C , 12-C ) :   1.4274 
B( 11-C , 26-H ) :   0.9087 B( 12-C , 13-C ) :   1.4405 B( 12-C , 27-H ) :   0.9471 
B( 13-C , 14-C ) :   1.4367 B( 13-C , 28-H ) :   0.9460 B( 14-C , 15-C ) :   1.5137 
B( 14-C , 29-H ) :   0.9450 B( 15-C , 30-H ) :   0.9142 

-------
TIMINGS
-------

Total SCF time: 0 days 0 hours 1 min 20 sec 

Total time                  ....      80.284 sec
Sum of individual times     ....      80.297 sec  (100.0%)

SCF preparation             ....       0.246 sec  (  0.3%)
Fock matrix formation       ....      77.780 sec  ( 96.9%)
  Startup                   ....       0.074 sec  (  0.1% of F)
  Split-RI-J                ....       4.917 sec  (  6.3% of F)
  Chain of spheres X        ....      53.519 sec  ( 68.8% of F)
  XC integration            ....      19.046 sec  ( 24.5% of F)
    Basis function eval.    ....       2.659 sec  ( 14.0% of XC)
    Density eval.           ....       7.842 sec  ( 41.2% of XC)
    XC-Functional eval.     ....       0.325 sec  (  1.7% of XC)
    XC-Potential eval.      ....       7.159 sec  ( 37.6% of XC)
Diagonalization             ....       0.000 sec  (  0.0%)
Density matrix formation    ....       0.194 sec  (  0.2%)
Total Energy calculation    ....       0.075 sec  (  0.1%)
Population analysis         ....       0.145 sec  (  0.2%)
Orbital Transformation      ....       0.268 sec  (  0.3%)
Orbital Orthonormalization  ....       0.000 sec  (  0.0%)
DIIS solution               ....       1.252 sec  (  1.6%)
SOSCF solution              ....       0.337 sec  (  0.4%)
Finished LeanSCF after  80.3 sec

Maximum memory used throughout the entire LEANSCF-calculation: 76.6 MB


-------------------------------------------------------------------------------
                          DFT DISPERSION CORRECTION                            
                                                                               
                              DFTD3 V3.1  Rev 1                                
                              USING zero damping                               
-------------------------------------------------------------------------------
The M062X functional is recognized
Active option DFTDOPT                   ...         3   

molecular C6(AA) [au] = 12263.691902 


            DFT-D V3
 parameters
 s6 scaling factor         :     1.0000 
 rs6 scaling factor        :     1.6190 
 s8 scaling factor         :     0.0000 
 rs8 scaling factor        :     1.0000 
 Damping factor alpha6     :    14.0000 
 Damping factor alpha8     :    16.0000 
 ad hoc parameters k1-k3   :    16.0000     1.3333    -4.0000 

 Edisp/kcal,au: -1.098664723093  -0.001750833495 
 E6   /kcal   :  -1.098664723 
 E8   /kcal   :  -0.000000000 
 % E8         :   0.000000000 

-------------------------   ----------------
Dispersion correction           -0.001750833
-------------------------   ----------------


-------------------------   --------------------
FINAL SINGLE POINT ENERGY      -959.094950193966
-------------------------   --------------------



           ************************************************************
           *        Program running with 6 parallel MPI-processes     *
           *              working on a common directory               *
           ************************************************************

------------------------------------------------------------------------------
                              ORCA PROPERTY CALCULATIONS
------------------------------------------------------------------------------

GBWName                                 ... data/single_point_PO_M06-2x/69082/69082.gbw
Number of atoms                         ...     31
Number of basis functions               ...    592
Max core memory                         ...   1024 MB

Electric properties:
Dipole moment                           ... YES
Quadrupole moment                       ...  NO
Static polarizability (Dipole/Dipole)   ...  NO
Static polarizability (Dipole/Quad.)    ...  NO
Static polarizability (Quad./Quad.)     ...  NO
Static polarizability (Velocity)        ...  NO

Atomic electric properties:
Dipole moment                           ...  NO
Quadrupole moment                       ...  NO
Static polarizability                   ...  NO

Choice of electric origin               ... Center of mass
Position of electric origin             ...    -0.082342    -0.179237    -0.418436

General magnetic properties:
Magnetizability                         ...  NO

EPR properties:
g-Tensor (aka g-matrix)                 ...  NO
Zero-Field splitting spin-orbit         ...  NO
Zero-field splitting spin-spin          ...  NO
Hyperfine couplings                     ...  NO (   0 nuclei)
Quadrupole couplings                    ...  NO (   0 nuclei)
Contact density                         ...  NO (   0 nuclei)

NMR properties:
Chemical shifts                         ...  NO (   0 nuclei)
Spin-rotation constants                 ...  NO (   0 nuclei)
Spin-spin couplings                     ...  NO (   0 nuclei,    0 pairs)

Choice of magnetic origin               ... GIAO
Position of magnetic origin             ...     0.000000     0.000000     0.000000

Properties with geometric perturbations:
SCF Hessian                             ...  NO
IR spectrum                             ...  NO
VCD spectrum                            ...  NO
X-ray spectroscopy properties:
SCF XES/XAS/RIXS spectra                ...  NO


-------------
DIPOLE MOMENT
-------------

Method             : SCF
Type of density    : Electron Density
Multiplicity       :   1
Irrep              :   0
Energy             :  -959.0931993604707486 Eh
Relativity type    : 
Basis              : AO
                                X                 Y                 Z
Electronic contribution:     -1.314910851      -4.435011088      -4.322182138
Nuclear contribution   :      1.249159943       4.024175713       5.861706056
                        -----------------------------------------
Total Dipole Moment    :     -0.065750908      -0.410835374       1.539523918
                        -----------------------------------------
Magnitude (a.u.)       :      1.594754771
Magnitude (Debye)      :      4.053544487



--------------------
Rotational spectrum 
--------------------
 
Rotational constants in cm-1:             0.023270             0.011347             0.009852 
Rotational constants in MHz :           697.626424           340.182348           295.368576 

Dipole components along the rotational axes: 
x,y,z [a.u.] :    -0.044901    -0.919190     1.302427 
x,y,z [Debye]:    -0.114129    -2.336396     3.310506 

 

Dipole moment calculation done in   0.0 sec 

Maximum memory used throughout the entire PROP-calculation: 40.3 MB

--------------------------------
SUGGESTED CITATIONS FOR THIS RUN
--------------------------------

Below you find a list of papers that are relevant to this ORCA run
We neither can nor want to force you to cite these papers, but we appreciate if you do
You receive ORCA, which is the product of decades of hard work by many enthusiastic individuals, for free
The only thing we kindly ask in return is that you cite our papers,
We deeply appreciate it, if you show your appreciation for ORCA by not just citing the generic ORCA reference.

Please note that relegating all ORCA citations to the supporting information does *not* help us.
SI sections are not indexed - citations you put there will not count into any citation statistics
But we need these citations in order to attract the funding resources that allow us to do what we are doing

Therefore, if you are a happy ORCA user, please consider citing a few of the papers listed below in the main body of your paper

In addition to the list printed below, the program has created the file data/single_point_PO_M06-2x/69082/69082.bibtex that contains the list in bibtex format
You can import this file easily into all common literature databanks and citation aid programs


List of essential papers. We consider these as the minimum necessary citations

  1. Neese,F.
     Software update: the ORCA program system, version 5.0
     WIRES Comput. Molec. Sci., 2022 12(1)e1606
     doi.org/10.1002/wcms.1606

List of papers to cite with high priority. The work reported in these papers was absolutely
necessary for this run to complete.
Our perspective: the developers of density functionals and basis sets usually get cited in chemistry papers
Good! But without the algorithms to do something with them, the functionals or basis sets would not do anything.
Hence, in our opinion, the algorithm design and method developments papers are equally worthy of getting cited

  1. Neese,F.
     An improvement of the resolution of the identity approximation for the formation of the Coulomb matrix
     J. Comp. Chem., 2003 24(14)1740-1747
     doi.org/10.1002/jcc.10318
  2. Neese,F.; Wennmohs,F.; Hansen,A.; Becker,U.
     Efficient, approximate and parallel Hartree-Fock and hybrid DFT calculations. A 'chain-of-spheres' algorithm for the Hartree-Fock exchange
     Chem. Phys., 2009 356(1-3)98-109
     doi.org/10.1016/j.chemphys.2008.10.036
  3. Helmich-Paris,B.; de Souza,B.; Neese,F.; Izsák,R.
     An improved chain of spheres for exchange algorithm
     J. Chem. Phys., 2021 155 104109
     doi.org/doi: 10.1063/5.0058766.
  4. Neese,F.
     The SHARK Integral Generation and Digestion System
     J. Comp. Chem., 2022  1-16
     doi.org/10.1002/jcc.26942
  5. Grimme,S.; Antony,J.; Ehrlich,S.; Krieg,H.
     A consistent and accurate ab initio parametrization of density functional dispersion correction (DFT-D) for the 94 elements H-Pu
     J. Chem. Phys., 2010 132 154104-XXXX
     doi.org/10.1063/1.3382344

List of suggested additional citations. These are papers that are important in the 'surrounding' of 
of this run, or papers that preceded the highly important papers. If you like your results we are grateful for a citation.

  1. Izsak,R.; Neese,F.
     An overlap fitted chain of spheres exchange method
     J. Chem. Phys., 2011 135 144105
     doi.org/10.1063/1.3646921
  2. Izsak,R.; Hansen,A.; Neese,F.
     The resolution of identity and chain of spheres approximations for the LPNO-CCSD singles Fock term
     Molec. Phys., 2012 110 2413-2417
     doi.org/10.1080/00268976.2012.687466
  3. Neese,F.
     The ORCA program system
     WIRES Comput. Molec. Sci., 2012 2(1)73-78
     doi.org/10.1002/wcms.81
  4. Izsak,R.; Neese,F.; Klopper,W.
     Robust fitting techniques in the chain of spheres approximation to the Fock exchange: The role of the complementary space
     J. Chem. Phys., 2013 139 
     doi.org/10.1063/1.4819264
  5. Neese,F.
     Software update: the ORCA program system, version 4.0
     WIRES Comput. Molec. Sci., 2018 8(1)1-6
     doi.org/10.1002/wcms.1327
  6. Neese,F.; Wennmohs,F.; Becker,U.; Riplinger,C.
     The ORCA quantum chemistry program package
     J. Chem. Phys., 2020 152 Art. No. L224108
     doi.org/10.1063/5.0004608

List of optional additional citations

  1. Neese,F.
     Approximate second-order SCF convergence for spin unrestricted wavefunctions
     Chem. Phys. Lett., 2000 325(1-3)93-98
     doi.org/10.1016/s0009-2614(00)00662-x

Timings for individual modules:

Sum of individual times          ...       85.189 sec (=   1.420 min)
Startup calculation              ...        3.141 sec (=   0.052 min)   3.7 %
SCF iterations                   ...       81.721 sec (=   1.362 min)  95.9 %
Property calculations            ...        0.327 sec (=   0.005 min)   0.4 %
                             ****ORCA TERMINATED NORMALLY****
TOTAL RUN TIME: 0 days 0 hours 1 minutes 25 seconds 454 msec
