
                                 *****************
                                 * O   R   C   A *
                                 *****************

                                            #,                                       
                                            ###                                      
                                            ####                                     
                                            #####                                    
                                            ######                                   
                                           ########,                                 
                                     ,,################,,,,,                         
                               ,,#################################,,                 
                          ,,##########################################,,             
                       ,#########################################, ''#####,          
                    ,#############################################,,   '####,        
                  ,##################################################,,,,####,       
                ,###########''''           ''''###############################       
              ,#####''   ,,,,##########,,,,          '''####'''          '####       
            ,##' ,,,,###########################,,,                        '##       
           ' ,,###''''                  '''############,,,                           
         ,,##''                                '''############,,,,        ,,,,,,###''
      ,#''                                            '''#######################'''  
     '                                                          ''''####''''         
             ,#######,   #######,   ,#######,      ##                                
            ,#'     '#,  ##    ##  ,#'     '#,    #''#        ,####,   ,####,        
            ##       ##  ##   ,#'  ##            #'  '#       #'       #'  '#        
            ##       ##  #######   ##           ,######,      #####,   #    #        
            '#,     ,#'  ##    ##  '#,     ,#' ,#      #,     #,   #   #,  ,#        
             '#######'   ##     ##  '#######'  #'      '#     '####' # '####'        



                #########################################################
                #                        -***-                          #
                #          Department of theory and spectroscopy        #
                #                                                       #
                #                      Frank Neese                      #
                #                                                       #
                #     Directorship, Architecture, Infrastructure        #
                #                    SHARK, DRIVERS                     #
                #        Core code/Algorithms in most modules           #
                #                                                       #
                #        Max Planck Institute fuer Kohlenforschung      #
                #                Kaiser Wilhelm Platz 1                 #
                #                 D-45470 Muelheim/Ruhr                 #
                #                      Germany                          #
                #                                                       #
                #                  All rights reserved                  #
                #                        -***-                          #
                #########################################################


                         Program Version 6.0.0  -   RELEASE   -


 With contributions from (in alphabetic order):
   Daniel Aravena         : Magnetic Suceptibility
   Michael Atanasov       : Ab Initio Ligand Field Theory (pilot matlab implementation)
   Alexander A. Auer      : GIAO ZORA, VPT2 properties, NMR spectrum
   Ute Becker             : All parallelization in ORCA, NUMFREQ, NUMCALC
   Giovanni Bistoni       : ED, misc. LED, open-shell LED, HFLD
   Martin Brehm           : Molecular dynamics
   Dmytro Bykov           : pre 5.0 version of the SCF Hessian
   Marcos Casanova-Páez   : Triplet and SCS-CIS(D). UHF-(DLPNO)-IP/EA/STEOM-CCSD. UHF-CVS-IP/STEOM-CCSD
   Vijay G. Chilkuri      : MRCI spin determinant printing, contributions to CSF-ICE
   Pauline Colinet        : FMM embedding
   Dipayan Datta          : RHF DLPNO-CCSD density
   Achintya Kumar Dutta   : EOM-CC, STEOM-CC
   Nicolas Foglia         : Exact transition moments, OPA infrastructure, MCD improvements
   Dmitry Ganyushin       : Spin-Orbit,Spin-Spin,Magnetic field MRCI
   Miquel Garcia          : C-PCM and meta-GGA Hessian, CCSD/C-PCM, Gaussian charge scheme
   Tiago L. C. Gouveia    : GS-ROHF, GS-ROCIS
   Yang Guo               : DLPNO-NEVPT2, F12-NEVPT2, CIM, IAO-localization
   Andreas Hansen         : Spin unrestricted coupled pair/coupled cluster methods
   Ingolf Harden          : AUTO-CI MPn and infrastructure 
   Benjamin Helmich-Paris : MC-RPA, TRAH-(SCF,CASSCF), AVAS, COSX integrals, SCF dyn. polar.
   Lee Huntington         : MR-EOM, pCC
   Robert Izsak           : Overlap fitted RIJCOSX, COSX-SCS-MP3, EOM
   Riya Kayal             : Wick's Theorem for AUTO-CI, AUTO-CI UHF-CCSDT
   Emily Kempfer          : AUTO-CI, RHF CISDT and CCSDT
   Christian Kollmar      : KDIIS, OOCD, Brueckner-CCSD(T), CCSD density, CASPT2, CASPT2-K, improved NEVPT2
   Axel Koslowski         : Symmetry handling
   Simone Kossmann        : Meta GGA functionals, TD-DFT gradient, OOMP2, (MP2 Hessian; deprecated post 5.0)
   Lucas Lang             : DCDCAS
   Marvin Lechner         : AUTO-CI (C++ implementation), FIC-MRCC
   Spencer Leger          : CASSCF response
   Dagmar Lenk            : GEPOL surface, SMD, ORCA-2-JSON
   Dimitrios Liakos       : Extrapolation schemes; Compound Job, initial MDCI parallelization
   Dimitrios Manganas     : Further ROCIS development; embedding schemes. LFT, Crystal Embedding
   Dimitrios Pantazis     : SARC Basis sets
   Anastasios Papadopoulos: AUTO-CI, single reference methods and gradients
   Taras Petrenko         : pre 6.0 DFT Hessian and TD-DFT gradient, (ASA, deprecated), ECA, 1-Electron XAS/XES, NRVS
   Peter Pinski           : DLPNO-MP2, DLPNO-MP2 Gradient
   Christoph Reimann      : Effective Core Potentials
   Marius Retegan         : Local ZFS, SOC
   Christoph Riplinger    : Optimizer, TS searches, QM/MM, DLPNO-CCSD(T), (RO)-DLPNO pert. Triples
   Michael Roemelt        : Original ROCIS implementation
   Masaaki Saitow         : Open-shell DLPNO-CCSD energy and density
   Barbara Sandhoefer     : DKH picture change effects
   Kantharuban Sivalingam : CASSCF convergence/infrastructure, NEVPT2 and variants, FIC-MRCI
   Bernardo de Souza      : ESD, SOC TD-DFT
   Georgi Stoychev        : AutoAux, RI-MP2 NMR, DLPNO-MP2 response, X2C
   Van Anh Tran           : RI-MP2 g-tensors
   Willem Van den Heuvel  : Paramagnetic NMR
   Zikuan Wang            : NOTCH, Electric field optimization 
   Frank Wennmohs         : Technical directorship and infrastructure
   Hang Xu                : AUTO-CI-Response properties 


 We gratefully acknowledge several colleagues who have allowed us to
 interface, adapt or use parts of their codes:
   Stefan Grimme, W. Hujo, H. Kruse, P. Pracht,  : VdW corrections, initial TS optimization,
                  C. Bannwarth, S. Ehlert,         DFT functionals, gCP, sTDA/sTD-DF
                  L. Wittmann, M. Mueller
   Ed Valeev, F. Pavosevic, A. Kumar             : LibInt (2-el integral package), F12 methods
   Garnet Chan, S. Sharma, J. Yang, R. Olivares  : DMRG
   Ulf Ekstrom                                   : XCFun DFT Library
   Mihaly Kallay                                 : mrcc  (arbitrary order and MRCC methods)
   Frank Weinhold                                : gennbo (NPA and NBO analysis)
   Simon Mueller                                 : openCOSMO-RS
   Christopher J. Cramer and Donald G. Truhlar   : smd solvation model
   Lars Goerigk                                  : TD-DFT with DH, B97 family of functionals
   V. Asgeirsson, H. Jonsson                     : NEB implementation
   FAccTs GmbH                                   : IRC, NEB, NEB-TS, DLPNO-Multilevel, CI-OPT
                                                   MM, QMMM, 2- and 3-layer-ONIOM, Crystal-QMMM,
                                                   LR-CPCM, SF, NACMEs, symmetry and pop. for TD-DFT,
                                                   nearIR, NL-DFT gradient (VV10), updates on ESD,
                                                   ML-optimized integration grids, MBIS, APM,
                                                   GOAT, DOCKER, SOLVATOR, interface openCOSMO-RS
   S Lehtola, MJT Oliveira, MAL Marques          : LibXC Library
   Liviu Ungur et al                             : ANISO software


 Your calculation uses the libint2 library for the computation of 2-el integrals
 For citations please refer to: http://libint.valeyev.net

 Your ORCA version has been built with support for libXC version: 6.2.2
 For citations please refer to: https://libxc.gitlab.io

 This ORCA versions uses:
   CBLAS   interface :  Fast vector & matrix operations
   LAPACKE interface :  Fast linear algebra routines
   Shared memory     :  Shared parallel matrices


Your calculation utilizes the atom-pairwise dispersion correction
with the zero-damping scheme (D30)


XCFun DFT library Copyright 2009-2010 Ulf Ekstrom and contributors.
See http://admol.org/xcfun for more information.
This is free software; see the source code for copying conditions.
There is ABSOLUTELY NO WARRANTY; not even for MERCHANTABILITY or FITNESS FOR A PARTICULAR PURPOSE.
For details see the documentation.
Scientific users of this library should cite U. Ekstrom, L. Visscher, R. Bast, A. J. Thorvaldsen and K. Ruud;
J.Chem.Theor.Comp. 2010, DOI: 10.1021/ct100117s
XCFun Version 0.99 

Warning: RI is on but no J-basis has been assigned. Assigning Def2/J (nothing to worry about!)
================================================================================

----- Orbital basis set information -----
Your calculation utilizes the basis: def2-TZVP
   F. Weigend and R. Ahlrichs, Phys. Chem. Chem. Phys. 7, 3297 (2005).

----- AuxJ basis set information -----
Your calculation utilizes the auxiliary basis: def2/J
   F. Weigend, Phys. Chem. Chem. Phys. 8, 1057 (2006).

================================================================================
                                        WARNINGS
                       Please study these warnings very carefully!
================================================================================

WARNING: Functional chosen is sensitive to the integration grid.
         DEFGRID3 seems to be a minimum grid for robust results!

================================================================================
                                       INPUT FILE
================================================================================
NAME = data/single_point_P_M06-2x/20851/20851.inp
|  1> ! RIJCOSX M062X def2-TZVP D3ZERO NormalSCF
|  2> %pal
|  3> nprocs 6
|  4> end
|  5> 
|  6> * xyz 0 1
|  7>   C          -5.15245888664491      4.95746669307349      0.72580375371369
|  8>   C          -3.62840927156090      4.81380623814127      0.78084768613128
|  9>   C          -3.03657366133689      4.20624796751087     -0.49816304393316
| 10>   C          -1.50496553517919      4.09081746799595     -0.51959555515561
| 11>   C          -0.93294939285138      3.16629702833367      0.56309851529209
| 12>   C           0.57663656147699      2.90011141902716      0.45981122260583
| 13>   C           1.03742737621802      2.25738420095635     -0.86334184599448
| 14>   C           0.22908754895397      1.02054551316933     -1.28687774446156
| 15>   P           0.04889399546124     -0.28283804094779      0.05510607284872
| 16>   C          -1.00612180212480     -1.48829455792712     -0.93023095513690
| 17>   C          -1.68487828521562     -2.59735384171118     -0.10806868422753
| 18>   C          -2.40366090919471     -2.11921737777589      1.16649251971958
| 19>   C          -3.45566991581243     -1.00782693654497      1.00558018050448
| 20>   C          -4.69481701147201     -1.36264508384681      0.15779102898985
| 21>   C          -4.57454614634938     -1.14323613832729     -1.36268676982486
| 22>   C          -4.35870328411348      0.31631029268621     -1.80055823241699
| 23>   C          -5.50123057256997      1.26467557187992     -1.42092588942633
| 24>   C           1.73999713130973     -1.07873517836787     -0.07962801025233
| 25>   C           1.94334916854840     -2.25931317179837      0.88008795158893
| 26>   C           3.34618436677548     -2.88604151035280      0.81659892142184
| 27>   C           4.47681363830220     -1.95770710981400      1.28252912762628
| 28>   C           5.86741548813468     -2.61150340242701      1.32125838623794
| 29>   C           6.41422085157914     -3.02466747436961     -0.05295127056854
| 30>   C           7.81462636045117     -3.65984735413035     -0.01964242858088
| 31>   C           8.93235644716253     -2.71905973347429      0.44590988591387
| 32>   H          -5.46652534421741      5.60761803318625     -0.11819035000735
| 33>   H          -5.55986913823225      5.39921155940108      1.65805986399194
| 34>   H          -5.64295145487652      3.97212642162362      0.57984816249273
| 35>   H          -3.16182131904277      5.80881134830515      0.96187977712524
| 36>   H          -3.34996156518925      4.18746280192266      1.65609843353441
| 37>   H          -3.47464837584010      3.19433341853824     -0.65224043659649
| 38>   H          -3.36951924525530      4.81231843544242     -1.37050225321423
| 39>   H          -1.19878258429218      3.72173944859688     -1.52271186615118
| 40>   H          -1.04932636803679      5.10312471431221     -0.42204498664887
| 41>   H          -1.47280125368049      2.19212463687599      0.53763808149396
| 42>   H          -1.14642055773055      3.58861574552611      1.56810202433041
| 43>   H           0.86489447747050      2.23346651183737      1.30156279357548
| 44>   H           1.13746041359542      3.84904173656048      0.61058351809407
| 45>   H           0.99109245031404      3.00505711631545     -1.68569255837406
| 46>   H           2.11304706667714      1.98965479356002     -0.77426248942025
| 47>   H           0.66314887895479      0.56443319439535     -2.20424927047367
| 48>   H          -0.80975786772334      1.31684502682276     -1.54990481622583
| 49>   H          -1.77909594840605     -0.85584124743507     -1.41534020669701
| 50>   H          -0.40404392993492     -1.92449256623319     -1.75779369619713
| 51>   H          -0.92768251632892     -3.35593402200635      0.18651912936145
| 52>   H          -2.39761833612794     -3.14001012563861     -0.76805615619771
| 53>   H          -2.88369979574272     -2.99980175455036      1.64886099588054
| 54>   H          -1.63493179268927     -1.75631619386701      1.88283192647587
| 55>   H          -2.97007413036034     -0.08613228988245      0.61348684737024
| 56>   H          -3.79515730448452     -0.73165889153412      2.02659461377685
| 57>   H          -4.97014744897870     -2.42418111984514      0.34762315836336
| 58>   H          -5.56090905833685     -0.77083472114232      0.52546540904346
| 59>   H          -5.50413948804769     -1.51961149069264     -1.84576138455549
| 60>   H          -3.75434388244339     -1.76889391544788     -1.77323124608621
| 61>   H          -4.21672628097292      0.33459050626287     -2.90302242191716
| 62>   H          -3.40418508412430      0.70365353853348     -1.37661947574120
| 63>   H          -6.47600160955671      0.89105996523789     -1.80059929498917
| 64>   H          -5.59627882329292      1.37946670609234     -0.32158880034850
| 65>   H          -5.34471875115837      2.27788566607396     -1.84223062639697
| 66>   H           2.47283888542956     -0.27363675153701      0.14484262425114
| 67>   H           1.92584315693565     -1.39277017047667     -1.13284509430951
| 68>   H           1.19138015016461     -3.04669770821861      0.65699534770275
| 69>   H           1.72998883346367     -1.92485992688559      1.92025069766694
| 70>   H           3.53954631055959     -3.22753286829945     -0.22466659906665
| 71>   H           3.35822959349012     -3.80598517342846      1.44333003685277
| 72>   H           4.22625138200249     -1.57644583071693      2.29775630652916
| 73>   H           4.52180761473523     -1.05918528742849      0.62693988938527
| 74>   H           6.57645429846052     -1.90398847391297      1.80258705267374
| 75>   H           5.83632862407336     -3.50645860071163      1.98495025026417
| 76>   H           5.71135914984048     -3.74199626575557     -0.52908298352199
| 77>   H           6.43113957985633     -2.13155711137045     -0.72009777240900
| 78>   H           7.78976357665766     -4.56016916595810      0.63539068838072
| 79>   H           8.05820255189306     -4.03737026903448     -1.03676672620085
| 80>   H           9.92363470664304     -3.21455886720643      0.40005492755293
| 81>   H           8.78415887869362     -2.38053982711466      1.49200425993975
| 82>   H           8.98354741524472     -1.81055717005084     -0.19141212697804
| 83> **                         ****END OF INPUT****
================================================================================

                       ****************************
                       * Single Point Calculation *
                       ****************************

---------------------------------
CARTESIAN COORDINATES (ANGSTROEM)
---------------------------------
  C     -5.152459    4.957467    0.725804
  C     -3.628409    4.813806    0.780848
  C     -3.036574    4.206248   -0.498163
  C     -1.504966    4.090817   -0.519596
  C     -0.932949    3.166297    0.563099
  C      0.576637    2.900111    0.459811
  C      1.037427    2.257384   -0.863342
  C      0.229088    1.020546   -1.286878
  P      0.048894   -0.282838    0.055106
  C     -1.006122   -1.488295   -0.930231
  C     -1.684878   -2.597354   -0.108069
  C     -2.403661   -2.119217    1.166493
  C     -3.455670   -1.007827    1.005580
  C     -4.694817   -1.362645    0.157791
  C     -4.574546   -1.143236   -1.362687
  C     -4.358703    0.316310   -1.800558
  C     -5.501231    1.264676   -1.420926
  C      1.739997   -1.078735   -0.079628
  C      1.943349   -2.259313    0.880088
  C      3.346184   -2.886042    0.816599
  C      4.476814   -1.957707    1.282529
  C      5.867415   -2.611503    1.321258
  C      6.414221   -3.024667   -0.052951
  C      7.814626   -3.659847   -0.019642
  C      8.932356   -2.719060    0.445910
  H     -5.466525    5.607618   -0.118190
  H     -5.559869    5.399212    1.658060
  H     -5.642951    3.972126    0.579848
  H     -3.161821    5.808811    0.961880
  H     -3.349962    4.187463    1.656098
  H     -3.474648    3.194333   -0.652240
  H     -3.369519    4.812318   -1.370502
  H     -1.198783    3.721739   -1.522712
  H     -1.049326    5.103125   -0.422045
  H     -1.472801    2.192125    0.537638
  H     -1.146421    3.588616    1.568102
  H      0.864894    2.233467    1.301563
  H      1.137460    3.849042    0.610584
  H      0.991092    3.005057   -1.685693
  H      2.113047    1.989655   -0.774262
  H      0.663149    0.564433   -2.204249
  H     -0.809758    1.316845   -1.549905
  H     -1.779096   -0.855841   -1.415340
  H     -0.404044   -1.924493   -1.757794
  H     -0.927683   -3.355934    0.186519
  H     -2.397618   -3.140010   -0.768056
  H     -2.883700   -2.999802    1.648861
  H     -1.634932   -1.756316    1.882832
  H     -2.970074   -0.086132    0.613487
  H     -3.795157   -0.731659    2.026595
  H     -4.970147   -2.424181    0.347623
  H     -5.560909   -0.770835    0.525465
  H     -5.504139   -1.519611   -1.845761
  H     -3.754344   -1.768894   -1.773231
  H     -4.216726    0.334591   -2.903022
  H     -3.404185    0.703654   -1.376619
  H     -6.476002    0.891060   -1.800599
  H     -5.596279    1.379467   -0.321589
  H     -5.344719    2.277886   -1.842231
  H      2.472839   -0.273637    0.144843
  H      1.925843   -1.392770   -1.132845
  H      1.191380   -3.046698    0.656995
  H      1.729989   -1.924860    1.920251
  H      3.539546   -3.227533   -0.224667
  H      3.358230   -3.805985    1.443330
  H      4.226251   -1.576446    2.297756
  H      4.521808   -1.059185    0.626940
  H      6.576454   -1.903988    1.802587
  H      5.836329   -3.506459    1.984950
  H      5.711359   -3.741996   -0.529083
  H      6.431140   -2.131557   -0.720098
  H      7.789764   -4.560169    0.635391
  H      8.058203   -4.037370   -1.036767
  H      9.923635   -3.214559    0.400055
  H      8.784159   -2.380540    1.492004
  H      8.983547   -1.810557   -0.191412

----------------------------
CARTESIAN COORDINATES (A.U.)
----------------------------
  NO LB      ZA    FRAG     MASS         X           Y           Z
   0 C     6.0000    0    12.011   -9.736736    9.368254    1.371570
   1 C     6.0000    0    12.011   -6.856700    9.096775    1.475588
   2 C     6.0000    0    12.011   -5.738293    7.948657   -0.941392
   3 C     6.0000    0    12.011   -2.843973    7.730525   -0.981893
   4 C     6.0000    0    12.011   -1.763019    5.983434    1.064102
   5 C     6.0000    0    12.011    1.089685    5.480416    0.868917
   6 C     6.0000    0    12.011    1.960454    4.265838   -1.631480
   7 C     6.0000    0    12.011    0.432913    1.928552   -2.431847
   8 P    15.0000    0    30.974    0.092396   -0.534486    0.104135
   9 C     6.0000    0    12.011   -1.901295   -2.812469   -1.757882
  10 C     6.0000    0    12.011   -3.183959   -4.908287   -0.204220
  11 C     6.0000    0    12.011   -4.542261   -4.004740    2.204351
  12 C     6.0000    0    12.011   -6.530270   -1.904517    1.900271
  13 C     6.0000    0    12.011   -8.871918   -2.575026    0.298182
  14 C     6.0000    0    12.011   -8.644639   -2.160403   -2.575105
  15 C     6.0000    0    12.011   -8.236756    0.597740   -3.402562
  16 C     6.0000    0    12.011  -10.395819    2.389890   -2.685161
  17 C     6.0000    0    12.011    3.288118   -2.038514   -0.150475
  18 C     6.0000    0    12.011    3.672398   -4.269483    1.663125
  19 C     6.0000    0    12.011    6.323372   -5.453828    1.543148
  20 C     6.0000    0    12.011    8.459952   -3.699530    2.423629
  21 C     6.0000    0    12.011   11.087808   -4.935026    2.496817
  22 C     6.0000    0    12.011   12.121121   -5.715793   -0.100063
  23 C     6.0000    0    12.011   14.767504   -6.916109   -0.037119
  24 C     6.0000    0    12.011   16.879707   -5.138278    0.842648
  25 H     1.0000    0     1.008  -10.330236   10.596862   -0.223347
  26 H     1.0000    0     1.008  -10.506630   10.203031    3.133279
  27 H     1.0000    0     1.008  -10.663633    7.506231    1.095754
  28 H     1.0000    0     1.008   -5.974976   10.977063    1.817689
  29 H     1.0000    0     1.008   -6.330510    7.913158    3.129572
  30 H     1.0000    0     1.008   -6.566134    6.036415   -1.232556
  31 H     1.0000    0     1.008   -6.367469    9.093964   -2.589874
  32 H     1.0000    0     1.008   -2.265371    7.033068   -2.877508
  33 H     1.0000    0     1.008   -1.982939    9.643508   -0.797549
  34 H     1.0000    0     1.008   -2.783191    4.142515    1.015989
  35 H     1.0000    0     1.008   -2.166421    6.781501    2.963283
  36 H     1.0000    0     1.008    1.634414    4.220640    2.459597
  37 H     1.0000    0     1.008    2.149489    7.273635    1.153836
  38 H     1.0000    0     1.008    1.872893    5.678735   -3.185497
  39 H     1.0000    0     1.008    3.993080    3.759903   -1.463144
  40 H     1.0000    0     1.008    1.253170    1.066624   -4.165427
  41 H     1.0000    0     1.008   -1.530221    2.488476   -2.928896
  42 H     1.0000    0     1.008   -3.362004   -1.617306   -2.674605
  43 H     1.0000    0     1.008   -0.763532   -3.636764   -3.321749
  44 H     1.0000    0     1.008   -1.753066   -6.341796    0.352470
  45 H     1.0000    0     1.008   -4.530842   -5.933759   -1.451416
  46 H     1.0000    0     1.008   -5.449403   -5.668804    3.115896
  47 H     1.0000    0     1.008   -3.089573   -3.318957    3.558037
  48 H     1.0000    0     1.008   -5.612627   -0.162766    1.159322
  49 H     1.0000    0     1.008   -7.171808   -1.382635    3.829709
  50 H     1.0000    0     1.008   -9.392218   -4.581038    0.656913
  51 H     1.0000    0     1.008  -10.508595   -1.456667    0.992986
  52 H     1.0000    0     1.008  -10.401316   -2.871650   -3.487984
  53 H     1.0000    0     1.008   -7.094682   -3.342725   -3.350921
  54 H     1.0000    0     1.008   -7.968458    0.632284   -5.485917
  55 H     1.0000    0     1.008   -6.432978    1.329712   -2.601434
  56 H     1.0000    0     1.008  -12.237869    1.683859   -3.402640
  57 H     1.0000    0     1.008  -10.575434    2.606814   -0.607715
  58 H     1.0000    0     1.008  -10.100055    4.304580   -3.481311
  59 H     1.0000    0     1.008    4.672988   -0.517099    0.273713
  60 H     1.0000    0     1.008    3.639316   -2.631954   -2.140767
  61 H     1.0000    0     1.008    2.251382   -5.757424    1.241541
  62 H     1.0000    0     1.008    3.269205   -3.637458    3.628748
  63 H     1.0000    0     1.008    6.688773   -6.099153   -0.424558
  64 H     1.0000    0     1.008    6.346134   -7.192270    2.727498
  65 H     1.0000    0     1.008    7.986458   -2.979051    4.342130
  66 H     1.0000    0     1.008    8.544978   -2.001570    1.184745
  67 H     1.0000    0     1.008   12.427698   -3.598017    3.406396
  68 H     1.0000    0     1.008   11.029063   -6.626246    3.751012
  69 H     1.0000    0     1.008   10.792905   -7.071348   -0.999822
  70 H     1.0000    0     1.008   12.153093   -4.028059   -1.360788
  71 H     1.0000    0     1.008   14.720520   -8.617471    1.200714
  72 H     1.0000    0     1.008   15.227796   -7.629524   -1.959205
  73 H     1.0000    0     1.008   18.752952   -6.074636    0.755994
  74 H     1.0000    0     1.008   16.599655   -4.498568    2.819479
  75 H     1.0000    0     1.008   16.976444   -3.421457   -0.361716

--------------------------------
INTERNAL COORDINATES (ANGSTROEM)
--------------------------------
 C      0   0   0     0.000000000000     0.00000000     0.00000000
 C      1   0   0     1.531794826354     0.00000000     0.00000000
 C      2   1   0     1.534687228513   113.00863914     0.00000000
 C      3   2   1     1.536101235228   115.20688767   177.67690755
 C      4   3   2     1.534329482419   114.02623840    62.68794078
 C      5   4   3     1.536350479851   115.04153838   172.99303277
 C      6   5   4     1.541479968973   115.06637474   300.97319422
 C      7   6   5     1.537064043311   114.50856499   310.43313415
 P      8   7   6     1.879414528992   114.31261942   309.12172202
 C      9   8   7     1.880710718373    97.13408908   178.65453580
 C     10   9   8     1.538399706836   115.44128895   193.70725824
 C     11  10   9     1.539405470071   115.12391001    47.40785499
 C     12  11  10     1.538767183097   117.19189646    54.38649930
 C     13  12  11     1.542766310159   116.13427040    63.79124722
 C     14  13  12     1.540927676129   116.53821664   273.15026342
 C     15  14  13     1.539024152902   115.25941893   296.82080486
 C     16  15  14     1.532607589532   114.31864313   298.26099689
 C      9   8   7     1.873882424961    99.01467999   281.37574551
 C     18   9   8     1.534982467989   113.65754844   181.69520139
 C     19  18   9     1.537779522781   114.11037206   182.22943383
 C     20  19  18     1.535323505295   114.38285520    65.37632512
 C     21  20  19     1.537115172154   114.62534015   175.64758582
 C     22  21  20     1.535627831441   114.45824322    65.39297133
 C     23  22  21     1.538082750663   114.57829457   179.12086416
 C     24  23  22     1.533343031240   114.63882576   295.09836130
 H      1   2   3     1.110702728879   111.31758156   300.45359773
 H      1   2   3     1.109154225154   111.87654593   180.07799084
 H      1   2   3     1.110306914614   111.16304278    59.81101839
 H      2   1   3     1.113782790609   109.80745133   122.08728595
 H      2   1   3     1.111711786439   109.28889349   237.59165094
 H      3   2   1     1.113382392909   108.86880656   300.16152039
 H      3   2   1     1.113171087479   108.79681721    54.76202103
 H      4   3   2     1.111849323066   108.18635356   184.78155544
 H      4   3   2     1.114400791903   109.76642954   299.47236581
 H      5   4   3     1.114046728647   109.27582713    50.22823258
 H      5   4   3     1.110835311964   109.73639627   295.51348506
 H      6   5   4     1.111779549032   107.92356683   179.28340728
 H      6   5   4     1.112530640354   109.78090380    64.00730398
 H      7   6   5     1.112394897449   109.99010461    72.74401359
 H      7   6   5     1.112012538534   108.70952294   187.37671210
 H      8   7   6     1.112662663289   110.60274174   184.33198001
 H      8   7   6     1.111834718843   110.00598289    67.34863840
 H     10   9   8     1.110323019090   104.73417434   314.43530058
 H     10   9   8     1.112486654761   109.72185957    67.79188121
 H     11  10   9     1.111562549869   109.45518207   285.43706788
 H     11  10   9     1.112680405965   108.49480311   171.24976871
 H     12  11  10     1.112899601946   108.33097299   177.85523677
 H     12  11  10     1.111658162169   108.18199545   292.45483083
 H     13  12  11     1.113131380576   109.67195176   297.90484825
 H     13  12  11     1.110851452312   107.00060746   185.05676893
 H     14  13  12     1.112969830177   108.92491589    36.75043217
 H     14  13  12     1.111548194544   108.76046704   150.65526409
 H     15  14  13     1.113177106392   108.35355018   175.30820307
 H     15  14  13     1.110282024882   110.01586823    60.53518004
 H     16  15  14     1.111718905461   108.39998464   176.06956471
 H     16  15  14     1.113940686763   109.97822334    61.54908690
 H     17  16  15     1.110819108121   111.18536162   305.51720125
 H     17  16  15     1.109393171910   111.92270903    65.57433657
 H     17  16  15     1.108417036414   111.48305959   185.51896998
 H     18   9   8     1.111587863923   105.83247559    60.76532234
 H     18   9   8     1.114640277246   109.75933584   306.14663244
 H     19  18   9     1.111396474131   109.25374206    60.36519154
 H     19  18   9     1.113247566334   109.13088628   305.23419607
 H     20  19  18     1.112761912097   108.79755162   301.97991560
 H     20  19  18     1.113208570650   108.87019332   187.19317228
 H     21  20  19     1.113026429158   108.55099410    53.47110336
 H     21  20  19     1.113177062518   109.82169520   298.41753438
 H     22  21  20     1.111301351458   108.50149661   187.83611444
 H     22  21  20     1.114629126853   109.34672535   302.69917101
 H     23  22  21     1.111429968465   109.37996763   301.27463462
 H     23  22  21     1.114906641285   108.98761379    56.36328262
 H     24  23  22     1.113672262018   109.04226198    58.23864427
 H     24  23  22     1.111932888768   108.65383147   172.83608228
 H     25  24  23     1.109168452695   111.39693248   182.91448668
 H     25  24  23     1.109446567289   112.09358897    62.87342847
 H     25  24  23     1.110935088597   111.17155617   302.76795020

---------------------------
INTERNAL COORDINATES (A.U.)
---------------------------
 C      0   0   0     0.000000000000     0.00000000     0.00000000
 C      1   0   0     2.894672715167     0.00000000     0.00000000
 C      2   1   0     2.900138563116   113.00863914     0.00000000
 C      3   2   1     2.902810648558   115.20688767   177.67690755
 C      4   3   2     2.899462520973   114.02623840    62.68794078
 C      5   4   3     2.903281652637   115.04153838   172.99303277
 C      6   5   4     2.912974982284   115.06637474   300.97319422
 C      7   6   5     2.904630092155   114.50856499   310.43313415
 P      8   7   6     3.551578751907   114.31261942   309.12172202
 C      9   8   7     3.554028194856    97.13408908   178.65453580
 C     10   9   8     2.907154130424   115.44128895   193.70725824
 C     11  10   9     2.909054747495   115.12391001    47.40785499
 C     12  11  10     2.907848559919   117.19189646    54.38649930
 C     13  12  11     2.915405814841   116.13427040    63.79124722
 C     14  13  12     2.911931300063   116.53821664   273.15026342
 C     15  14  13     2.908334162474   115.25941893   296.82080486
 C     16  15  14     2.896208614986   114.31864313   298.26099689
 C      9   8   7     3.541124590345    99.01467999   281.37574551
 C     18   9   8     2.900696484870   113.65754844   181.69520139
 C     19  18   9     2.905982152408   114.11037206   182.22943383
 C     20  19  18     2.901340951979   114.38285520    65.37632512
 C     21  20  19     2.904726711665   114.62534015   175.64758582
 C     22  21  20     2.901916045051   114.45824322    65.39297133
 C     23  22  21     2.906555170061   114.57829457   179.12086416
 C     24  23  22     2.897598398399   114.63882576   295.09836130
 H      1   2   3     2.098923973780   111.31758156   300.45359773
 H      1   2   3     2.095997725822   111.87654593   180.07799084
 H      1   2   3     2.098175993220   111.16304278    59.81101839
 H      2   1   3     2.104744446926   109.80745133   122.08728595
 H      2   1   3     2.100830816222   109.28889349   237.59165094
 H      3   2   1     2.103987804928   108.86880656   300.16152039
 H      3   2   1     2.103588495534   108.79681721    54.76202103
 H      4   3   2     2.101090722781   108.18635356   184.78155544
 H      4   3   2     2.105912300122   109.76642954   299.47236581
 H      5   4   3     2.105243217533   109.27582713    50.22823258
 H      5   4   3     2.099174519500   109.73639627   295.51348506
 H      6   5   4     2.100958868964   107.92356683   179.28340728
 H      6   5   4     2.102378225864   109.78090380    64.00730398
 H      7   6   5     2.102121708951   109.99010461    72.74401359
 H      7   6   5     2.101399155315   108.70952294   187.37671210
 H      8   7   6     2.102627713056   110.60274174   184.33198001
 H      8   7   6     2.101063124798   110.00598289    67.34863840
 H     10   9   8     2.098206426268   104.73417434   314.43530058
 H     10   9   8     2.102295105141   109.72185957    67.79188121
 H     11  10   9     2.100548799976   109.45518207   285.43706788
 H     11  10   9     2.102661241854   108.49480311   171.24976871
 H     12  11  10     2.103075462228   108.33097299   177.85523677
 H     12  11  10     2.100729481038   108.18199545   292.45483083
 H     13  12  11     2.103513460363   109.67195176   297.90484825
 H     13  12  11     2.099205020338   107.00060746   185.05676893
 H     14  13  12     2.103208174350   108.92491589    36.75043217
 H     14  13  12     2.100521672343   108.76046704   150.65526409
 H     15  14  13     2.103599869632   108.35355018   175.30820307
 H     15  14  13     2.098128958443   110.01586823    60.53518004
 H     16  15  14     2.100844269224   108.39998464   176.06956471
 H     16  15  14     2.105042827414   109.97822334    61.54908690
 H     17  16  15     2.099143898675   111.18536162   305.51720125
 H     17  16  15     2.096449269753   111.92270903    65.57433657
 H     17  16  15     2.094604640995   111.48305959   185.51896998
 H     18   9   8     2.100596636605   105.83247559    60.76532234
 H     18   9   8     2.106364861833   109.75933584   306.14663244
 H     19  18   9     2.100234962314   109.25374206    60.36519154
 H     19  18   9     2.103733019626   109.13088628   305.23419607
 H     20  19  18     2.102815266122   108.79755162   301.97991560
 H     20  19  18     2.103659328463   108.87019332   187.19317228
 H     21  20  19     2.103315130925   108.55099410    53.47110336
 H     21  20  19     2.103599786721   109.82169520   298.41753438
 H     22  21  20     2.100055206511   108.50149661   187.83611444
 H     22  21  20     2.106343790643   109.34672535   302.69917101
 H     23  22  21     2.100298257432   109.37996763   301.27463462
 H     23  22  21     2.106868216918   108.98761379    56.36328262
 H     24  23  22     2.104535578158   109.04226198    58.23864427
 H     24  23  22     2.101248639071   108.65383147   172.83608228
 H     25  24  23     2.096024611979   111.39693248   182.91448668
 H     25  24  23     2.096550172396   112.09358897    62.87342847
 H     25  24  23     2.099363070013   111.17155617   302.76795020

---------------------
BASIS SET INFORMATION
---------------------
There are 3 groups of distinct atoms

 Group   1 Type C   : 11s6p2d1f contracted to 5s3p2d1f pattern {62111/411/11/1}
 Group   2 Type P   : 14s9p3d1f contracted to 5s5p2d1f pattern {73211/51111/21/1}
 Group   3 Type H   : 5s1p contracted to 3s1p pattern {311/1}

Atom   0C    basis set group =>   1
Atom   1C    basis set group =>   1
Atom   2C    basis set group =>   1
Atom   3C    basis set group =>   1
Atom   4C    basis set group =>   1
Atom   5C    basis set group =>   1
Atom   6C    basis set group =>   1
Atom   7C    basis set group =>   1
Atom   8P    basis set group =>   2
Atom   9C    basis set group =>   1
Atom  10C    basis set group =>   1
Atom  11C    basis set group =>   1
Atom  12C    basis set group =>   1
Atom  13C    basis set group =>   1
Atom  14C    basis set group =>   1
Atom  15C    basis set group =>   1
Atom  16C    basis set group =>   1
Atom  17C    basis set group =>   1
Atom  18C    basis set group =>   1
Atom  19C    basis set group =>   1
Atom  20C    basis set group =>   1
Atom  21C    basis set group =>   1
Atom  22C    basis set group =>   1
Atom  23C    basis set group =>   1
Atom  24C    basis set group =>   1
Atom  25H    basis set group =>   3
Atom  26H    basis set group =>   3
Atom  27H    basis set group =>   3
Atom  28H    basis set group =>   3
Atom  29H    basis set group =>   3
Atom  30H    basis set group =>   3
Atom  31H    basis set group =>   3
Atom  32H    basis set group =>   3
Atom  33H    basis set group =>   3
Atom  34H    basis set group =>   3
Atom  35H    basis set group =>   3
Atom  36H    basis set group =>   3
Atom  37H    basis set group =>   3
Atom  38H    basis set group =>   3
Atom  39H    basis set group =>   3
Atom  40H    basis set group =>   3
Atom  41H    basis set group =>   3
Atom  42H    basis set group =>   3
Atom  43H    basis set group =>   3
Atom  44H    basis set group =>   3
Atom  45H    basis set group =>   3
Atom  46H    basis set group =>   3
Atom  47H    basis set group =>   3
Atom  48H    basis set group =>   3
Atom  49H    basis set group =>   3
Atom  50H    basis set group =>   3
Atom  51H    basis set group =>   3
Atom  52H    basis set group =>   3
Atom  53H    basis set group =>   3
Atom  54H    basis set group =>   3
Atom  55H    basis set group =>   3
Atom  56H    basis set group =>   3
Atom  57H    basis set group =>   3
Atom  58H    basis set group =>   3
Atom  59H    basis set group =>   3
Atom  60H    basis set group =>   3
Atom  61H    basis set group =>   3
Atom  62H    basis set group =>   3
Atom  63H    basis set group =>   3
Atom  64H    basis set group =>   3
Atom  65H    basis set group =>   3
Atom  66H    basis set group =>   3
Atom  67H    basis set group =>   3
Atom  68H    basis set group =>   3
Atom  69H    basis set group =>   3
Atom  70H    basis set group =>   3
Atom  71H    basis set group =>   3
Atom  72H    basis set group =>   3
Atom  73H    basis set group =>   3
Atom  74H    basis set group =>   3
Atom  75H    basis set group =>   3
---------------------------------
AUXILIARY/J BASIS SET INFORMATION
---------------------------------
There are 3 groups of distinct atoms

 Group   1 Type C   : 12s5p4d2f1g contracted to 6s4p3d1f1g pattern {711111/2111/211/2/1}
 Group   2 Type P   : 14s5p5d2f1g contracted to 8s4p3d1f1g pattern {71111111/2111/311/2/1}
 Group   3 Type H   : 5s2p1d contracted to 3s1p1d pattern {311/2/1}

Atom   0C    basis set group =>   1
Atom   1C    basis set group =>   1
Atom   2C    basis set group =>   1
Atom   3C    basis set group =>   1
Atom   4C    basis set group =>   1
Atom   5C    basis set group =>   1
Atom   6C    basis set group =>   1
Atom   7C    basis set group =>   1
Atom   8P    basis set group =>   2
Atom   9C    basis set group =>   1
Atom  10C    basis set group =>   1
Atom  11C    basis set group =>   1
Atom  12C    basis set group =>   1
Atom  13C    basis set group =>   1
Atom  14C    basis set group =>   1
Atom  15C    basis set group =>   1
Atom  16C    basis set group =>   1
Atom  17C    basis set group =>   1
Atom  18C    basis set group =>   1
Atom  19C    basis set group =>   1
Atom  20C    basis set group =>   1
Atom  21C    basis set group =>   1
Atom  22C    basis set group =>   1
Atom  23C    basis set group =>   1
Atom  24C    basis set group =>   1
Atom  25H    basis set group =>   3
Atom  26H    basis set group =>   3
Atom  27H    basis set group =>   3
Atom  28H    basis set group =>   3
Atom  29H    basis set group =>   3
Atom  30H    basis set group =>   3
Atom  31H    basis set group =>   3
Atom  32H    basis set group =>   3
Atom  33H    basis set group =>   3
Atom  34H    basis set group =>   3
Atom  35H    basis set group =>   3
Atom  36H    basis set group =>   3
Atom  37H    basis set group =>   3
Atom  38H    basis set group =>   3
Atom  39H    basis set group =>   3
Atom  40H    basis set group =>   3
Atom  41H    basis set group =>   3
Atom  42H    basis set group =>   3
Atom  43H    basis set group =>   3
Atom  44H    basis set group =>   3
Atom  45H    basis set group =>   3
Atom  46H    basis set group =>   3
Atom  47H    basis set group =>   3
Atom  48H    basis set group =>   3
Atom  49H    basis set group =>   3
Atom  50H    basis set group =>   3
Atom  51H    basis set group =>   3
Atom  52H    basis set group =>   3
Atom  53H    basis set group =>   3
Atom  54H    basis set group =>   3
Atom  55H    basis set group =>   3
Atom  56H    basis set group =>   3
Atom  57H    basis set group =>   3
Atom  58H    basis set group =>   3
Atom  59H    basis set group =>   3
Atom  60H    basis set group =>   3
Atom  61H    basis set group =>   3
Atom  62H    basis set group =>   3
Atom  63H    basis set group =>   3
Atom  64H    basis set group =>   3
Atom  65H    basis set group =>   3
Atom  66H    basis set group =>   3
Atom  67H    basis set group =>   3
Atom  68H    basis set group =>   3
Atom  69H    basis set group =>   3
Atom  70H    basis set group =>   3
Atom  71H    basis set group =>   3
Atom  72H    basis set group =>   3
Atom  73H    basis set group =>   3
Atom  74H    basis set group =>   3
Atom  75H    basis set group =>   3


           ************************************************************
           *        Program running with 6 parallel MPI-processes     *
           *              working on a common directory               *
           ************************************************************
------------------------------------------------------------------------------
                             ORCA STARTUP CALCULATIONS
                           -- RI-GTO INTEGRALS CHOSEN --
------------------------------------------------------------------------------
------------------------------------------------------------------------------
                   ___                                                        
                  /   \      - P O W E R E D   B Y -                         
                 /     \                                                     
                 |  |  |   _    _      __       _____    __    __             
                 |  |  |  | |  | |    /  \     |  _  \  |  |  /  |          
                  \  \/   | |  | |   /    \    | | | |  |  | /  /          
                 / \  \   | |__| |  /  /\  \   | |_| |  |  |/  /          
                |  |  |   |  __  | /  /__\  \  |    /   |      \           
                |  |  |   | |  | | |   __   |  |    \   |  |\   \          
                \     /   | |  | | |  |  |  |  | |\  \  |  | \   \       
                 \___/    |_|  |_| |__|  |__|  |_| \__\ |__|  \__/        
                                                                              
                      - O R C A' S   B I G   F R I E N D -                    
                                      &                                       
                       - I N T E G R A L  F E E D E R -                       
                                                                              
 v1 FN, 2020, v2 2021, v3 2022-2024                                           
------------------------------------------------------------------------------


----------------------
SHARK INTEGRAL PACKAGE
----------------------

Number of atoms                             ...     76
Number of basis functions                   ...   1087
Number of shells                            ...    481
Maximum angular momentum                    ...      3
Integral batch strategy                     ... SHARK/LIBINT Hybrid
RI-J (if used) integral strategy            ... SPLIT-RIJ (Revised 2003 algorithm where possible)
Printlevel                                  ...      1
Contraction scheme used                     ... SEGMENTED contraction
Prescreening option                         ... SCHWARTZ
   Thresh                                   ... 1.000e-10
   Tcut                                     ... 1.000e-11
   Tpresel                                  ... 1.000e-11 
Coulomb Range Separation                    ... NOT USED
Exchange Range Separation                   ... NOT USED
Multipole approximations                    ... NOT USED
Finite Nucleus Model                        ... NOT USED
CABS basis                                  ... NOT available
Auxiliary Coulomb fitting basis             ... AVAILABLE
   # of basis functions in Aux-J            ...   1788
   # of shells in Aux-J                     ...    632
   Maximum angular momentum in Aux-J        ...      4
Auxiliary J/K fitting basis                 ... NOT available
Auxiliary Correlation fitting basis         ... NOT available
Auxiliary 'external' fitting basis          ... NOT available

Checking pre-screening integrals            ... done (  0.0 sec) Dimension = 481
Check shell pair data                       ... done (  0.0 sec)
Shell pair information
Shell pair cut-off parameter TPreSel        ...   1.0e-11
Total number of shell pairs                 ...    115921
Shell pairs after pre-screening             ...     62776
Total number of primitive shell pairs       ...    331608
Primitive shell pairs kept                  ...    118330
          la=0 lb=0:  21357 shell pairs
          la=1 lb=0:  19650 shell pairs
          la=1 lb=1:   4585 shell pairs
          la=2 lb=0:   7396 shell pairs
          la=2 lb=1:   3410 shell pairs
          la=2 lb=2:    676 shell pairs
          la=3 lb=0:   3396 shell pairs
          la=3 lb=1:   1581 shell pairs
          la=3 lb=2:    586 shell pairs
          la=3 lb=3:    139 shell pairs

Calculating one electron integrals          ... done (  0.1 sec)
Calculating RI/J V-Matrix + Cholesky decomp.... done (  0.2 sec)
Calculating Nuclear repulsion               ... done (  0.0 sec) ENN=   2488.420821143864 Eh

Diagonalization of the overlap matrix:
Smallest eigenvalue                        ... 5.666e-05
Time for diagonalization                   ...    0.275 sec
Threshold for overlap eigenvalues          ... 1.000e-07
Number of eigenvalues below threshold      ... 0
Time for construction of square roots      ...    0.158 sec
Total time needed                          ...    0.444 sec

-------------------
DFT GRID GENERATION
-------------------

General Integration Accuracy     IntAcc      ... 4.388
Radial Grid Type                 RadialGrid  ... OptM3 with GC (2021)
Angular Grid (max. ang.)         AngularGrid ... 4 (Lebedev-302)
Angular grid pruning method      GridPruning ... 4 (adaptive)
Weight generation scheme         WeightScheme... mBecke (2022)
Basis function cutoff            BFCut       ... 1.0000e-10
Integration weight cutoff        WCut        ... 1.0000e-14
Partially contracted basis set               ... off
Rotationally invariant grid construction     ... off
Angular grids for H and He will be reduced by one unit

Total number of grid points                  ...   310231
Total number of batches                      ...     4885
Average number of points per batch           ...       63
Average number of grid points per atom       ...     4082

--------------------
COSX GRID GENERATION
--------------------

GRIDX 1
-------
General Integration Accuracy     IntAcc      ... 3.816
Radial Grid Type                 RadialGrid  ... OptM3 with GC (2021)
Angular Grid (max. ang.)         AngularGrid ... 1 (Lebedev-50)
Angular grid pruning method      GridPruning ... 4 (adaptive)
Weight generation scheme         WeightScheme... mBecke (2022)
Basis function cutoff            BFCut       ... 1.0000e-10
Integration weight cutoff        WCut        ... 1.0000e-14
Partially contracted basis set               ... on
Rotationally invariant grid construction     ... off
Angular grids for H and He will be reduced by one unit

Total number of grid points                  ...    40507
Total number of batches                      ...      369
Average number of points per batch           ...      109
Average number of grid points per atom       ...      533
UseSFitting                                  ... on

GRIDX 2
-------
General Integration Accuracy     IntAcc      ... 4.020
Radial Grid Type                 RadialGrid  ... OptM3 with GC (2021)
Angular Grid (max. ang.)         AngularGrid ... 2 (Lebedev-110)
Angular grid pruning method      GridPruning ... 4 (adaptive)
Weight generation scheme         WeightScheme... mBecke (2022)
Basis function cutoff            BFCut       ... 1.0000e-10
Integration weight cutoff        WCut        ... 1.0000e-14
Partially contracted basis set               ... on
Rotationally invariant grid construction     ... off
Angular grids for H and He will be reduced by one unit

Total number of grid points                  ...    80266
Total number of batches                      ...      671
Average number of points per batch           ...      119
Average number of grid points per atom       ...     1056
UseSFitting                                  ... on

GRIDX 3
-------
General Integration Accuracy     IntAcc      ... 4.338
Radial Grid Type                 RadialGrid  ... OptM3 with GC (2021)
Angular Grid (max. ang.)         AngularGrid ... 3 (Lebedev-194)
Angular grid pruning method      GridPruning ... 4 (adaptive)
Weight generation scheme         WeightScheme... mBecke (2022)
Basis function cutoff            BFCut       ... 1.0000e-10
Integration weight cutoff        WCut        ... 1.0000e-14
Partially contracted basis set               ... on
Rotationally invariant grid construction     ... off
Angular grids for H and He will be reduced by one unit

Total number of grid points                  ...   173582
Total number of batches                      ...     1401
Average number of points per batch           ...      123
Average number of grid points per atom       ...     2284
UseSFitting                                  ... on
Initializing property integral containers    ... done (  0.0 sec)

SHARK setup successfully completed in   7.9 seconds

Maximum memory used throughout the entire STARTUP-calculation: 127.9 MB


           ************************************************************
           *        Program running with 6 parallel MPI-processes     *
           *              working on a common directory               *
           ************************************************************
-------------------------------------------------------------------------------
                                 ORCA GUESS
                   Start orbitals & Density for SCF / CASSCF
-------------------------------------------------------------------------------

------------
SCF SETTINGS
------------
Hamiltonian:
 Density Functional     Method          .... DFT(GTOs)
 Exchange Functional    Exchange        .... M062X
 Correlation Functional Correlation     .... M062X
 Gradients option       PostSCFGGA      .... off
 Hybrid DFT is turned on
   Fraction HF Exchange ScalHFX         ....  0.540000
   Scaling of DF-GGA-X  ScalDFX         ....  0.460000
   Scaling of DF-GGA-C  ScalDFC         ....  1.000000
   Scaling of DF-LDA-C  ScalLDAC        ....  1.000000
   Perturbative correction              ....  0.000000
 RI-approximation to the Coulomb term is turned on
   Number of AuxJ basis functions       .... 1788
   RIJ-COSX (HFX calculated with COS-X)).... on


General Settings:
 Integral files         IntName         .... data/single_point_P_M06-2x/20851/20851
 Hartree-Fock type      HFTyp           .... RHF
 Total Charge           Charge          ....    0
 Multiplicity           Mult            ....    1
 Number of Electrons    NEL             ....  210
 Basis Dimension        Dim             .... 1087
 Nuclear Repulsion      ENuc            ....   2488.4208211439 Eh

Convergence Acceleration:
 AO-DIIS                CNVDIIS         .... on
   Start iteration      DIISMaxIt       ....    12
   Startup error        DIISStart       ....  0.200000
   # of expansion vecs  DIISMaxEq       ....     5
   Bias factor          DIISBfac        ....   1.050
   Max. coefficient     DIISMaxC        ....  10.000
 MO-DIIS                CNVKDIIS        .... off
 Trust-Rad. Augm. Hess. CNVTRAH         .... auto
   Auto Start mean grad. ratio tolernc. ....  1.125000
   Auto Start start iteration           ....    50
   Auto Start num. interpolation iter.  ....    10
   Max. Number of Micro iterations      ....    24
   Max. Number of Macro iterations      .... Maxiter - #DIIS iter
   Number of Davidson start vectors     ....     2
   Converg. threshold    (grad. norm)   ....   5.000e-05
   Grad. Scal. Fac. for Micro threshold ....   0.100
   Minimum threshold for Micro iter.    ....   1.000e-02
   NR start threshold (gradient norm)   ....   1.000e-04
   Initial trust radius                 ....   0.400
   Minimum AH scaling param. (alpha)    ....   1.000
   Maximum AH scaling param. (alpha)    .... 1000.000
   Quad. conv. algorithm                .... NR
   White noise on init. David. guess    .... on
   Maximum white noise                  ....   0.010
   Pseudo random numbers                .... off
   Inactive MOs                         .... canonical
   Orbital update algorithm             .... Taylor
   Preconditioner                       .... Diag
   Full preconditioner red. dimension   ....   250
 SOSCF                  CNVSOSCF        .... on
   Start iteration      SOSCFMaxIt      ....   150
   Startup grad/error   SOSCFStart      ....  0.003300
   Hessian update       SOSCFHessUp     .... L-BFGS
 Level Shifting         CNVShift        .... on
   Level shift para.    LevelShift      ....    0.2500
   Turn off err/grad.   ShiftErr        ....    0.0010
 Zerner damping         CNVZerner       .... off
 Static damping         CNVDamp         .... on
   Fraction old density DampFac         ....    0.7000
   Max. Damping (<1)    DampMax         ....    0.9800
   Min. Damping (>=0)   DampMin         ....    0.0000
   Turn off err/grad.   DampErr         ....    0.1000

SCF Procedure:
 Maximum # iterations   MaxIter         ....   125
 SCF integral mode      SCFMode         .... Direct
   Integral package                     .... SHARK and LIBINT hybrid scheme
 Reset frequency        DirectResetFreq ....    20
 Integral Threshold     Thresh          ....  1.000e-10 Eh
 Primitive CutOff       TCut            ....  1.000e-11 Eh

Convergence Tolerance:
 Convergence Check Mode ConvCheckMode   .... Total+1el-Energy
 Convergence forced     ConvForced      .... 0
 Energy Change          TolE            ....  1.000e-06 Eh
 1-El. energy change                    ....  1.000e-03 Eh
 Orbital Gradient       TolG            ....  5.000e-05
 Orbital Rotation angle TolX            ....  5.000e-05
 DIIS Error             TolErr          ....  1.000e-05

------------------------------
INITIAL GUESS: MODEL POTENTIAL
------------------------------
Loading Hartree-Fock densities                     ... done
Calculating cut-offs                               ... done
Initializing the effective Hamiltonian             ... done
Setting up the integral package (SHARK)            ... done
Starting the Coulomb interaction                   ... done (   1.5 sec)
Making the grid                                    ... done (   0.8 sec)
Mapping shells                                     ... done
Starting the XC term evaluation                    ... done (   0.7 sec)
  promolecular density results
     # of electrons  =    209.978999388
     EX              =   -160.222477742
     EC              =     -6.950362007
     EX+EC           =   -167.172839749
Transforming the Hamiltonian                       ... done (   0.1 sec)
Diagonalizing the Hamiltonian                      ... done (   0.3 sec)
Back transforming the eigenvectors                 ... done (   0.1 sec)
Now organizing SCF variables                       ... done
                      ------------------
                      INITIAL GUESS DONE (   3.5 sec)
                      ------------------
             **** ENERGY FILE WAS UPDATED (data/single_point_P_M06-2x/20851/20851.en.tmp) ****
Finished Guess after   4.0 sec
Maximum memory used throughout the entire GUESS-calculation: 96.1 MB


           ************************************************************
           *        Program running with 6 parallel MPI-processes     *
           *              working on a common directory               *
           ************************************************************

-------------------------------------------------------------------------------------------
                                      ORCA LEAN-SCF
                              memory conserving SCF solver
-------------------------------------------------------------------------------------------

----------------------------------------D-I-I-S--------------------------------------------
Iteration    Energy (Eh)           Delta-E    RMSDP     MaxDP     DIISErr   Damp  Time(sec)
-------------------------------------------------------------------------------------------
               ***  Starting incremental Fock matrix formation  ***
    1    -1285.5575302429424482     0.00e+00  7.94e-04  4.39e-02  1.88e-01  0.700  30.2
    2    -1285.9589574945512140    -4.01e-01  6.29e-04  3.49e-02  1.07e-01  0.700  16.8
                               ***Turning on AO-DIIS***
    3    -1286.1472592733707643    -1.88e-01  3.74e-04  2.17e-02  4.91e-02  0.700  16.1
    4    -1286.2559346590333007    -1.09e-01  8.35e-04  4.57e-02  2.84e-02  0.000  15.5
    5    -1286.4866669216635273    -2.31e-01  7.71e-05  1.28e-02  3.50e-03  0.000  16.2
                              *** Initializing SOSCF ***
---------------------------------------S-O-S-C-F--------------------------------------
Iteration    Energy (Eh)           Delta-E    RMSDP     MaxDP     MaxGrad    Time(sec)
--------------------------------------------------------------------------------------
    6    -1286.4871110212766325    -4.44e-04  3.15e-05  4.48e-03  6.97e-04    14.0
               *** Restarting incremental Fock matrix formation ***
    7    -1286.4871629357558049    -5.19e-05  3.00e-05  3.69e-03  1.48e-04    29.6
    8    -1286.4871680517394452    -5.12e-06  1.12e-05  1.55e-03  5.05e-05    19.9
    9    -1286.4871689521896769    -9.00e-07  6.48e-06  4.35e-04  2.13e-05    17.5
                 **** Energy Check signals convergence ****

               *****************************************************
               *                     SUCCESS                       *
               *           SCF CONVERGED AFTER   9 CYCLES          *
               *****************************************************

Recomputing exchange energy using gridx3       ... done (   45.738 sec)
Old exchange energy                            :    -89.123924842 Eh
New exchange energy                            :    -89.124017801 Eh
Exchange energy change after final integration :     -0.000092959 Eh
Total energy after final integration           :  -1286.487261911 Eh
             **** ENERGY FILE WAS UPDATED (data/single_point_P_M06-2x/20851/20851.en.tmp) ****

----------------
TOTAL SCF ENERGY
----------------

Total Energy       :      -1286.48726191129458 Eh          -35007.09812 eV

Components:
Nuclear Repulsion  :       2488.42082114386449 Eh           67713.37302 eV
Electronic Energy  :      -3774.90799009605416 Eh         -102720.46862 eV
One Electron Energy:      -6695.10918997684166 Eh         -182183.18307 eV
Two Electron Energy:       2920.20119988078750 Eh           79462.71446 eV

Virial components:
Potential Energy   :      -2565.63332597753015 Eh          -69814.43210 eV
Kinetic Energy     :       1279.14606406623534 Eh           34807.33397 eV
Virial Ratio       :          2.00573913961141

DFT components:
N(Alpha)           :      105.000574660564 electrons
N(Beta)            :      105.000574660564 electrons
N(Total)           :      210.001149321128 electrons
E(XC)              :      -82.948020369798 Eh       

---------------
SCF CONVERGENCE
---------------

  Last Energy change         ...    9.0045e-07  Tolerance :   1.0000e-06
  Last MAX-Density change    ...    4.3541e-04  Tolerance :   1.0000e-05
  Last RMS-Density change    ...    6.4783e-06  Tolerance :   1.0000e-06
  Last DIIS Error            ...    6.9674e-04  Tolerance :   1.0000e-05
  Last Orbital Gradient      ...    2.1258e-05  Tolerance :   5.0000e-05
  Last Orbital Rotation      ...    4.1888e-05  Tolerance :   5.0000e-05


----------------
ORBITAL ENERGIES
----------------

  NO   OCC          E(Eh)            E(eV) 
   0   2.0000     -78.008825     -2122.7280 
   1   2.0000     -10.536127      -286.7026 
   2   2.0000     -10.535276      -286.6794 
   3   2.0000     -10.534894      -286.6690 
   4   2.0000     -10.534563      -286.6600 
   5   2.0000     -10.534131      -286.6483 
   6   2.0000     -10.533715      -286.6370 
   7   2.0000     -10.533425      -286.6291 
   8   2.0000     -10.532655      -286.6081 
   9   2.0000     -10.531908      -286.5878 
  10   2.0000     -10.531215      -286.5689 
  11   2.0000     -10.530633      -286.5531 
  12   2.0000     -10.530148      -286.5399 
  13   2.0000     -10.529954      -286.5346 
  14   2.0000     -10.528964      -286.5077 
  15   2.0000     -10.528504      -286.4952 
  16   2.0000     -10.528151      -286.4855 
  17   2.0000     -10.527906      -286.4789 
  18   2.0000     -10.527732      -286.4741 
  19   2.0000     -10.526805      -286.4489 
  20   2.0000     -10.526451      -286.4393 
  21   2.0000     -10.526224      -286.4331 
  22   2.0000     -10.525814      -286.4220 
  23   2.0000     -10.525007      -286.4000 
  24   2.0000     -10.523890      -286.3696 
  25   2.0000      -6.825202      -185.7232 
  26   2.0000      -4.939650      -134.4147 
  27   2.0000      -4.939432      -134.4088 
  28   2.0000      -4.939342      -134.4063 
  29   2.0000      -0.911848       -24.8126 
  30   2.0000      -0.908238       -24.7144 
  31   2.0000      -0.906730       -24.6734 
  32   2.0000      -0.887836       -24.1592 
  33   2.0000      -0.879682       -23.9374 
  34   2.0000      -0.876992       -23.8642 
  35   2.0000      -0.847768       -23.0689 
  36   2.0000      -0.834230       -22.7006 
  37   2.0000      -0.831566       -22.6281 
  38   2.0000      -0.799901       -21.7664 
  39   2.0000      -0.784346       -21.3431 
  40   2.0000      -0.780643       -21.2424 
  41   2.0000      -0.751664       -20.4538 
  42   2.0000      -0.736049       -20.0289 
  43   2.0000      -0.728016       -19.8103 
  44   2.0000      -0.705014       -19.1844 
  45   2.0000      -0.691019       -18.8036 
  46   2.0000      -0.687341       -18.7035 
  47   2.0000      -0.659740       -17.9524 
  48   2.0000      -0.651522       -17.7288 
  49   2.0000      -0.644815       -17.5463 
  50   2.0000      -0.630677       -17.1616 
  51   2.0000      -0.623621       -16.9696 
  52   2.0000      -0.611460       -16.6387 
  53   2.0000      -0.586958       -15.9719 
  54   2.0000      -0.547360       -14.8944 
  55   2.0000      -0.542006       -14.7487 
  56   2.0000      -0.535578       -14.5738 
  57   2.0000      -0.531223       -14.4553 
  58   2.0000      -0.529303       -14.4031 
  59   2.0000      -0.526036       -14.3142 
  60   2.0000      -0.520598       -14.1662 
  61   2.0000      -0.516674       -14.0594 
  62   2.0000      -0.510121       -13.8811 
  63   2.0000      -0.501938       -13.6584 
  64   2.0000      -0.495719       -13.4892 
  65   2.0000      -0.487172       -13.2566 
  66   2.0000      -0.484787       -13.1917 
  67   2.0000      -0.477245       -12.9865 
  68   2.0000      -0.474888       -12.9224 
  69   2.0000      -0.470314       -12.7979 
  70   2.0000      -0.468763       -12.7557 
  71   2.0000      -0.466738       -12.7006 
  72   2.0000      -0.457362       -12.4455 
  73   2.0000      -0.453932       -12.3521 
  74   2.0000      -0.451175       -12.2771 
  75   2.0000      -0.443053       -12.0561 
  76   2.0000      -0.439073       -11.9478 
  77   2.0000      -0.434784       -11.8311 
  78   2.0000      -0.431348       -11.7376 
  79   2.0000      -0.423900       -11.5349 
  80   2.0000      -0.422181       -11.4881 
  81   2.0000      -0.419619       -11.4184 
  82   2.0000      -0.415717       -11.3122 
  83   2.0000      -0.406881       -11.0718 
  84   2.0000      -0.401853       -10.9350 
  85   2.0000      -0.400528       -10.8989 
  86   2.0000      -0.397656       -10.8208 
  87   2.0000      -0.394250       -10.7281 
  88   2.0000      -0.388889       -10.5822 
  89   2.0000      -0.386277       -10.5111 
  90   2.0000      -0.382630       -10.4119 
  91   2.0000      -0.381563       -10.3829 
  92   2.0000      -0.378032       -10.2868 
  93   2.0000      -0.373934       -10.1753 
  94   2.0000      -0.372187       -10.1277 
  95   2.0000      -0.370482       -10.0813 
  96   2.0000      -0.365323        -9.9409 
  97   2.0000      -0.362200        -9.8560 
  98   2.0000      -0.362026        -9.8512 
  99   2.0000      -0.359900        -9.7934 
 100   2.0000      -0.358519        -9.7558 
 101   2.0000      -0.356644        -9.7048 
 102   2.0000      -0.340511        -9.2658 
 103   2.0000      -0.338047        -9.1987 
 104   2.0000      -0.266469        -7.2510 
 105   0.0000       0.045811         1.2466 
 106   0.0000       0.053799         1.4639 
 107   0.0000       0.057958         1.5771 
 108   0.0000       0.066257         1.8029 
 109   0.0000       0.069267         1.8849 
 110   0.0000       0.072816         1.9814 
 111   0.0000       0.077025         2.0960 
 112   0.0000       0.078687         2.1412 
 113   0.0000       0.082079         2.2335 
 114   0.0000       0.084241         2.2923 
 115   0.0000       0.089055         2.4233 
*Only the first 10 virtual orbitals were printed.

                    ********************************
                    * MULLIKEN POPULATION ANALYSIS *
                    ********************************

-----------------------
MULLIKEN ATOMIC CHARGES
-----------------------
   0 C :   -0.431948
   1 C :   -0.249283
   2 C :   -0.238319
   3 C :   -0.301993
   4 C :   -0.308102
   5 C :   -0.263632
   6 C :   -0.376778
   7 C :   -0.377086
   8 P :    0.150202
   9 C :   -0.380968
  10 C :   -0.352574
  11 C :   -0.272622
  12 C :   -0.234998
  13 C :   -0.321049
  14 C :   -0.319733
  15 C :   -0.169574
  16 C :   -0.506054
  17 C :   -0.433233
  18 C :   -0.271888
  19 C :   -0.289194
  20 C :   -0.288453
  21 C :   -0.293290
  22 C :   -0.282511
  23 C :   -0.245148
  24 C :   -0.443111
  25 H :    0.137684
  26 H :    0.142616
  27 H :    0.135426
  28 H :    0.132941
  29 H :    0.138259
  30 H :    0.098283
  31 H :    0.146694
  32 H :    0.153322
  33 H :    0.148824
  34 H :    0.145191
  35 H :    0.156481
  36 H :    0.160757
  37 H :    0.147888
  38 H :    0.168277
  39 H :    0.160931
  40 H :    0.168374
  41 H :    0.178195
  42 H :    0.151685
  43 H :    0.171120
  44 H :    0.159228
  45 H :    0.163010
  46 H :    0.148946
  47 H :    0.160461
  48 H :    0.114147
  49 H :    0.145283
  50 H :    0.151308
  51 H :    0.163546
  52 H :    0.150742
  53 H :    0.154467
  54 H :    0.148587
  55 H :    0.052075
  56 H :    0.151780
  57 H :    0.157452
  58 H :    0.162182
  59 H :    0.167544
  60 H :    0.160470
  61 H :    0.135077
  62 H :    0.162279
  63 H :    0.148554
  64 H :    0.146183
  65 H :    0.147649
  66 H :    0.144419
  67 H :    0.143850
  68 H :    0.145904
  69 H :    0.139343
  70 H :    0.143027
  71 H :    0.134263
  72 H :    0.135834
  73 H :    0.142998
  74 H :    0.140835
  75 H :    0.136949
Sum of atomic charges:   -0.0000000

--------------------------------
MULLIKEN REDUCED ORBITAL CHARGES
--------------------------------
  0 C s       :     3.320890  s :     3.320890
      pz      :     1.075036  p :     3.051583
      px      :     0.916453
      py      :     1.060094
      dz2     :     0.006915  d :     0.056155
      dxz     :     0.016280
      dyz     :     0.008475
      dx2y2   :     0.005483
      dxy     :     0.019003
      f0      :     0.000314  f :     0.003320
      f+1     :     0.000417
      f-1     :     0.000541
      f+2     :     0.000503
      f-2     :     0.000206
      f+3     :     0.000659
      f-3     :     0.000680

  1 C s       :     3.250176  s :     3.250176
      pz      :     0.948256  p :     2.906338
      px      :     0.934583
      py      :     1.023498
      dz2     :     0.016729  d :     0.087803
      dxz     :     0.022133
      dyz     :     0.014465
      dx2y2   :     0.013819
      dxy     :     0.020658
      f0      :     0.000886  f :     0.004966
      f+1     :     0.000591
      f-1     :     0.000726
      f+2     :     0.000906
      f-2     :     0.000381
      f+3     :     0.000687
      f-3     :     0.000790

  2 C s       :     3.219987  s :     3.219987
      pz      :     0.961257  p :     2.921872
      px      :     0.937334
      py      :     1.023282
      dz2     :     0.018731  d :     0.091353
      dxz     :     0.022152
      dyz     :     0.015280
      dx2y2   :     0.014582
      dxy     :     0.020608
      f0      :     0.000836  f :     0.005106
      f+1     :     0.000639
      f-1     :     0.000737
      f+2     :     0.000902
      f-2     :     0.000444
      f+3     :     0.000725
      f-3     :     0.000823

  3 C s       :     3.278551  s :     3.278551
      pz      :     0.985014  p :     2.931258
      px      :     0.934186
      py      :     1.012058
      dz2     :     0.021885  d :     0.087242
      dxz     :     0.018644
      dyz     :     0.007319
      dx2y2   :     0.015620
      dxy     :     0.023775
      f0      :     0.000734  f :     0.004942
      f+1     :     0.000544
      f-1     :     0.000720
      f+2     :     0.000856
      f-2     :     0.000395
      f+3     :     0.000744
      f-3     :     0.000948

  4 C s       :     3.263672  s :     3.263672
      pz      :     0.996917  p :     2.949269
      px      :     0.951696
      py      :     1.000656
      dz2     :     0.022837  d :     0.090092
      dxz     :     0.017473
      dyz     :     0.008910
      dx2y2   :     0.015301
      dxy     :     0.025572
      f0      :     0.000745  f :     0.005070
      f+1     :     0.000498
      f-1     :     0.000813
      f+2     :     0.000818
      f-2     :     0.000445
      f+3     :     0.000870
      f-3     :     0.000881

  5 C s       :     3.277291  s :     3.277291
      pz      :     0.941307  p :     2.893391
      px      :     0.901748
      py      :     1.050337
      dz2     :     0.017714  d :     0.088019
      dxz     :     0.020103
      dyz     :     0.016155
      dx2y2   :     0.011333
      dxy     :     0.022714
      f0      :     0.000842  f :     0.004931
      f+1     :     0.000604
      f-1     :     0.000789
      f+2     :     0.000789
      f-2     :     0.000436
      f+3     :     0.000762
      f-3     :     0.000710

  6 C s       :     3.334777  s :     3.334777
      pz      :     0.979339  p :     2.946483
      px      :     1.018518
      py      :     0.948627
      dz2     :     0.018707  d :     0.090537
      dxz     :     0.009333
      dyz     :     0.028311
      dx2y2   :     0.024260
      dxy     :     0.009926
      f0      :     0.000793  f :     0.004980
      f+1     :     0.000586
      f-1     :     0.000914
      f+2     :     0.000717
      f-2     :     0.000630
      f+3     :     0.000541
      f-3     :     0.000798

  7 C s       :     3.267895  s :     3.267895
      pz      :     1.003531  p :     3.033933
      px      :     1.065033
      py      :     0.965368
      dz2     :     0.015107  d :     0.071561
      dxz     :     0.009664
      dyz     :     0.018177
      dx2y2   :     0.019897
      dxy     :     0.008716
      f0      :     0.000316  f :     0.003697
      f+1     :     0.000324
      f-1     :     0.000677
      f+2     :     0.000378
      f-2     :     0.000640
      f+3     :     0.000583
      f-3     :     0.000779

  8 P s       :     5.686394  s :     5.686394
      pz      :     3.226017  p :     8.899165
      px      :     2.826558
      py      :     2.846591
      dz2     :     0.033076  d :     0.237886
      dxz     :     0.036405
      dyz     :     0.060658
      dx2y2   :     0.045044
      dxy     :     0.062702
      f0      :     0.002848  f :     0.026353
      f+1     :     0.003141
      f-1     :     0.004131
      f+2     :     0.003944
      f-2     :     0.004897
      f+3     :     0.004435
      f-3     :     0.002957

  9 C s       :     3.270485  s :     3.270485
      pz      :     0.994203  p :     3.037597
      px      :     1.054104
      py      :     0.989290
      dz2     :     0.012393  d :     0.069260
      dxz     :     0.015626
      dyz     :     0.016238
      dx2y2   :     0.009076
      dxy     :     0.015928
      f0      :     0.000172  f :     0.003625
      f+1     :     0.000416
      f-1     :     0.000636
      f+2     :     0.000497
      f-2     :     0.000925
      f+3     :     0.000430
      f-3     :     0.000548

 10 C s       :     3.323158  s :     3.323158
      pz      :     0.964927  p :     2.935266
      px      :     1.032731
      py      :     0.937608
      dz2     :     0.017814  d :     0.089248
      dxz     :     0.020325
      dyz     :     0.020154
      dx2y2   :     0.007465
      dxy     :     0.023490
      f0      :     0.000715  f :     0.004903
      f+1     :     0.000633
      f-1     :     0.000832
      f+2     :     0.000732
      f-2     :     0.001038
      f+3     :     0.000423
      f-3     :     0.000529

 11 C s       :     3.271383  s :     3.271383
      pz      :     0.934375  p :     2.905247
      px      :     0.984679
      py      :     0.986194
      dz2     :     0.012145  d :     0.091010
      dxz     :     0.023386
      dyz     :     0.021102
      dx2y2   :     0.015328
      dxy     :     0.019049
      f0      :     0.000887  f :     0.004982
      f+1     :     0.000637
      f-1     :     0.000474
      f+2     :     0.000495
      f-2     :     0.001102
      f+3     :     0.000694
      f-3     :     0.000693

 12 C s       :     3.230934  s :     3.230934
      pz      :     1.053117  p :     2.910797
      px      :     0.914602
      py      :     0.943077
      dz2     :     0.018085  d :     0.088254
      dxz     :     0.017378
      dyz     :     0.011947
      dx2y2   :     0.022130
      dxy     :     0.018714
      f0      :     0.000647  f :     0.005013
      f+1     :     0.000869
      f-1     :     0.000278
      f+2     :     0.000434
      f-2     :     0.000942
      f+3     :     0.001017
      f-3     :     0.000827

 13 C s       :     3.292605  s :     3.292605
      pz      :     0.889820  p :     2.937326
      px      :     0.946320
      py      :     1.101186
      dz2     :     0.021727  d :     0.086254
      dxz     :     0.022459
      dyz     :     0.014403
      dx2y2   :     0.012057
      dxy     :     0.015608
      f0      :     0.000853  f :     0.004864
      f+1     :     0.001223
      f-1     :     0.000884
      f+2     :     0.000453
      f-2     :     0.000464
      f+3     :     0.000362
      f-3     :     0.000624

 14 C s       :     3.301049  s :     3.301049
      pz      :     0.904569  p :     2.928340
      px      :     1.113351
      py      :     0.910420
      dz2     :     0.015238  d :     0.085522
      dxz     :     0.019169
      dyz     :     0.024179
      dx2y2   :     0.008892
      dxy     :     0.018044
      f0      :     0.000972  f :     0.004823
      f+1     :     0.000732
      f-1     :     0.001068
      f+2     :     0.000490
      f-2     :     0.000355
      f+3     :     0.000567
      f-3     :     0.000640

 15 C s       :     3.193872  s :     3.193872
      pz      :     1.050929  p :     2.878940
      px      :     0.942575
      py      :     0.885436
      dz2     :     0.022982  d :     0.091702
      dxz     :     0.009970
      dyz     :     0.013843
      dx2y2   :     0.022502
      dxy     :     0.022405
      f0      :     0.000839  f :     0.005061
      f+1     :     0.000316
      f-1     :     0.000608
      f+2     :     0.000564
      f-2     :     0.000627
      f+3     :     0.001164
      f-3     :     0.000943

 16 C s       :     3.350577  s :     3.350577
      pz      :     1.061154  p :     3.096116
[...]
      py      :     0.026276



                      *****************************
                      * MAYER POPULATION ANALYSIS *
                      *****************************

  NA   - Mulliken gross atomic population
  ZA   - Total nuclear charge
  QA   - Mulliken gross atomic charge
  VA   - Mayer's total valence
  BVA  - Mayer's bonded valence
  FA   - Mayer's free valence

  ATOM       NA         ZA         QA         VA         BVA        FA
  0 C      6.4319     6.0000    -0.4319     3.8588     3.8588    -0.0000
  1 C      6.2493     6.0000    -0.2493     3.7435     3.7435    -0.0000
  2 C      6.2383     6.0000    -0.2383     3.7690     3.7690    -0.0000
  3 C      6.3020     6.0000    -0.3020     3.7448     3.7448    -0.0000
  4 C      6.3081     6.0000    -0.3081     3.7073     3.7073    -0.0000
  5 C      6.2636     6.0000    -0.2636     3.7071     3.7071    -0.0000
  6 C      6.3768     6.0000    -0.3768     3.7572     3.7572    -0.0000
  7 C      6.3771     6.0000    -0.3771     3.7060     3.7060    -0.0000
  8 P     14.8498    15.0000     0.1502     3.0363     3.0363    -0.0000
  9 C      6.3810     6.0000    -0.3810     3.7202     3.7202    -0.0000
 10 C      6.3526     6.0000    -0.3526     3.7391     3.7391     0.0000
 11 C      6.2726     6.0000    -0.2726     3.7124     3.7124     0.0000
 12 C      6.2350     6.0000    -0.2350     3.6986     3.6986     0.0000
 13 C      6.3210     6.0000    -0.3210     3.7251     3.7251    -0.0000
 14 C      6.3197     6.0000    -0.3197     3.7477     3.7477     0.0000
 15 C      6.1696     6.0000    -0.1696     3.6508     3.6508     0.0000
 16 C      6.5061     6.0000    -0.5061     3.8456     3.8456    -0.0000
 17 C      6.4332     6.0000    -0.4332     3.7590     3.7590     0.0000
 18 C      6.2719     6.0000    -0.2719     3.7413     3.7413     0.0000
 19 C      6.2892     6.0000    -0.2892     3.7629     3.7629     0.0000
 20 C      6.2885     6.0000    -0.2885     3.7585     3.7585     0.0000
 21 C      6.2933     6.0000    -0.2933     3.7635     3.7635    -0.0000
 22 C      6.2825     6.0000    -0.2825     3.7185     3.7185    -0.0000
 23 C      6.2451     6.0000    -0.2451     3.7854     3.7854    -0.0000
 24 C      6.4431     6.0000    -0.4431     3.8317     3.8317    -0.0000
 25 H      0.8623     1.0000     0.1377     0.9556     0.9556    -0.0000
 26 H      0.8574     1.0000     0.1426     0.9581     0.9581     0.0000
 27 H      0.8646     1.0000     0.1354     0.9544     0.9544    -0.0000
 28 H      0.8671     1.0000     0.1329     0.9503     0.9503    -0.0000
 29 H      0.8617     1.0000     0.1383     0.9463     0.9463    -0.0000
 30 H      0.9017     1.0000     0.0983     0.9498     0.9498    -0.0000
 31 H      0.8533     1.0000     0.1467     0.9547     0.9547    -0.0000
 32 H      0.8467     1.0000     0.1533     0.9485     0.9485    -0.0000
 33 H      0.8512     1.0000     0.1488     0.9554     0.9554    -0.0000
 34 H      0.8548     1.0000     0.1452     0.9378     0.9378     0.0000
 35 H      0.8435     1.0000     0.1565     0.9567     0.9567    -0.0000
 36 H      0.8392     1.0000     0.1608     0.9590     0.9590    -0.0000
 37 H      0.8521     1.0000     0.1479     0.9548     0.9548    -0.0000
 38 H      0.8317     1.0000     0.1683     0.9423     0.9423     0.0000
 39 H      0.8391     1.0000     0.1609     0.9474     0.9474    -0.0000
 40 H      0.8316     1.0000     0.1684     0.9569     0.9569    -0.0000
 41 H      0.8218     1.0000     0.1782     0.9337     0.9337    -0.0000
 42 H      0.8483     1.0000     0.1517     0.9428     0.9428    -0.0000
 43 H      0.8289     1.0000     0.1711     0.9563     0.9563    -0.0000
 44 H      0.8408     1.0000     0.1592     0.9499     0.9499     0.0000
 45 H      0.8370     1.0000     0.1630     0.9473     0.9473     0.0000
 46 H      0.8511     1.0000     0.1489     0.9534     0.9534     0.0000
 47 H      0.8395     1.0000     0.1605     0.9607     0.9607     0.0000
 48 H      0.8859     1.0000     0.1141     0.9527     0.9527     0.0000
 49 H      0.8547     1.0000     0.1453     0.9593     0.9593     0.0000
 50 H      0.8487     1.0000     0.1513     0.9560     0.9560    -0.0000
 51 H      0.8365     1.0000     0.1635     0.9413     0.9413    -0.0000
 52 H      0.8493     1.0000     0.1507     0.9555     0.9555     0.0000
 53 H      0.8455     1.0000     0.1545     0.9447     0.9447     0.0000
 54 H      0.8514     1.0000     0.1486     0.9536     0.9536    -0.0000
 55 H      0.9479     1.0000     0.0521     0.9869     0.9869    -0.0000
 56 H      0.8482     1.0000     0.1518     0.9586     0.9586    -0.0000
 57 H      0.8425     1.0000     0.1575     0.9415     0.9415    -0.0000
 58 H      0.8378     1.0000     0.1622     0.9478     0.9478    -0.0000
 59 H      0.8325     1.0000     0.1675     0.9459     0.9459     0.0000
 60 H      0.8395     1.0000     0.1605     0.9537     0.9537     0.0000
 61 H      0.8649     1.0000     0.1351     0.9670     0.9670     0.0000
 62 H      0.8377     1.0000     0.1623     0.9587     0.9587    -0.0000
 63 H      0.8514     1.0000     0.1486     0.9503     0.9503    -0.0000
 64 H      0.8538     1.0000     0.1462     0.9550     0.9550     0.0000
 65 H      0.8524     1.0000     0.1476     0.9542     0.9542     0.0000
 66 H      0.8556     1.0000     0.1444     0.9533     0.9533     0.0000
 67 H      0.8562     1.0000     0.1438     0.9538     0.9538    -0.0000
 68 H      0.8541     1.0000     0.1459     0.9524     0.9524     0.0000
 69 H      0.8607     1.0000     0.1393     0.9561     0.9561    -0.0000
 70 H      0.8570     1.0000     0.1430     0.9524     0.9524    -0.0000
 71 H      0.8657     1.0000     0.1343     0.9524     0.9524     0.0000
 72 H      0.8642     1.0000     0.1358     0.9522     0.9522    -0.0000
 73 H      0.8570     1.0000     0.1430     0.9589     0.9589     0.0000
 74 H      0.8592     1.0000     0.1408     0.9529     0.9529     0.0000
 75 H      0.8631     1.0000     0.1369     0.9547     0.9547    -0.0000

  Mayer bond orders larger than 0.100000
B(  0-C ,  1-C ) :   0.9468 B(  0-C , 25-H ) :   0.9767 B(  0-C , 26-H ) :   0.9808 
B(  0-C , 27-H ) :   0.9736 B(  1-C ,  2-C ) :   0.9230 B(  1-C , 28-H ) :   0.9716 
B(  1-C , 29-H ) :   0.9678 B(  2-C ,  3-C ) :   0.9472 B(  2-C , 30-H ) :   0.9731 
B(  2-C , 31-H ) :   0.9846 B(  3-C ,  4-C ) :   0.8841 B(  3-C , 32-H ) :   0.9813 
B(  3-C , 33-H ) :   0.9736 B(  4-C ,  5-C ) :   0.9274 B(  4-C , 34-H ) :   0.9648 
B(  4-C , 35-H ) :   0.9876 B(  5-C ,  6-C ) :   0.8864 B(  5-C , 36-H ) :   0.9829 
B(  5-C , 37-H ) :   0.9814 B(  6-C ,  7-C ) :   0.8977 B(  6-C , 38-H ) :   0.9849 
B(  6-C , 39-H ) :   0.9868 B(  7-C ,  8-P ) :   0.9611 B(  7-C , 40-H ) :   0.9647 
B(  7-C , 41-H ) :   0.9509 B(  8-P ,  9-C ) :   0.9509 B(  8-P , 17-C ) :   0.9850 
B(  9-C , 10-C ) :   0.8989 B(  9-C , 42-H ) :   0.9590 B(  9-C , 43-H ) :   0.9634 
B( 10-C , 11-C ) :   0.8863 B( 10-C , 44-H ) :   0.9829 B( 10-C , 45-H ) :   0.9839 
B( 11-C , 12-C ) :   0.9302 B( 11-C , 46-H ) :   0.9846 B( 11-C , 47-H ) :   0.9747 
B( 12-C , 13-C ) :   0.8931 B( 12-C , 48-H ) :   0.9647 B( 12-C , 49-H ) :   0.9883 
B( 13-C , 14-C ) :   0.8872 B( 13-C , 50-H ) :   0.9790 B( 13-C , 51-H ) :   0.9928 
B( 14-C , 15-C ) :   0.9246 B( 14-C , 52-H ) :   0.9833 B( 14-C , 53-H ) :   0.9803 
B( 15-C , 16-C ) :   0.9207 B( 15-C , 54-H ) :   0.9830 B( 15-C , 55-H ) :   0.9579 
B( 16-C , 56-H ) :   0.9724 B( 16-C , 57-H ) :   0.9749 B( 16-C , 58-H ) :   0.9776 
B( 17-C , 18-C ) :   0.8784 B( 17-C , 59-H ) :   0.9635 B( 17-C , 60-H ) :   0.9573 
B( 18-C , 19-C ) :   0.9474 B( 18-C , 61-H ) :   0.9834 B( 18-C , 62-H ) :   0.9807 
B( 19-C , 20-C ) :   0.8910 B( 19-C , 63-H ) :   0.9779 B( 19-C , 64-H ) :   0.9792 
B( 20-C , 21-C ) :   0.9543 B( 20-C , 65-H ) :   0.9809 B( 20-C , 66-H ) :   0.9818 
B( 21-C , 22-C ) :   0.8913 B( 21-C , 67-H ) :   0.9842 B( 21-C , 68-H ) :   0.9763 
B( 22-C , 23-C ) :   0.9423 B( 22-C , 69-H ) :   0.9779 B( 22-C , 70-H ) :   0.9767 
B( 23-C , 24-C ) :   0.9307 B( 23-C , 71-H ) :   0.9783 B( 23-C , 72-H ) :   0.9843 
B( 24-C , 73-H ) :   0.9771 B( 24-C , 74-H ) :   0.9748 B( 24-C , 75-H ) :   0.9696 


-------
TIMINGS
-------

Total SCF time: 0 days 0 hours 3 min 43 sec 

Total time                  ....     223.342 sec
Sum of individual times     ....     223.630 sec  (100.1%)

SCF preparation             ....       0.556 sec  (  0.2%)
Fock matrix formation       ....     213.668 sec  ( 95.7%)
  Startup                   ....       0.249 sec  (  0.1% of F)
  Split-RI-J                ....      17.323 sec  (  8.1% of F)
  Chain of spheres X        ....     159.048 sec  ( 74.4% of F)
  XC integration            ....      36.448 sec  ( 17.1% of F)
    Basis function eval.    ....       5.314 sec  ( 14.6% of XC)
    Density eval.           ....      15.208 sec  ( 41.7% of XC)
    XC-Functional eval.     ....       0.653 sec  (  1.8% of XC)
    XC-Potential eval.      ....      13.247 sec  ( 36.3% of XC)
Diagonalization             ....       0.000 sec  (  0.0%)
Density matrix formation    ....       0.664 sec  (  0.3%)
Total Energy calculation    ....       0.216 sec  (  0.1%)
Population analysis         ....       0.515 sec  (  0.2%)
Orbital Transformation      ....       1.232 sec  (  0.6%)
Orbital Orthonormalization  ....       0.000 sec  (  0.0%)
DIIS solution               ....       5.095 sec  (  2.3%)
SOSCF solution              ....       1.684 sec  (  0.8%)
Finished LeanSCF after 223.4 sec

Maximum memory used throughout the entire LEANSCF-calculation: 193.8 MB


-------------------------------------------------------------------------------
                          DFT DISPERSION CORRECTION                            
                                                                               
                              DFTD3 V3.1  Rev 1                                
                              USING zero damping                               
-------------------------------------------------------------------------------
The M062X functional is recognized
Active option DFTDOPT                   ...         3   

molecular C6(AA) [au] = 41637.388072 


            DFT-D V3
 parameters
 s6 scaling factor         :     1.0000 
 rs6 scaling factor        :     1.6190 
 s8 scaling factor         :     0.0000 
 rs8 scaling factor        :     1.0000 
 Damping factor alpha6     :    14.0000 
 Damping factor alpha8     :    16.0000 
 ad hoc parameters k1-k3   :    16.0000     1.3333    -4.0000 

 Edisp/kcal,au: -3.872705335133  -0.006171548131 
 E6   /kcal   :  -3.872705335 
 E8   /kcal   :  -0.000000000 
 % E8         :   0.000000000 

-------------------------   ----------------
Dispersion correction           -0.006171548
-------------------------   ----------------


-------------------------   --------------------
FINAL SINGLE POINT ENERGY     -1286.493433459426
-------------------------   --------------------



           ************************************************************
           *        Program running with 6 parallel MPI-processes     *
           *              working on a common directory               *
           ************************************************************

------------------------------------------------------------------------------
                              ORCA PROPERTY CALCULATIONS
------------------------------------------------------------------------------

GBWName                                 ... data/single_point_P_M06-2x/20851/20851.gbw
Number of atoms                         ...     76
Number of basis functions               ...   1087
Max core memory                         ...   1024 MB

Electric properties:
Dipole moment                           ... YES
Quadrupole moment                       ...  NO
Static polarizability (Dipole/Dipole)   ...  NO
Static polarizability (Dipole/Quad.)    ...  NO
Static polarizability (Quad./Quad.)     ...  NO
Static polarizability (Velocity)        ...  NO

Atomic electric properties:
Dipole moment                           ...  NO
Quadrupole moment                       ...  NO
Static polarizability                   ...  NO

Choice of electric origin               ... Center of mass
Position of electric origin             ...     0.032329    -0.094923     0.047108

General magnetic properties:
Magnetizability                         ...  NO

EPR properties:
g-Tensor (aka g-matrix)                 ...  NO
Zero-Field splitting spin-orbit         ...  NO
Zero-field splitting spin-spin          ...  NO
Hyperfine couplings                     ...  NO (   0 nuclei)
Quadrupole couplings                    ...  NO (   0 nuclei)
Contact density                         ...  NO (   0 nuclei)

NMR properties:
Chemical shifts                         ...  NO (   0 nuclei)
Spin-rotation constants                 ...  NO (   0 nuclei)
Spin-spin couplings                     ...  NO (   0 nuclei,    0 pairs)

Choice of magnetic origin               ... GIAO
Position of magnetic origin             ...     0.000000     0.000000     0.000000

Properties with geometric perturbations:
SCF Hessian                             ...  NO
IR spectrum                             ...  NO
VCD spectrum                            ...  NO
X-ray spectroscopy properties:
SCF XES/XAS/RIXS spectra                ...  NO


-------------
DIPOLE MOMENT
-------------

Method             : SCF
Type of density    : Electron Density
Multiplicity       :   1
Irrep              :   0
Energy             : -1286.4872619112945813 Eh
Relativity type    : 
Basis              : AO
                                X                 Y                 Z
Electronic contribution:      1.487308685      -3.913049035       1.322140170
Nuclear contribution   :     -1.308558491       3.741387787      -1.621883220
                        -----------------------------------------
Total Dipole Moment    :      0.178750194      -0.171661248      -0.299743050
                        -----------------------------------------
Magnitude (a.u.)       :      0.388928158
Magnitude (Debye)      :      0.988576814



--------------------
Rotational spectrum 
--------------------
 
Rotational constants in cm-1:             0.009176             0.002237             0.001921 
Rotational constants in MHz :           275.087475            67.070014            57.591940 

Dipole components along the rotational axes: 
x,y,z [a.u.] :    -0.214894    -0.090814    -0.311189 
x,y,z [Debye]:    -0.546216    -0.230830    -0.790980 

 

Dipole moment calculation done in   0.1 sec 

Maximum memory used throughout the entire PROP-calculation: 105.2 MB

--------------------------------
SUGGESTED CITATIONS FOR THIS RUN
--------------------------------

Below you find a list of papers that are relevant to this ORCA run
We neither can nor want to force you to cite these papers, but we appreciate if you do
You receive ORCA, which is the product of decades of hard work by many enthusiastic individuals, for free
The only thing we kindly ask in return is that you cite our papers,
We deeply appreciate it, if you show your appreciation for ORCA by not just citing the generic ORCA reference.

Please note that relegating all ORCA citations to the supporting information does *not* help us.
SI sections are not indexed - citations you put there will not count into any citation statistics
But we need these citations in order to attract the funding resources that allow us to do what we are doing

Therefore, if you are a happy ORCA user, please consider citing a few of the papers listed below in the main body of your paper

In addition to the list printed below, the program has created the file data/single_point_P_M06-2x/20851/20851.bibtex that contains the list in bibtex format
You can import this file easily into all common literature databanks and citation aid programs


List of essential papers. We consider these as the minimum necessary citations

  1. Neese,F.
     Software update: the ORCA program system, version 5.0
     WIRES Comput. Molec. Sci., 2022 12(1)e1606
     doi.org/10.1002/wcms.1606

List of papers to cite with high priority. The work reported in these papers was absolutely
necessary for this run to complete.
Our perspective: the developers of density functionals and basis sets usually get cited in chemistry papers
Good! But without the algorithms to do something with them, the functionals or basis sets would not do anything.
Hence, in our opinion, the algorithm design and method developments papers are equally worthy of getting cited

  1. Neese,F.
     An improvement of the resolution of the identity approximation for the formation of the Coulomb matrix
     J. Comp. Chem., 2003 24(14)1740-1747
     doi.org/10.1002/jcc.10318
  2. Neese,F.; Wennmohs,F.; Hansen,A.; Becker,U.
     Efficient, approximate and parallel Hartree-Fock and hybrid DFT calculations. A 'chain-of-spheres' algorithm for the Hartree-Fock exchange
     Chem. Phys., 2009 356(1-3)98-109
     doi.org/10.1016/j.chemphys.2008.10.036
  3. Helmich-Paris,B.; de Souza,B.; Neese,F.; Izsák,R.
     An improved chain of spheres for exchange algorithm
     J. Chem. Phys., 2021 155 104109
     doi.org/doi: 10.1063/5.0058766.
  4. Neese,F.
     The SHARK Integral Generation and Digestion System
     J. Comp. Chem., 2022  1-16
     doi.org/10.1002/jcc.26942
  5. Grimme,S.; Antony,J.; Ehrlich,S.; Krieg,H.
     A consistent and accurate ab initio parametrization of density functional dispersion correction (DFT-D) for the 94 elements H-Pu
     J. Chem. Phys., 2010 132 154104-XXXX
     doi.org/10.1063/1.3382344

List of suggested additional citations. These are papers that are important in the 'surrounding' of 
of this run, or papers that preceded the highly important papers. If you like your results we are grateful for a citation.

  1. Izsak,R.; Neese,F.
     An overlap fitted chain of spheres exchange method
     J. Chem. Phys., 2011 135 144105
     doi.org/10.1063/1.3646921
  2. Izsak,R.; Hansen,A.; Neese,F.
     The resolution of identity and chain of spheres approximations for the LPNO-CCSD singles Fock term
     Molec. Phys., 2012 110 2413-2417
     doi.org/10.1080/00268976.2012.687466
  3. Neese,F.
     The ORCA program system
     WIRES Comput. Molec. Sci., 2012 2(1)73-78
     doi.org/10.1002/wcms.81
  4. Izsak,R.; Neese,F.; Klopper,W.
     Robust fitting techniques in the chain of spheres approximation to the Fock exchange: The role of the complementary space
     J. Chem. Phys., 2013 139 
     doi.org/10.1063/1.4819264
  5. Neese,F.
     Software update: the ORCA program system, version 4.0
     WIRES Comput. Molec. Sci., 2018 8(1)1-6
     doi.org/10.1002/wcms.1327
  6. Neese,F.; Wennmohs,F.; Becker,U.; Riplinger,C.
     The ORCA quantum chemistry program package
     J. Chem. Phys., 2020 152 Art. No. L224108
     doi.org/10.1063/5.0004608

List of optional additional citations

  1. Neese,F.
     Approximate second-order SCF convergence for spin unrestricted wavefunctions
     Chem. Phys. Lett., 2000 325(1-3)93-98
     doi.org/10.1016/s0009-2614(00)00662-x

Timings for individual modules:

Sum of individual times          ...      236.112 sec (=   3.935 min)
Startup calculation              ...        8.017 sec (=   0.134 min)   3.4 %
SCF iterations                   ...      227.639 sec (=   3.794 min)  96.4 %
Property calculations            ...        0.456 sec (=   0.008 min)   0.2 %
                             ****ORCA TERMINATED NORMALLY****
TOTAL RUN TIME: 0 days 0 hours 3 minutes 56 seconds 416 msec
