
                                 *****************
                                 * O   R   C   A *
                                 *****************

                                            #,                                       
                                            ###                                      
                                            ####                                     
                                            #####                                    
                                            ######                                   
                                           ########,                                 
                                     ,,################,,,,,                         
                               ,,#################################,,                 
                          ,,##########################################,,             
                       ,#########################################, ''#####,          
                    ,#############################################,,   '####,        
                  ,##################################################,,,,####,       
                ,###########''''           ''''###############################       
              ,#####''   ,,,,##########,,,,          '''####'''          '####       
            ,##' ,,,,###########################,,,                        '##       
           ' ,,###''''                  '''############,,,                           
         ,,##''                                '''############,,,,        ,,,,,,###''
      ,#''                                            '''#######################'''  
     '                                                          ''''####''''         
             ,#######,   #######,   ,#######,      ##                                
            ,#'     '#,  ##    ##  ,#'     '#,    #''#        ,####,   ,####,        
            ##       ##  ##   ,#'  ##            #'  '#       #'       #'  '#        
            ##       ##  #######   ##           ,######,      #####,   #    #        
            '#,     ,#'  ##    ##  '#,     ,#' ,#      #,     #,   #   #,  ,#        
             '#######'   ##     ##  '#######'  #'      '#     '####' # '####'        



                #########################################################
                #                        -***-                          #
                #          Department of theory and spectroscopy        #
                #                                                       #
                #                      Frank Neese                      #
                #                                                       #
                #     Directorship, Architecture, Infrastructure        #
                #                    SHARK, DRIVERS                     #
                #        Core code/Algorithms in most modules           #
                #                                                       #
                #        Max Planck Institute fuer Kohlenforschung      #
                #                Kaiser Wilhelm Platz 1                 #
                #                 D-45470 Muelheim/Ruhr                 #
                #                      Germany                          #
                #                                                       #
                #                  All rights reserved                  #
                #                        -***-                          #
                #########################################################


                         Program Version 6.0.0  -   RELEASE   -


 With contributions from (in alphabetic order):
   Daniel Aravena         : Magnetic Suceptibility
   Michael Atanasov       : Ab Initio Ligand Field Theory (pilot matlab implementation)
   Alexander A. Auer      : GIAO ZORA, VPT2 properties, NMR spectrum
   Ute Becker             : All parallelization in ORCA, NUMFREQ, NUMCALC
   Giovanni Bistoni       : ED, misc. LED, open-shell LED, HFLD
   Martin Brehm           : Molecular dynamics
   Dmytro Bykov           : pre 5.0 version of the SCF Hessian
   Marcos Casanova-Páez   : Triplet and SCS-CIS(D). UHF-(DLPNO)-IP/EA/STEOM-CCSD. UHF-CVS-IP/STEOM-CCSD
   Vijay G. Chilkuri      : MRCI spin determinant printing, contributions to CSF-ICE
   Pauline Colinet        : FMM embedding
   Dipayan Datta          : RHF DLPNO-CCSD density
   Achintya Kumar Dutta   : EOM-CC, STEOM-CC
   Nicolas Foglia         : Exact transition moments, OPA infrastructure, MCD improvements
   Dmitry Ganyushin       : Spin-Orbit,Spin-Spin,Magnetic field MRCI
   Miquel Garcia          : C-PCM and meta-GGA Hessian, CCSD/C-PCM, Gaussian charge scheme
   Tiago L. C. Gouveia    : GS-ROHF, GS-ROCIS
   Yang Guo               : DLPNO-NEVPT2, F12-NEVPT2, CIM, IAO-localization
   Andreas Hansen         : Spin unrestricted coupled pair/coupled cluster methods
   Ingolf Harden          : AUTO-CI MPn and infrastructure 
   Benjamin Helmich-Paris : MC-RPA, TRAH-(SCF,CASSCF), AVAS, COSX integrals, SCF dyn. polar.
   Lee Huntington         : MR-EOM, pCC
   Robert Izsak           : Overlap fitted RIJCOSX, COSX-SCS-MP3, EOM
   Riya Kayal             : Wick's Theorem for AUTO-CI, AUTO-CI UHF-CCSDT
   Emily Kempfer          : AUTO-CI, RHF CISDT and CCSDT
   Christian Kollmar      : KDIIS, OOCD, Brueckner-CCSD(T), CCSD density, CASPT2, CASPT2-K, improved NEVPT2
   Axel Koslowski         : Symmetry handling
   Simone Kossmann        : Meta GGA functionals, TD-DFT gradient, OOMP2, (MP2 Hessian; deprecated post 5.0)
   Lucas Lang             : DCDCAS
   Marvin Lechner         : AUTO-CI (C++ implementation), FIC-MRCC
   Spencer Leger          : CASSCF response
   Dagmar Lenk            : GEPOL surface, SMD, ORCA-2-JSON
   Dimitrios Liakos       : Extrapolation schemes; Compound Job, initial MDCI parallelization
   Dimitrios Manganas     : Further ROCIS development; embedding schemes. LFT, Crystal Embedding
   Dimitrios Pantazis     : SARC Basis sets
   Anastasios Papadopoulos: AUTO-CI, single reference methods and gradients
   Taras Petrenko         : pre 6.0 DFT Hessian and TD-DFT gradient, (ASA, deprecated), ECA, 1-Electron XAS/XES, NRVS
   Peter Pinski           : DLPNO-MP2, DLPNO-MP2 Gradient
   Christoph Reimann      : Effective Core Potentials
   Marius Retegan         : Local ZFS, SOC
   Christoph Riplinger    : Optimizer, TS searches, QM/MM, DLPNO-CCSD(T), (RO)-DLPNO pert. Triples
   Michael Roemelt        : Original ROCIS implementation
   Masaaki Saitow         : Open-shell DLPNO-CCSD energy and density
   Barbara Sandhoefer     : DKH picture change effects
   Kantharuban Sivalingam : CASSCF convergence/infrastructure, NEVPT2 and variants, FIC-MRCI
   Bernardo de Souza      : ESD, SOC TD-DFT
   Georgi Stoychev        : AutoAux, RI-MP2 NMR, DLPNO-MP2 response, X2C
   Van Anh Tran           : RI-MP2 g-tensors
   Willem Van den Heuvel  : Paramagnetic NMR
   Zikuan Wang            : NOTCH, Electric field optimization 
   Frank Wennmohs         : Technical directorship and infrastructure
   Hang Xu                : AUTO-CI-Response properties 


 We gratefully acknowledge several colleagues who have allowed us to
 interface, adapt or use parts of their codes:
   Stefan Grimme, W. Hujo, H. Kruse, P. Pracht,  : VdW corrections, initial TS optimization,
                  C. Bannwarth, S. Ehlert,         DFT functionals, gCP, sTDA/sTD-DF
                  L. Wittmann, M. Mueller
   Ed Valeev, F. Pavosevic, A. Kumar             : LibInt (2-el integral package), F12 methods
   Garnet Chan, S. Sharma, J. Yang, R. Olivares  : DMRG
   Ulf Ekstrom                                   : XCFun DFT Library
   Mihaly Kallay                                 : mrcc  (arbitrary order and MRCC methods)
   Frank Weinhold                                : gennbo (NPA and NBO analysis)
   Simon Mueller                                 : openCOSMO-RS
   Christopher J. Cramer and Donald G. Truhlar   : smd solvation model
   Lars Goerigk                                  : TD-DFT with DH, B97 family of functionals
   V. Asgeirsson, H. Jonsson                     : NEB implementation
   FAccTs GmbH                                   : IRC, NEB, NEB-TS, DLPNO-Multilevel, CI-OPT
                                                   MM, QMMM, 2- and 3-layer-ONIOM, Crystal-QMMM,
                                                   LR-CPCM, SF, NACMEs, symmetry and pop. for TD-DFT,
                                                   nearIR, NL-DFT gradient (VV10), updates on ESD,
                                                   ML-optimized integration grids, MBIS, APM,
                                                   GOAT, DOCKER, SOLVATOR, interface openCOSMO-RS
   S Lehtola, MJT Oliveira, MAL Marques          : LibXC Library
   Liviu Ungur et al                             : ANISO software


 Your calculation uses the libint2 library for the computation of 2-el integrals
 For citations please refer to: http://libint.valeyev.net

 Your ORCA version has been built with support for libXC version: 6.2.2
 For citations please refer to: https://libxc.gitlab.io

 This ORCA versions uses:
   CBLAS   interface :  Fast vector & matrix operations
   LAPACKE interface :  Fast linear algebra routines
   Shared memory     :  Shared parallel matrices


Your calculation utilizes the atom-pairwise dispersion correction
with the Becke-Johnson damping scheme (D3BJ)


Warning: RI is on but no J-basis has been assigned. Assigning Def2/J (nothing to worry about!)
================================================================================

----- Orbital basis set information -----
Your calculation utilizes the basis: def2-SVP
   F. Weigend and R. Ahlrichs, Phys. Chem. Chem. Phys. 7, 3297 (2005).

----- AuxJ basis set information -----
Your calculation utilizes the auxiliary basis: def2/J
   F. Weigend, Phys. Chem. Chem. Phys. 8, 1057 (2006).

================================================================================
                                        WARNINGS
                       Please study these warnings very carefully!
================================================================================


WARNING: Geometry Optimization
  ===> : Switching off AutoStart
         For restart on a previous wavefunction, please use MOREAD

================================================================================
                                       INPUT FILE
================================================================================
NAME = data/geom_opt/83681/83681.inp
|  1> ! RIJONX B3LYP def2-SVP D3BJ TIGHTSCF Opt
|  2> %pal
|  3> nprocs 6
|  4> end
|  5> 
|  6> * xyz 0 1
|  7> C     -0.728450   -1.706077    1.580154
|  8> C     -1.252068   -1.260757    0.209030
|  9> C     -2.704228   -0.770032    0.397222
| 10> C     -1.392408   -2.511102   -0.699513
| 11> P     -0.191138    0.016725   -0.659923
| 12> C     -0.466731    1.726197    0.057269
| 13> C     -1.823027    2.281406   -0.453330
| 14> C     -0.455432    1.789898    1.589679
| 15> C      0.573315    2.742347   -0.463058
| 16> C      1.621324   -0.456911   -0.602837
| 17> C      2.315479   -0.182835    0.737126
| 18> C      2.382873    0.302546   -1.721665
| 19> C      1.837273   -1.946622   -0.947980
| 20> H      0.217805   -2.246806    1.513208
| 21> H     -1.435975   -2.392467    2.062078
| 22> H     -0.582301   -0.869635    2.267413
| 23> H     -2.785972    0.011389    1.155293
| 24> H     -3.137110   -0.402535   -0.540337
| 25> H     -3.354029   -1.582696    0.747274
| 26> H     -0.471390   -3.086556   -0.791276
| 27> H     -1.721078   -2.243628   -1.711249
| 28> H     -2.134358   -3.210502   -0.293323
| 29> H     -2.688069    1.774480   -0.026046
| 30> H     -1.903730    2.216338   -1.545316
| 31> H     -1.941372    3.338614   -0.183243
| 32> H      0.465329    1.390840    2.021269
| 33> H     -1.291174    1.249499    2.038872
| 34> H     -0.544375    2.827220    1.936125
| 35> H      0.646062    2.730350   -1.556687
| 36> H      1.566248    2.577146   -0.040248
| 37> H      0.302880    3.766966   -0.176312
| 38> H      3.347812   -0.554406    0.723103
| 39> H      1.816117   -0.669879    1.577806
| 40> H      2.381891    0.882811    0.965722
| 41> H      2.478792    1.371637   -1.532766
| 42> H      1.899959    0.178212   -2.698659
| 43> H      3.410633   -0.069919   -1.819763
| 44> H      1.498607   -2.612944   -0.152182
| 45> H      2.903684   -2.171366   -1.080107
| 46> H      1.338330   -2.226948   -1.882822
| 47> **                         ****END OF INPUT****
================================================================================

                       *****************************
                       * Geometry Optimization Run *
                       *****************************

Geometry optimization settings:
Update method            Update   .... BFGS
Choice of coordinates    CoordSys .... (2022) Redundant Internals
Initial Hessian          InHess   .... Almloef's Model
Max. no of cycles        MaxIter  .... 120

Convergence Tolerances:
Energy Change            TolE     ....  5.0000e-06 Eh
Max. Gradient            TolMAXG  ....  3.0000e-04 Eh/bohr
RMS Gradient             TolRMSG  ....  1.0000e-04 Eh/bohr
Max. Displacement        TolMAXD  ....  4.0000e-03 bohr
RMS Displacement         TolRMSD  ....  2.0000e-03 bohr
Strict Convergence                .... False

------------------------------------------------------------------------------
                        ORCA OPTIMIZATION COORDINATE SETUP
------------------------------------------------------------------------------

The optimization will be done in redundant internal coordinates (2022)
Making redundant internal coordinates   ...  (2022 redundants) done
Evaluating the initial hessian          ...  (Almloef) done
Evaluating the coordinates              ...  done
Calculating the B-matrix                .... done
Calculating the G-matrix                .... done
Diagonalizing the G-matrix              .... done
Small eigenvalue found = 9.501e-03
Small eigenvalue found = 1.011e-02
Small eigenvalue found = 2.330e-02
Small eigenvalue found = 2.949e-02
The first mode is                       ....   69
The number of degrees of freedom        ....  114

    -----------------------------------------------------------------
                    Redundant Internal Coordinates


    -----------------------------------------------------------------
         Definition                    Initial Value    Approx d2E/dq
    -----------------------------------------------------------------
      1. B(C   1,C   0)                  1.5338         0.368429   
      2. B(C   2,C   1)                  1.5443         0.354400   
      3. B(C   3,C   1)                  1.5519         0.344650   
      4. B(P   4,C   1)                  1.8742         0.354591   
      5. B(C   5,P   4)                  1.8742         0.354592   
      6. B(C   6,C   5)                  1.5519         0.344651   
      7. B(C   7,C   5)                  1.5338         0.368430   
      8. B(C   8,C   5)                  1.5443         0.354400   
      9. B(C   9,P   4)                  1.8742         0.354593   
     10. B(C  10,C   9)                  1.5338         0.368428   
     11. B(C  11,C   9)                  1.5519         0.344650   
     12. B(C  12,C   9)                  1.5443         0.354400   
     13. B(H  13,C   0)                  1.0919         0.357582   
     14. B(H  14,C   0)                  1.0973         0.350626   
     15. B(H  15,C   0)                  1.0924         0.356950   
     16. B(H  16,C   2)                  1.0918         0.357760   
     17. B(H  17,C   2)                  1.0961         0.352107   
     18. B(H  18,C   2)                  1.0978         0.349907   
     19. B(H  19,C   3)                  1.0899         0.360257   
     20. B(H  20,C   3)                  1.0969         0.351095   
     21. B(H  21,C   3)                  1.0976         0.350235   
     22. B(H  22,C   6)                  1.0899         0.360256   
     23. B(H  23,C   6)                  1.0969         0.351092   
     24. B(H  24,C   6)                  1.0976         0.350235   
     25. B(H  25,C   7)                  1.0924         0.356951   
     26. B(H  26,C   7)                  1.0919         0.357581   
     27. B(H  27,C   7)                  1.0973         0.350627   
     28. B(H  28,C   8)                  1.0961         0.352105   
     29. B(H  29,C   8)                  1.0918         0.357758   
     30. B(H  30,C   8)                  1.0978         0.349906   
     31. B(H  31,C  10)                  1.0973         0.350627   
     32. B(H  32,C  10)                  1.0924         0.356951   
     33. B(H  33,C  10)                  1.0919         0.357582   
     34. B(H  34,C  11)                  1.0899         0.360259   
     35. B(H  35,C  11)                  1.0969         0.351091   
     36. B(H  36,C  11)                  1.0976         0.350233   
     37. B(H  37,C  12)                  1.0918         0.357759   
     38. B(H  38,C  12)                  1.0978         0.349908   
     39. B(H  39,C  12)                  1.0961         0.352108   
     40. A(C   1,C   0,H  13)          112.6328         0.323209   
     41. A(H  14,C   0,H  15)          106.7940         0.289227   
     42. A(C   1,C   0,H  15)          112.6918         0.323115   
     43. A(C   1,C   0,H  14)          110.7396         0.322170   
     44. A(H  13,C   0,H  15)          107.5667         0.290119   
     45. A(H  13,C   0,H  14)          106.0183         0.289307   
     46. A(C   3,C   1,P   4)          109.2031         0.377851   
     47. A(C   2,C   1,P   4)          111.8510         0.379681   
     48. A(C   0,C   1,C   3)          108.6808         0.357548   
     49. A(C   0,C   1,P   4)          114.7792         0.382246   
     50. A(C   0,C   1,C   2)          107.7182         0.359249   
     51. A(C   2,C   1,C   3)          104.0232         0.355199   
     52. A(C   1,C   2,H  16)          112.4852         0.321186   
     53. A(H  16,C   2,H  17)          108.9277         0.289520   
     54. A(C   1,C   2,H  17)          111.9412         0.320351   
     55. A(H  16,C   2,H  18)          105.3139         0.289236   
     56. A(C   1,C   2,H  18)          111.1129         0.320023   
     57. A(H  17,C   2,H  18)          106.6886         0.288516   
     58. A(C   1,C   3,H  21)          110.9694         0.318617   
     59. A(H  20,C   3,H  21)          107.1087         0.288428   
     60. A(H  19,C   3,H  21)          105.4243         0.289594   
     61. A(H  19,C   3,H  20)          107.7163         0.289706   
     62. A(C   1,C   3,H  19)          113.4696         0.320088   
     63. A(C   1,C   3,H  20)          111.7534         0.318745   
     64. A(C   5,P   4,C   9)          111.1647         0.404417   
     65. A(C   1,P   4,C   5)          111.1647         0.404416   
     66. A(C   1,P   4,C   9)          111.1647         0.404416   
     67. A(C   7,C   5,C   8)          107.7182         0.359249   
     68. A(C   6,C   5,C   8)          104.0231         0.355199   
     69. A(P   4,C   5,C   8)          111.8509         0.379681   
     70. A(C   6,C   5,C   7)          108.6807         0.357548   
     71. A(P   4,C   5,C   7)          114.7793         0.382246   
     72. A(P   4,C   5,C   6)          109.2031         0.377851   
     73. A(H  23,C   6,H  24)          107.1086         0.288428   
     74. A(H  22,C   6,H  24)          105.4242         0.289594   
     75. A(C   5,C   6,H  24)          110.9694         0.318617   
     76. A(H  22,C   6,H  23)          107.7163         0.289705   
     77. A(C   5,C   6,H  23)          111.7534         0.318744   
     78. A(C   5,C   6,H  22)          113.4696         0.320088   
     79. A(H  26,C   7,H  27)          106.0184         0.289307   
     80. A(H  25,C   7,H  27)          106.7941         0.289227   
     81. A(C   5,C   7,H  27)          110.7397         0.322170   
     82. A(H  25,C   7,H  26)          107.5665         0.290119   
     83. A(C   5,C   7,H  26)          112.6328         0.323209   
     84. A(C   5,C   7,H  25)          112.6918         0.323115   
     85. A(H  29,C   8,H  30)          105.3140         0.289236   
     86. A(H  28,C   8,H  30)          106.6886         0.288515   
     87. A(C   5,C   8,H  30)          111.1130         0.320023   
     88. A(H  28,C   8,H  29)          108.9277         0.289520   
     89. A(C   5,C   8,H  29)          112.4851         0.321186   
     90. A(C   5,C   8,H  28)          111.9413         0.320350   
     91. A(C  11,C   9,C  12)          104.0232         0.355199   
     92. A(C  10,C   9,C  12)          107.7181         0.359249   
     93. A(P   4,C   9,C  12)          111.8510         0.379681   
     94. A(C  10,C   9,C  11)          108.6808         0.357548   
     95. A(P   4,C   9,C  11)          109.2031         0.377851   
     96. A(P   4,C   9,C  10)          114.7793         0.382246   
     97. A(H  31,C  10,H  33)          106.0182         0.289307   
     98. A(C   9,C  10,H  33)          112.6327         0.323209   
     99. A(H  31,C  10,H  32)          106.7941         0.289227   
    100. A(C   9,C  10,H  32)          112.6918         0.323115   
    101. A(H  32,C  10,H  33)          107.5667         0.290119   
    102. A(C   9,C  10,H  31)          110.7397         0.322170   
    103. A(H  35,C  11,H  36)          107.1084         0.288427   
    104. A(H  34,C  11,H  36)          105.4242         0.289594   
    105. A(C   9,C  11,H  36)          110.9693         0.318617   
    106. A(H  34,C  11,H  35)          107.7167         0.289705   
    107. A(C   9,C  11,H  35)          111.7534         0.318744   
    108. A(C   9,C  11,H  34)          113.4696         0.320089   
    109. A(H  38,C  12,H  39)          106.6886         0.288516   
    110. A(H  37,C  12,H  39)          108.9278         0.289520   
    111. A(C   9,C  12,H  39)          111.9412         0.320351   
    112. A(H  37,C  12,H  38)          105.3140         0.289236   
    113. A(C   9,C  12,H  38)          111.1129         0.320023   
    114. A(C   9,C  12,H  37)          112.4851         0.321186   
    115. D(C   2,C   1,C   0,H  13)    168.8424         0.010857   
    116. D(C   3,C   1,C   0,H  14)    -61.8038         0.010857   
    117. D(C   2,C   1,C   0,H  14)     50.3163         0.010857   
    118. D(C   2,C   1,C   0,H  15)    -69.2352         0.010857   
    119. D(C   3,C   1,C   0,H  13)     56.7223         0.010857   
    120. D(C   3,C   1,C   0,H  15)    178.6447         0.010857   
    121. D(H  16,C   2,C   1,C   3)    170.3244         0.010100   
    122. D(H  17,C   2,C   1,P   4)     51.1010         0.010100   
    123. D(H  17,C   2,C   1,C   3)    -66.6363         0.010100   
    124. D(H  16,C   2,C   1,P   4)    -71.9384         0.010100   
    125. D(H  17,C   2,C   1,C   0)    178.1264         0.010100   
    126. D(H  16,C   2,C   1,C   0)     55.0870         0.010100   
    127. D(H  19,C   3,C   1,P   4)     70.5454         0.009595   
    128. D(H  19,C   3,C   1,C   2)   -169.9021         0.009595   
    129. D(H  19,C   3,C   1,C   0)    -55.3467         0.009595   
    130. D(H  20,C   3,C   1,P   4)    -51.4894         0.009595   
    131. D(H  20,C   3,C   1,C   2)     68.0630         0.009595   
    132. D(H  20,C   3,C   1,C   0)   -177.3815         0.009595   
    133. D(C   9,P   4,C   1,C   0)     46.5696         0.003191   
    134. D(C   5,P   4,C   1,C   3)    159.8632         0.003191   
    135. D(C   5,P   4,C   1,C   2)     45.2732         0.003191   
    136. D(C   9,P   4,C   1,C   2)    169.6802         0.003191   
    137. D(C   5,P   4,C   1,C   0)    -77.8374         0.003191   
    138. D(C   8,C   5,P   4,C   1)    169.6803         0.003191   
    139. D(C   7,C   5,P   4,C   9)    -77.8374         0.003191   
    140. D(C   7,C   5,P   4,C   1)     46.5696         0.003191   
    141. D(C   6,C   5,P   4,C   9)    159.8631         0.003191   
    142. D(C   6,C   5,P   4,C   1)    -75.7299         0.003191   
    143. D(H  22,C   6,C   5,C   8)   -169.9019         0.009595   
    144. D(H  22,C   6,C   5,C   7)    -55.3465         0.009595   
    145. D(H  22,C   6,C   5,P   4)     70.5457         0.009595   
    146. D(H  23,C   6,C   5,C   8)     68.0632         0.009595   
    147. D(H  23,C   6,C   5,C   7)   -177.3814         0.009595   
    148. D(H  23,C   6,C   5,P   4)    -51.4892         0.009595   
    149. D(H  26,C   7,C   5,C   8)    168.8425         0.010857   
    150. D(H  26,C   7,C   5,C   6)     56.7225         0.010857   
    151. D(H  26,C   7,C   5,P   4)    -65.8590         0.010857   
    152. D(H  25,C   7,C   5,C   8)    -69.2354         0.010857   
    153. D(H  25,C   7,C   5,C   6)    178.6446         0.010857   
    154. D(H  25,C   7,C   5,P   4)     56.0630         0.010857   
    155. D(H  29,C   8,C   5,C   7)     55.0877         0.010100   
    156. D(H  29,C   8,C   5,C   6)    170.3249         0.010100   
    157. D(H  29,C   8,C   5,P   4)    -71.9379         0.010100   
    158. D(H  28,C   8,C   5,C   7)    178.1269         0.010100   
    159. D(H  28,C   8,C   5,C   6)    -66.6358         0.010100   
    160. D(H  28,C   8,C   5,P   4)     51.1014         0.010100   
    161. D(C  12,C   9,P   4,C   1)     45.2731         0.003191   
    162. D(C  11,C   9,P   4,C   5)    -75.7299         0.003191   
    163. D(C  11,C   9,P   4,C   1)    159.8631         0.003191   
    164. D(C  10,C   9,P   4,C   5)     46.5696         0.003191   
    165. D(C  10,C   9,P   4,C   1)    -77.8374         0.003191   
    166. D(H  32,C  10,C   9,C  12)    -69.2354         0.010857   
    167. D(H  32,C  10,C   9,C  11)    178.6445         0.010857   
    168. D(H  32,C  10,C   9,P   4)     56.0630         0.010857   
    169. D(H  31,C  10,C   9,C  12)     50.3163         0.010857   
    170. D(H  31,C  10,C   9,C  11)    -61.8038         0.010857   
    171. D(H  31,C  10,C   9,P   4)    175.6147         0.010857   
    172. D(H  35,C  11,C   9,C  10)   -177.3817         0.009595   
    173. D(H  35,C  11,C   9,P   4)    -51.4895         0.009595   
    174. D(H  34,C  11,C   9,C  12)   -169.9017         0.009595   
    175. D(H  34,C  11,C   9,C  10)    -55.3463         0.009595   
    176. D(H  35,C  11,C   9,C  12)     68.0630         0.009595   
    177. D(H  34,C  11,C   9,P   4)     70.5459         0.009595   
    178. D(H  38,C  12,C   9,C  11)     52.5345         0.010100   
    179. D(H  38,C  12,C   9,C  10)    -62.7028         0.010100   
    180. D(H  38,C  12,C   9,P   4)    170.2718         0.010100   
    181. D(H  37,C  12,C   9,C  11)    170.3242         0.010100   
    182. D(H  37,C  12,C   9,C  10)     55.0869         0.010100   
    183. D(H  37,C  12,C   9,P   4)    -71.9385         0.010100   
    -----------------------------------------------------------------

Number of atoms                         .... 40
Number of degrees of freedom            .... 183


         *************************************************************
         *                GEOMETRY OPTIMIZATION CYCLE   1            *
         *************************************************************
---------------------------------
CARTESIAN COORDINATES (ANGSTROEM)
---------------------------------
  C     -0.728450   -1.706077    1.580154
  C     -1.252068   -1.260757    0.209030
  C     -2.704228   -0.770032    0.397222
  C     -1.392408   -2.511102   -0.699513
  P     -0.191138    0.016725   -0.659923
  C     -0.466731    1.726197    0.057269
  C     -1.823027    2.281406   -0.453330
  C     -0.455432    1.789898    1.589679
  C      0.573315    2.742347   -0.463058
  C      1.621324   -0.456911   -0.602837
  C      2.315479   -0.182835    0.737126
  C      2.382873    0.302546   -1.721665
  C      1.837273   -1.946622   -0.947980
  H      0.217805   -2.246806    1.513208
  H     -1.435975   -2.392467    2.062078
  H     -0.582301   -0.869635    2.267413
  H     -2.785972    0.011389    1.155293
  H     -3.137110   -0.402535   -0.540337
  H     -3.354029   -1.582696    0.747274
  H     -0.471390   -3.086556   -0.791276
  H     -1.721078   -2.243628   -1.711249
  H     -2.134358   -3.210502   -0.293323
  H     -2.688069    1.774480   -0.026046
  H     -1.903730    2.216338   -1.545316
  H     -1.941372    3.338614   -0.183243
  H      0.465329    1.390840    2.021269
  H     -1.291174    1.249499    2.038872
  H     -0.544375    2.827220    1.936125
  H      0.646062    2.730350   -1.556687
  H      1.566248    2.577146   -0.040248
  H      0.302880    3.766966   -0.176312
  H      3.347812   -0.554406    0.723103
  H      1.816117   -0.669879    1.577806
  H      2.381891    0.882811    0.965722
  H      2.478792    1.371637   -1.532766
  H      1.899959    0.178212   -2.698659
  H      3.410633   -0.069919   -1.819763
  H      1.498607   -2.612944   -0.152182
  H      2.903684   -2.171366   -1.080107
  H      1.338330   -2.226948   -1.882822

----------------------------
CARTESIAN COORDINATES (A.U.)
----------------------------
  NO LB      ZA    FRAG     MASS         X           Y           Z
   0 C     6.0000    0    12.011   -1.376571   -3.224018    2.986058
   1 C     6.0000    0    12.011   -2.366066   -2.382485    0.395009
   2 C     6.0000    0    12.011   -5.110250   -1.455150    0.750641
   3 C     6.0000    0    12.011   -2.631270   -4.745295   -1.321888
   4 P    15.0000    0    30.974   -0.361198    0.031606   -1.247074
   5 C     6.0000    0    12.011   -0.881994    3.262040    0.108223
   6 C     6.0000    0    12.011   -3.445022    4.311233   -0.856670
   7 C     6.0000    0    12.011   -0.860642    3.382417    3.004058
   8 C     6.0000    0    12.011    1.083408    5.182285   -0.875053
   9 C     6.0000    0    12.011    3.063858   -0.863437   -1.139197
  10 C     6.0000    0    12.011    4.375621   -0.345508    1.392966
  11 C     6.0000    0    12.011    4.502977    0.571729   -3.253475
  12 C     6.0000    0    12.011    3.471943   -3.678582   -1.791423
  13 H     1.0000    0     1.008    0.411592   -4.245848    2.859549
  14 H     1.0000    0     1.008   -2.713599   -4.521107    3.896763
  15 H     1.0000    0     1.008   -1.100389   -1.643372    4.284790
  16 H     1.0000    0     1.008   -5.264724    0.021522    2.183187
  17 H     1.0000    0     1.008   -5.928279   -0.760681   -1.021089
  18 H     1.0000    0     1.008   -6.338196   -2.990862    1.412143
  19 H     1.0000    0     1.008   -0.890798   -5.832746   -1.495295
  20 H     1.0000    0     1.008   -3.252366   -4.239842   -3.233792
  21 H     1.0000    0     1.008   -4.033352   -6.066970   -0.554300
  22 H     1.0000    0     1.008   -5.079714    3.353281   -0.049220
  23 H     1.0000    0     1.008   -3.597528    4.188272   -2.920224
  24 H     1.0000    0     1.008   -3.668661    6.309066   -0.346279
  25 H     1.0000    0     1.008    0.879344    2.628307    3.819645
  26 H     1.0000    0     1.008   -2.439965    2.361211    3.852910
  27 H     1.0000    0     1.008   -1.028720    5.342672    3.658746
  28 H     1.0000    0     1.008    1.220880    5.159614   -2.941712
  29 H     1.0000    0     1.008    2.959780    4.870100   -0.076058
  30 H     1.0000    0     1.008    0.572360    7.118534   -0.333181
  31 H     1.0000    0     1.008    6.326448   -1.047676    1.366467
  32 H     1.0000    0     1.008    3.431964   -1.265888    2.981621
  33 H     1.0000    0     1.008    4.501122    1.668271    1.824950
  34 H     1.0000    0     1.008    4.684238    2.592018   -2.896508
  35 H     1.0000    0     1.008    3.590402    0.336772   -5.099726
  36 H     1.0000    0     1.008    6.445162   -0.132128   -3.438854
  37 H     1.0000    0     1.008    2.831957   -4.937749   -0.287582
  38 H     1.0000    0     1.008    5.487168   -4.103287   -2.041106
  39 H     1.0000    0     1.008    2.529077   -4.208322   -3.558018

--------------------------------
INTERNAL COORDINATES (ANGSTROEM)
--------------------------------
 C      0   0   0     0.000000000000     0.00000000     0.00000000
 C      1   0   0     1.533775321128     0.00000000     0.00000000
 C      2   1   0     1.544343200228   107.71819466     0.00000000
 C      2   1   3     1.551936956669   108.68078138   247.87988470
 P      2   1   3     1.874196372164   114.77921349   125.29841182
 C      5   2   1     1.874195930338   111.16470129   282.16263182
 C      6   5   2     1.551936600541   109.20312755   284.27012685
 C      6   5   2     1.533775046381   114.77932963    46.56959546
 C      6   5   2     1.544343449996   111.85092841   169.68027820
 C      5   2   1     1.874195393585   111.16470949    46.56964212
 C     10   5   2     1.533776274158   114.77925201   282.16256262
 C     10   5   2     1.551936824692   109.20314348   159.86310367
 C     10   5   2     1.544343395936   111.85095858    45.27311356
 H      1   2   3     1.091910318379   112.63282232   168.84241884
 H      1   2   3     1.097257307791   110.73963119    50.31632120
 H      1   2   3     1.092391725823   112.69184567   290.76479137
 H      3   2   1     1.091774931851   112.48521618    55.08704226
 H      3   2   1     1.096110281593   111.94123138   178.12635602
 H      3   2   1     1.097816250199   111.11293428   297.29729386
 H      4   2   1     1.089881603941   113.46956084   304.65329125
 H      4   2   1     1.096893815860   111.75336214   182.61848056
 H      4   2   1     1.097561150278   110.96941213    63.13755350
 H      7   6   5     1.089882217442   113.46960229    70.54574381
 H      7   6   5     1.096895730245   111.75337628   308.51081711
 H      7   6   5     1.097561516207   110.96943217   189.02996511
 H      8   6   5     1.092390971486   112.69175204    56.06303557
 H      8   6   5     1.091911223962   112.63275185   294.14096099
 H      8   6   5     1.097256861382   110.73974819   175.61469525
 H      9   6   5     1.096111510595   111.94125229    51.10137140
 H      9   6   5     1.091776354841   112.48505106   288.06212474
 H      9   6   5     1.097817130902   111.11300737   170.27236869
 H     11  10   5     1.097257068995   110.73970205   175.61472152
 H     11  10   5     1.092390556248   112.69182639    56.06297337
 H     11  10   5     1.091910290398   112.63266261   294.14067144
 H     12  10   5     1.089880201235   113.46956450    70.54589079
 H     12  10   5     1.096896599953   111.75340798   308.51053253
 H     12  10   5     1.097562759677   110.96930122   189.02993987
 H     13  10   5     1.091775674781   112.48510270   288.06150279
 H     13  10   5     1.097815936570   111.11291035   170.27181712
 H     13  10   5     1.096109642549   111.94123714    51.10087149

---------------------------
INTERNAL COORDINATES (A.U.)
---------------------------
 C      0   0   0     0.000000000000     0.00000000     0.00000000
 C      1   0   0     2.898415307898     0.00000000     0.00000000
 C      2   1   0     2.918385705214   107.71819466     0.00000000
 C      2   1   3     2.932735825215   108.68078138   247.87988470
 P      2   1   3     3.541717864579   114.77921349   125.29841182
 C      5   2   1     3.541717029649   111.16470129   282.16263182
 C      6   5   2     2.932735152231   109.20312755   284.27012685
 C      6   5   2     2.898414788703   114.77932963    46.56959546
 C      6   5   2     2.918386177207   111.85092841   169.68027820
 C      5   2   1     3.541716015333   111.16470949    46.56964212
 C     10   5   2     2.898417108865   114.77925201   282.16256262
 C     10   5   2     2.932735575815   109.20314348   159.86310367
 C     10   5   2     2.918386075049   111.85095858    45.27311356
 H      1   2   3     2.063411464539   112.63282232   168.84241884
 H      1   2   3     2.073515810169   110.73963119    50.31632120
 H      1   2   3     2.064321192767   112.69184567   290.76479137
 H      3   2   1     2.063155621079   112.48521618    55.08704226
 H      3   2   1     2.071348244786   111.94123138   178.12635602
 H      3   2   1     2.074572058244   111.11293428   297.29729386
 H      4   2   1     2.059577749847   113.46956084   304.65329125
 H      4   2   1     2.072828909967   111.75336214   182.61848056
 H      4   2   1     2.074089989257   110.96941213    63.13755350
 H      7   6   5     2.059578909196   113.46960229    70.54574381
 H      7   6   5     2.072832527630   111.75337628   308.51081711
 H      7   6   5     2.074090680762   110.96943217   189.02996511
 H      8   6   5     2.064319767277   112.69175204    56.06303557
 H      8   6   5     2.063413175843   112.63275185   294.14096099
 H      8   6   5     2.073514966577   110.73974819   175.61469525
 H      9   6   5     2.071350567263   111.94125229    51.10137140
 H      9   6   5     2.063158310140   112.48505106   288.06212474
 H      9   6   5     2.074573722532   111.11300737   170.27236869
 H     11  10   5     2.073515358909   110.73970205   175.61472152
 H     11  10   5     2.064318982591   112.69182639    56.06297337
 H     11  10   5     2.063411411662   112.63266261   294.14067144
 H     12  10   5     2.059575099116   113.46956450    70.54589079
 H     12  10   5     2.072834171140   111.75340798   308.51053253
 H     12  10   5     2.074093030580   110.96930122   189.02993987
 H     13  10   5     2.063157025014   112.48510270   288.06150279
 H     13  10   5     2.074571465571   111.11291035   170.27181712
 H     13  10   5     2.071347037168   111.94123714    51.10087149

---------------------
BASIS SET INFORMATION
---------------------
There are 3 groups of distinct atoms

 Group   1 Type C   : 7s4p1d contracted to 3s2p1d pattern {511/31/1}
 Group   2 Type P   : 10s7p1d contracted to 4s3p1d pattern {5311/511/1}
 Group   3 Type H   : 4s1p contracted to 2s1p pattern {31/1}

Atom   0C    basis set group =>   1
Atom   1C    basis set group =>   1
Atom   2C    basis set group =>   1
Atom   3C    basis set group =>   1
Atom   4P    basis set group =>   2
Atom   5C    basis set group =>   1
Atom   6C    basis set group =>   1
Atom   7C    basis set group =>   1
Atom   8C    basis set group =>   1
Atom   9C    basis set group =>   1
Atom  10C    basis set group =>   1
Atom  11C    basis set group =>   1
Atom  12C    basis set group =>   1
Atom  13H    basis set group =>   3
Atom  14H    basis set group =>   3
Atom  15H    basis set group =>   3
Atom  16H    basis set group =>   3
Atom  17H    basis set group =>   3
Atom  18H    basis set group =>   3
Atom  19H    basis set group =>   3
Atom  20H    basis set group =>   3
Atom  21H    basis set group =>   3
Atom  22H    basis set group =>   3
Atom  23H    basis set group =>   3
Atom  24H    basis set group =>   3
Atom  25H    basis set group =>   3
Atom  26H    basis set group =>   3
Atom  27H    basis set group =>   3
Atom  28H    basis set group =>   3
Atom  29H    basis set group =>   3
Atom  30H    basis set group =>   3
Atom  31H    basis set group =>   3
Atom  32H    basis set group =>   3
Atom  33H    basis set group =>   3
Atom  34H    basis set group =>   3
Atom  35H    basis set group =>   3
Atom  36H    basis set group =>   3
Atom  37H    basis set group =>   3
Atom  38H    basis set group =>   3
Atom  39H    basis set group =>   3
---------------------------------
AUXILIARY/J BASIS SET INFORMATION
---------------------------------
There are 3 groups of distinct atoms

 Group   1 Type C   : 12s5p4d2f1g contracted to 6s4p3d1f1g pattern {711111/2111/211/2/1}
 Group   2 Type P   : 14s5p5d2f1g contracted to 8s4p3d1f1g pattern {71111111/2111/311/2/1}
 Group   3 Type H   : 5s2p1d contracted to 3s1p1d pattern {311/2/1}

Atom   0C    basis set group =>   1
Atom   1C    basis set group =>   1
Atom   2C    basis set group =>   1
Atom   3C    basis set group =>   1
Atom   4P    basis set group =>   2
Atom   5C    basis set group =>   1
Atom   6C    basis set group =>   1
Atom   7C    basis set group =>   1
Atom   8C    basis set group =>   1
Atom   9C    basis set group =>   1
Atom  10C    basis set group =>   1
Atom  11C    basis set group =>   1
Atom  12C    basis set group =>   1
Atom  13H    basis set group =>   3
Atom  14H    basis set group =>   3
Atom  15H    basis set group =>   3
Atom  16H    basis set group =>   3
Atom  17H    basis set group =>   3
Atom  18H    basis set group =>   3
Atom  19H    basis set group =>   3
Atom  20H    basis set group =>   3
Atom  21H    basis set group =>   3
Atom  22H    basis set group =>   3
Atom  23H    basis set group =>   3
Atom  24H    basis set group =>   3
Atom  25H    basis set group =>   3
Atom  26H    basis set group =>   3
Atom  27H    basis set group =>   3
Atom  28H    basis set group =>   3
Atom  29H    basis set group =>   3
Atom  30H    basis set group =>   3
Atom  31H    basis set group =>   3
Atom  32H    basis set group =>   3
Atom  33H    basis set group =>   3
Atom  34H    basis set group =>   3
Atom  35H    basis set group =>   3
Atom  36H    basis set group =>   3
Atom  37H    basis set group =>   3
Atom  38H    basis set group =>   3
Atom  39H    basis set group =>   3


           ************************************************************
           *        Program running with 6 parallel MPI-processes     *
           *              working on a common directory               *
           ************************************************************
------------------------------------------------------------------------------
                             ORCA STARTUP CALCULATIONS
                           -- RI-GTO INTEGRALS CHOSEN --
------------------------------------------------------------------------------
------------------------------------------------------------------------------
                   ___                                                        
                  /   \      - P O W E R E D   B Y -                         
                 /     \                                                     
                 |  |  |   _    _      __       _____    __    __             
                 |  |  |  | |  | |    /  \     |  _  \  |  |  /  |          
                  \  \/   | |  | |   /    \    | | | |  |  | /  /          
                 / \  \   | |__| |  /  /\  \   | |_| |  |  |/  /          
                |  |  |   |  __  | /  /__\  \  |    /   |      \           
                |  |  |   | |  | | |   __   |  |    \   |  |\   \          
                \     /   | |  | | |  |  |  |  | |\  \  |  | \   \       
                 \___/    |_|  |_| |__|  |__|  |_| \__\ |__|  \__/        
                                                                              
                      - O R C A' S   B I G   F R I E N D -                    
                                      &                                       
                       - I N T E G R A L  F E E D E R -                       
                                                                              
 v1 FN, 2020, v2 2021, v3 2022-2024                                           
------------------------------------------------------------------------------


----------------------
SHARK INTEGRAL PACKAGE
----------------------

Number of atoms                             ...     40
Number of basis functions                   ...    321
Number of shells                            ...    161
Maximum angular momentum                    ...      2
Integral batch strategy                     ... SHARK/LIBINT Hybrid
RI-J (if used) integral strategy            ... SPLIT-RIJ (Revised 2003 algorithm where possible)
Printlevel                                  ...      1
Contraction scheme used                     ... SEGMENTED contraction
Prescreening option                         ... SCHWARTZ
   Thresh                                   ... 2.500e-11
   Tcut                                     ... 2.500e-12
   Tpresel                                  ... 2.500e-12 
Coulomb Range Separation                    ... NOT USED
Exchange Range Separation                   ... NOT USED
Multipole approximations                    ... NOT USED
Finite Nucleus Model                        ... NOT USED
CABS basis                                  ... NOT available
Auxiliary Coulomb fitting basis             ... AVAILABLE
   # of basis functions in Aux-J            ...    936
   # of shells in Aux-J                     ...    332
   Maximum angular momentum in Aux-J        ...      4
Auxiliary J/K fitting basis                 ... NOT available
Auxiliary Correlation fitting basis         ... NOT available
Auxiliary 'external' fitting basis          ... NOT available

Checking pre-screening integrals            ... done (  0.0 sec) Dimension = 161
Check shell pair data                       ... done (  0.0 sec)
Shell pair information
Shell pair cut-off parameter TPreSel        ...   2.5e-12
Total number of shell pairs                 ...     13041
Shell pairs after pre-screening             ...     11544
Total number of primitive shell pairs       ...     44513
Primitive shell pairs kept                  ...     27035
          la=0 lb=0:   4087 shell pairs
          la=1 lb=0:   4485 shell pairs
          la=1 lb=1:   1213 shell pairs
          la=2 lb=0:   1087 shell pairs
          la=2 lb=1:    594 shell pairs
          la=2 lb=2:     78 shell pairs

Calculating one electron integrals          ... done (  0.0 sec)
Calculating RI/J V-Matrix + Cholesky decomp.... done (  0.0 sec)
Calculating Nuclear repulsion               ... done (  0.0 sec) ENN=   1079.104142951261 Eh

Diagonalization of the overlap matrix:
Smallest eigenvalue                        ... 1.745e-03
Time for diagonalization                   ...    0.012 sec
Threshold for overlap eigenvalues          ... 1.000e-07
Number of eigenvalues below threshold      ... 0
Time for construction of square roots      ...    0.008 sec
Total time needed                          ...    0.021 sec

-------------------
DFT GRID GENERATION
-------------------

General Integration Accuracy     IntAcc      ... 4.388
Radial Grid Type                 RadialGrid  ... OptM3 with GC (2021)
Angular Grid (max. ang.)         AngularGrid ... 4 (Lebedev-302)
Angular grid pruning method      GridPruning ... 4 (adaptive)
Weight generation scheme         WeightScheme... mBecke (2022)
Basis function cutoff            BFCut       ... 1.0000e-11
Integration weight cutoff        WCut        ... 1.0000e-14
Partially contracted basis set               ... off
Rotationally invariant grid construction     ... off
Angular grids for H and He will be reduced by one unit

Total number of grid points                  ...   163187
Total number of batches                      ...     2571
Average number of points per batch           ...       63
Average number of grid points per atom       ...     4080
Initializing property integral containers    ... done (  0.0 sec)

SHARK setup successfully completed in   1.1 seconds

Maximum memory used throughout the entire STARTUP-calculation: 46.7 MB


           ************************************************************
           *        Program running with 6 parallel MPI-processes     *
           *              working on a common directory               *
           ************************************************************
-------------------------------------------------------------------------------
                                 ORCA GUESS
                   Start orbitals & Density for SCF / CASSCF
-------------------------------------------------------------------------------

------------
SCF SETTINGS
------------
Hamiltonian:
 Density Functional     Method          .... DFT(GTOs)
 Exchange Functional    Exchange        .... B88
   X-Alpha parameter    XAlpha          ....  0.666667
   Becke's b parameter  XBeta           ....  0.004200
 Correlation Functional Correlation     .... LYP
 LDA part of GGA corr.  LDAOpt          .... VWN-5
 Gradients option       PostSCFGGA      .... off
 Hybrid DFT is turned on
   Fraction HF Exchange ScalHFX         ....  0.200000
   Scaling of DF-GGA-X  ScalDFX         ....  0.720000
   Scaling of DF-GGA-C  ScalDFC         ....  0.810000
   Scaling of DF-LDA-C  ScalLDAC        ....  1.000000
   Perturbative correction              ....  0.000000
   NL short-range parameter             ....  4.800000
 RI-approximation to the Coulomb term is turned on
   Number of AuxJ basis functions       .... 936
   RIJ-ON(X) (HFX calculated with O(N)) .... on


General Settings:
 Integral files         IntName         .... data/geom_opt/83681/83681
 Hartree-Fock type      HFTyp           .... RHF
 Total Charge           Charge          ....    0
 Multiplicity           Mult            ....    1
 Number of Electrons    NEL             ....  114
 Basis Dimension        Dim             ....  321
 Nuclear Repulsion      ENuc            ....   1079.1041429513 Eh

Convergence Acceleration:
 AO-DIIS                CNVDIIS         .... on
   Start iteration      DIISMaxIt       ....    12
   Startup error        DIISStart       ....  0.200000
   # of expansion vecs  DIISMaxEq       ....     5
   Bias factor          DIISBfac        ....   1.050
   Max. coefficient     DIISMaxC        ....  10.000
 MO-DIIS                CNVKDIIS        .... off
 Trust-Rad. Augm. Hess. CNVTRAH         .... auto
   Auto Start mean grad. ratio tolernc. ....  1.125000
   Auto Start start iteration           ....    50
   Auto Start num. interpolation iter.  ....    10
   Max. Number of Micro iterations      ....    24
   Max. Number of Macro iterations      .... Maxiter - #DIIS iter
   Number of Davidson start vectors     ....     2
   Converg. threshold    (grad. norm)   ....   1.000e-05
   Grad. Scal. Fac. for Micro threshold ....   0.100
   Minimum threshold for Micro iter.    ....   1.000e-02
   NR start threshold (gradient norm)   ....   1.000e-04
   Initial trust radius                 ....   0.400
   Minimum AH scaling param. (alpha)    ....   1.000
   Maximum AH scaling param. (alpha)    .... 1000.000
   Quad. conv. algorithm                .... NR
   White noise on init. David. guess    .... on
   Maximum white noise                  ....   0.010
   Pseudo random numbers                .... off
   Inactive MOs                         .... canonical
   Orbital update algorithm             .... Taylor
   Preconditioner                       .... Diag
   Full preconditioner red. dimension   ....   250
   COSX micro iterations for RIJONX calc.... off
 SOSCF                  CNVSOSCF        .... on
   Start iteration      SOSCFMaxIt      ....   150
   Startup grad/error   SOSCFStart      ....  0.003300
   Hessian update       SOSCFHessUp     .... L-BFGS
 Level Shifting         CNVShift        .... on
   Level shift para.    LevelShift      ....    0.2500
   Turn off err/grad.   ShiftErr        ....    0.0010
 Zerner damping         CNVZerner       .... off
 Static damping         CNVDamp         .... on
   Fraction old density DampFac         ....    0.7000
   Max. Damping (<1)    DampMax         ....    0.9800
   Min. Damping (>=0)   DampMin         ....    0.0000
   Turn off err/grad.   DampErr         ....    0.1000

SCF Procedure:
 Maximum # iterations   MaxIter         ....   125
 SCF integral mode      SCFMode         .... Direct
   Integral package                     .... SHARK and LIBINT hybrid scheme
 Reset frequency        DirectResetFreq ....    20
 Integral Threshold     Thresh          ....  2.500e-11 Eh
 Primitive CutOff       TCut            ....  2.500e-12 Eh

Convergence Tolerance:
 Convergence Check Mode ConvCheckMode   .... Total+1el-Energy
 Convergence forced     ConvForced      .... 0
 Energy Change          TolE            ....  1.000e-08 Eh
 1-El. energy change                    ....  1.000e-05 Eh
 Orbital Gradient       TolG            ....  1.000e-05
 Orbital Rotation angle TolX            ....  1.000e-05
 DIIS Error             TolErr          ....  5.000e-07

------------------------------
INITIAL GUESS: MODEL POTENTIAL
------------------------------
Loading Hartree-Fock densities                     ... done
Calculating cut-offs                               ... done
Initializing the effective Hamiltonian             ... done
Setting up the integral package (SHARK)            ... done
Starting the Coulomb interaction                   ... done (   0.1 sec)
Making the grid                                    ... done (   0.2 sec)
Mapping shells                                     ... done
Starting the XC term evaluation                    ... done (   0.2 sec)
  promolecular density results
     # of electrons  =    114.009265705
     EX              =    -92.391478254
     EC              =     -3.785614402
     EX+EC           =    -96.177092655
Transforming the Hamiltonian                       ... done (   0.0 sec)
Diagonalizing the Hamiltonian                      ... done (   0.0 sec)
Back transforming the eigenvectors                 ... done (   0.0 sec)
Now organizing SCF variables                       ... done
                      ------------------
                      INITIAL GUESS DONE (   0.5 sec)
                      ------------------
             **** ENERGY FILE WAS UPDATED (data/geom_opt/83681/83681.en.tmp) ****
Finished Guess after   0.6 sec
Maximum memory used throughout the entire GUESS-calculation: 25.1 MB


           ************************************************************
           *        Program running with 6 parallel MPI-processes     *
           *              working on a common directory               *
           ************************************************************

-------------------------------------------------------------------------------------------
                                      ORCA LEAN-SCF
                              memory conserving SCF solver
-------------------------------------------------------------------------------------------

----------------------------------------D-I-I-S--------------------------------------------
Iteration    Energy (Eh)           Delta-E    RMSDP     MaxDP     DIISErr   Damp  Time(sec)
-------------------------------------------------------------------------------------------
               ***  Starting incremental Fock matrix formation  ***
    1    -813.5264359063558004     0.00e+00  2.48e-03  8.16e-02  1.70e-01  0.700   4.6
    2    -813.7543013508948206    -2.28e-01  1.78e-03  5.00e-02  8.86e-02  0.700   4.2
                               ***Turning on AO-DIIS***
    3    -813.8456028173143295    -9.13e-02  7.20e-04  2.96e-02  3.35e-02  0.700   4.1
    4    -813.8978430168740488    -5.22e-02  1.28e-03  6.99e-02  1.63e-02  0.000   4.1
    5    -814.0114856020391017    -1.14e-01  2.25e-04  7.82e-03  6.09e-03  0.000   4.3
                              *** Initializing SOSCF ***
---------------------------------------S-O-S-C-F--------------------------------------
Iteration    Energy (Eh)           Delta-E    RMSDP     MaxDP     MaxGrad    Time(sec)
--------------------------------------------------------------------------------------
    6    -814.0122184123001716    -7.33e-04  9.17e-05  3.40e-03  1.63e-03     3.7
               *** Restarting incremental Fock matrix formation ***
    7    -814.0122828549356200    -6.44e-05  5.32e-05  1.61e-03  3.20e-04     4.7
    8    -814.0122833721686675    -5.17e-07  1.74e-05  6.34e-04  2.14e-04     3.2
    9    -814.0122895668710044    -6.19e-06  5.60e-06  3.21e-04  2.52e-05     2.7
   10    -814.0122895857909953    -1.89e-08  2.74e-06  1.74e-04  3.29e-05     2.5
   11    -814.0122896291923098    -4.34e-08  4.17e-07  1.09e-05  2.21e-06     2.3
                  *** Gradient check signals convergence ***

               *****************************************************
               *                     SUCCESS                       *
               *           SCF CONVERGED AFTER  11 CYCLES          *
               *****************************************************

             **** ENERGY FILE WAS UPDATED (data/geom_opt/83681/83681.en.tmp) ****

----------------
TOTAL SCF ENERGY
----------------

Total Energy       :       -814.01228962919231 Eh          -22150.40051 eV

Components:
Nuclear Repulsion  :       1079.10414295126066 Eh           29363.91656 eV
Electronic Energy  :      -1893.11643258045297 Eh          -51514.31707 eV
One Electron Energy:      -3252.82195261785910 Eh          -88513.78528 eV
Two Electron Energy:       1359.70552003740613 Eh           36999.46822 eV

Virial components:
Potential Energy   :      -1621.41698065713399 Eh          -44120.99911 eV
Kinetic Energy     :        807.40469102794168 Eh           21970.59861 eV
Virial Ratio       :          2.00818375057103

DFT components:
N(Alpha)           :       56.999771504763 electrons
N(Beta)            :       56.999771504763 electrons
N(Total)           :      113.999543009526 electrons
E(X)               :      -74.749486141981 Eh       
E(C)               :       -4.459210889792 Eh       
E(XC)              :      -79.208697031773 Eh       

---------------
SCF CONVERGENCE
---------------

  Last Energy change         ...    4.3401e-08  Tolerance :   1.0000e-08
  Last MAX-Density change    ...    1.0923e-05  Tolerance :   1.0000e-07
  Last RMS-Density change    ...    4.1724e-07  Tolerance :   5.0000e-09
  Last DIIS Error            ...    1.6250e-03  Tolerance :   5.0000e-07
  Last Orbital Gradient      ...    2.2086e-06  Tolerance :   1.0000e-05
  Last Orbital Rotation      ...    4.6066e-06  Tolerance :   1.0000e-05


----------------
ORBITAL ENERGIES
----------------

  NO   OCC          E(Eh)            E(eV) 
   0   2.0000     -77.020570     -2095.8363 
   1   2.0000     -10.197591      -277.4905 
   2   2.0000     -10.197581      -277.4903 
   3   2.0000     -10.197518      -277.4886 
   4   2.0000     -10.174589      -276.8646 
   5   2.0000     -10.174581      -276.8644 
   6   2.0000     -10.174568      -276.8641 
   7   2.0000     -10.171272      -276.7744 
   8   2.0000     -10.171268      -276.7743 
   9   2.0000     -10.171245      -276.7736 
  10   2.0000     -10.168911      -276.7101 
  11   2.0000     -10.168908      -276.7101 
  12   2.0000     -10.168900      -276.7098 
  13   2.0000      -6.518272      -177.3712 
  14   2.0000      -4.683671      -127.4492 
  15   2.0000      -4.683669      -127.4491 
  16   2.0000      -4.680374      -127.3594 
  17   2.0000      -0.816406       -22.2155 
  18   2.0000      -0.792007       -21.5516 
  19   2.0000      -0.792002       -21.5515 
  20   2.0000      -0.682607       -18.5747 
  21   2.0000      -0.676687       -18.4136 
  22   2.0000      -0.676683       -18.4135 
  23   2.0000      -0.670468       -18.2444 
  24   2.0000      -0.670466       -18.2443 
  25   2.0000      -0.661463       -17.9993 
  26   2.0000      -0.629257       -17.1229 
  27   2.0000      -0.544063       -14.8047 
  28   2.0000      -0.544061       -14.8047 
  29   2.0000      -0.503352       -13.6969 
  30   2.0000      -0.457334       -12.4447 
  31   2.0000      -0.457332       -12.4446 
  32   2.0000      -0.443503       -12.0683 
  33   2.0000      -0.438500       -11.9322 
  34   2.0000      -0.438496       -11.9321 
  35   2.0000      -0.423049       -11.5118 
  36   2.0000      -0.420483       -11.4419 
  37   2.0000      -0.420479       -11.4418 
  38   2.0000      -0.397786       -10.8243 
  39   2.0000      -0.393177       -10.6989 
  40   2.0000      -0.383515       -10.4360 
  41   2.0000      -0.383509       -10.4358 
  42   2.0000      -0.375128       -10.2078 
  43   2.0000      -0.375125       -10.2077 
  44   2.0000      -0.369441       -10.0530 
  45   2.0000      -0.359634        -9.7861 
  46   2.0000      -0.357432        -9.7262 
  47   2.0000      -0.357430        -9.7262 
  48   2.0000      -0.338414        -9.2087 
  49   2.0000      -0.336704        -9.1622 
  50   2.0000      -0.336701        -9.1621 
  51   2.0000      -0.325121        -8.8470 
  52   2.0000      -0.325120        -8.8470 
  53   2.0000      -0.305819        -8.3217 
  54   2.0000      -0.289331        -7.8731 
  55   2.0000      -0.289327        -7.8730 
  56   2.0000      -0.180944        -4.9237 
  57   0.0000       0.049886         1.3575 
  58   0.0000       0.068807         1.8723 
  59   0.0000       0.070058         1.9064 
  60   0.0000       0.070076         1.9069 
  61   0.0000       0.083674         2.2769 
  62   0.0000       0.083683         2.2771 
  63   0.0000       0.097805         2.6614 
  64   0.0000       0.104716         2.8495 
  65   0.0000       0.104723         2.8497 
  66   0.0000       0.109709         2.9853 
  67   0.0000       0.121344         3.3019 
*Only the first 10 virtual orbitals were printed.

                    ********************************
                    * MULLIKEN POPULATION ANALYSIS *
                    ********************************

-----------------------
MULLIKEN ATOMIC CHARGES
-----------------------
   0 C :    0.111110
   1 C :   -0.389064
   2 C :    0.083387
   3 C :    0.102452
   4 P :    0.249365
   5 C :   -0.389455
   6 C :    0.102551
   7 C :    0.111128
   8 C :    0.083681
   9 C :   -0.389635
  10 C :    0.111339
  11 C :    0.102602
  12 C :    0.083378
  13 H :    0.003777
  14 H :   -0.012718
  15 H :   -0.001411
  16 H :    0.007958
  17 H :    0.019242
  18 H :   -0.002175
  19 H :   -0.008643
  20 H :    0.009661
  21 H :   -0.006625
  22 H :   -0.008666
  23 H :    0.009635
  24 H :   -0.006582
  25 H :   -0.001359
  26 H :    0.003833
  27 H :   -0.012754
  28 H :    0.019152
  29 H :    0.007899
  30 H :   -0.002218
  31 H :   -0.012772
  32 H :   -0.001434
  33 H :    0.003861
  34 H :   -0.008630
  35 H :    0.009681
  36 H :   -0.006613
  37 H :    0.007961
  38 H :   -0.002178
  39 H :    0.019281
Sum of atomic charges:   -0.0000000

--------------------------------
MULLIKEN REDUCED ORBITAL CHARGES
--------------------------------
  0 C s       :     2.947898  s :     2.947898
      pz      :     0.943961  p :     2.911421
      px      :     0.990753
      py      :     0.976708
      dz2     :     0.005734  d :     0.029571
      dxz     :     0.004535
      dyz     :     0.008873
      dx2y2   :     0.003126
      dxy     :     0.007304

  1 C s       :     3.270580  s :     3.270580
      pz      :     1.014604  p :     3.071984
      px      :     1.024681
      py      :     1.032699
      dz2     :     0.010092  d :     0.046500
      dxz     :     0.008201
      dyz     :     0.011297
      dx2y2   :     0.007571
      dxy     :     0.009338

  2 C s       :     2.975049  s :     2.975049
      pz      :     0.984573  p :     2.912203
      px      :     0.933079
      py      :     0.994550
      dz2     :     0.004380  d :     0.029361
      dxz     :     0.005305
      dyz     :     0.007779
      dx2y2   :     0.004967
      dxy     :     0.006929

  3 C s       :     2.963776  s :     2.963776
      pz      :     0.978257  p :     2.904972
      px      :     0.997058
      py      :     0.929657
      dz2     :     0.007218  d :     0.028799
      dxz     :     0.003514
      dyz     :     0.005734
      dx2y2   :     0.002942
      dxy     :     0.009391

  4 P s       :     5.653671  s :     5.653671
      pz      :     3.394789  p :     8.945860
      px      :     2.802382
      py      :     2.748689
      dz2     :     0.014173  d :     0.151105
      dxz     :     0.018050
      dyz     :     0.034597
      dx2y2   :     0.047975
      dxy     :     0.036310

  5 C s       :     3.270680  s :     3.270680
      pz      :     1.016158  p :     3.072276
      px      :     1.023413
      py      :     1.032705
      dz2     :     0.012146  d :     0.046500
      dxz     :     0.008626
      dyz     :     0.008508
      dx2y2   :     0.008934
      dxy     :     0.008286

  6 C s       :     2.963668  s :     2.963668
      pz      :     0.993055  p :     2.904982
      px      :     0.941876
      py      :     0.970051
      dz2     :     0.008742  d :     0.028800
      dxz     :     0.004410
      dyz     :     0.002262
      dx2y2   :     0.007636
      dxy     :     0.005750

  7 C s       :     2.947853  s :     2.947853
      pz      :     0.936564  p :     2.911447
      px      :     0.990689
      py      :     0.984193
      dz2     :     0.006803  d :     0.029572
      dxz     :     0.006762
      dyz     :     0.005874
      dx2y2   :     0.005689
      dxy     :     0.004444

  8 C s       :     2.974903  s :     2.974903
      pz      :     0.987422  p :     2.912056
      px      :     0.971806
      py      :     0.952828
      dz2     :     0.009080  d :     0.029360
      dxz     :     0.004032
      dyz     :     0.002696
      dx2y2   :     0.008955
      dxy     :     0.004597

  9 C s       :     3.270693  s :     3.270693
      pz      :     1.018813  p :     3.072442
      px      :     1.033833
      py      :     1.019796
      dz2     :     0.010428  d :     0.046500
      dxz     :     0.010249
      dyz     :     0.009256
      dx2y2   :     0.010231
      dxy     :     0.006336

 10 C s       :     2.947738  s :     2.947738
      pz      :     0.955924  p :     2.911351
      px      :     0.962599
      py      :     0.992828
      dz2     :     0.007437  d :     0.029571
      dxz     :     0.005677
      dyz     :     0.005318
      dx2y2   :     0.008055
      dxy     :     0.003085

 11 C s       :     2.963656  s :     2.963656
      pz      :     0.966017  p :     2.904942
      px      :     0.952030
      py      :     0.986895
      dz2     :     0.008087  d :     0.028800
      dxz     :     0.005398
      dyz     :     0.003125
      dx2y2   :     0.008849
      dxy     :     0.003340

 12 C s       :     2.975033  s :     2.975033
      pz      :     0.989008  p :     2.912227
      px      :     0.986024
      py      :     0.937194
      dz2     :     0.005416  d :     0.029362
      dxz     :     0.003974
      dyz     :     0.007735
      dx2y2   :     0.007864
      dxy     :     0.004372

 13 H s       :     0.972318  s :     0.972318
      pz      :     0.004357  p :     0.023905
      px      :     0.012065
      py      :     0.007483

 14 H s       :     0.989274  s :     0.989274
      pz      :     0.006127  p :     0.023444
      px      :     0.008678
      py      :     0.008639

 15 H s       :     0.977718  s :     0.977718
      pz      :     0.007842  p :     0.023693
      px      :     0.005454
      py      :     0.010397

 16 H s       :     0.968117  s :     0.968117
      pz      :     0.009402  p :     0.023925
      px      :     0.004251
      py      :     0.010272

 17 H s       :     0.957461  s :     0.957461
      pz      :     0.011682  p :     0.023297
      px      :     0.005376
      py      :     0.006239

 18 H s       :     0.978664  s :     0.978664
      pz      :     0.006254  p :     0.023510
      px      :     0.007350
      py      :     0.009905

 19 H s       :     0.984246  s :     0.984246
      pz      :     0.005121  p :     0.024397
      px      :     0.012173
      py      :     0.007103

 20 H s       :     0.966987  s :     0.966987
      pz      :     0.012679  p :     0.023353
      px      :     0.005936
      py      :     0.004738

 21 H s       :     0.983092  s :     0.983092
      pz      :     0.005823  p :     0.023533
      px      :     0.009542
      py      :     0.008168

 22 H s       :     0.984272  s :     0.984272
      pz      :     0.006544  p :     0.024394
      px      :     0.010199
      py      :     0.007652

 23 H s       :     0.967012  s :     0.967012
      pz      :     0.014130  p :     0.023353
      px      :     0.004106
      py      :     0.005117

 24 H s       :     0.983049  s :     0.983049
      pz      :     0.005692  p :     0.023533
      px      :     0.004391
      py      :     0.013450

 25 H s       :     0.977662  s :     0.977662
      pz      :     0.005451  p :     0.023697
      px      :     0.011603
      py      :     0.006643

 26 H s       :     0.972266  s :     0.972266
      pz      :     0.005631  p :     0.023901
      px      :     0.010441
      py      :     0.007829

 27 H s       :     0.989313  s :     0.989313
      pz      :     0.004982  p :     0.023441
      px      :     0.005370
      py      :     0.013089

 28 H s       :     0.957551  s :     0.957551
      pz      :     0.014083  p :     0.023298
      px      :     0.004598
      py      :     0.004617

 29 H s       :     0.968172  s :     0.968172
      pz      :     0.006393  p :     0.023928
      px      :     0.012347
      py      :     0.005189

 30 H s       :     0.978709  s :     0.978709
      pz      :     0.005710  p :     0.023509
      px      :     0.005155
      py      :     0.012644

 31 H s       :     0.989331  s :     0.989331
      pz      :     0.004267  p :     0.023441
      px      :     0.012901
      py      :     0.006274

 32 H s       :     0.977738  s :     0.977738
      pz      :     0.009701  p :     0.023696
      px      :     0.006942
      py      :     0.007052

 33 H s       :     0.972238  s :     0.972238
      pz      :     0.004830  p :     0.023901
      px      :     0.005348
      py      :     0.013723

 34 H s       :     0.984236  s :     0.984236
      pz      :     0.004863  p :     0.024394
      px      :     0.005443
      py      :     0.014089

 35 H s       :     0.966968  s :     0.966968
      pz      :     0.011635  p :     0.023351
      px      :     0.006749
      py      :     0.004967

 36 H s       :     0.983080  s :     0.983080
      pz      :     0.004691  p :     0.023533
      px      :     0.012786
      py      :     0.006056

 37 H s       :     0.968113  s :     0.968113
      pz      :     0.009737  p :     0.023926
      px      :     0.006629
      py      :     0.007560

 38 H s       :     0.978669  s :     0.978669
      pz      :     0.005527  p :     0.023509
      px      :     0.013620
      py      :     0.004361

 39 H s       :     0.957422  s :     0.957422
      pz      :     0.011560  p :     0.023297
      px      :     0.007224
      py      :     0.004512



                     *******************************
                     * LOEWDIN POPULATION ANALYSIS *
                     *******************************

----------------------
LOEWDIN ATOMIC CHARGES
----------------------
   0 C :   -0.053235
   1 C :   -0.173977
   2 C :   -0.044278
   3 C :   -0.048676
   4 P :    0.480025
   5 C :   -0.173992
   6 C :   -0.048684
   7 C :   -0.053244
   8 C :   -0.044242
   9 C :   -0.174029
  10 C :   -0.053228
  11 C :   -0.048677
  12 C :   -0.044280
  13 H :    0.014646
  14 H :    0.016936
  15 H :    0.017643
  16 H :    0.013564
  17 H :    0.022116
  18 H :    0.021407
  19 H :    0.015624
  20 H :    0.020058
  21 H :    0.018163
  22 H :    0.015627
  23 H :    0.020057
  24 H :    0.018175
  25 H :    0.017649
  26 H :    0.014671
  27 H :    0.016927
  28 H :    0.022104
  29 H :    0.013552
  30 H :    0.021400
  31 H :    0.016924
  32 H :    0.017637
  33 H :    0.014675
  34 H :    0.015627
  35 H :    0.020064
  36 H :    0.018175
  37 H :    0.013557
  38 H :    0.021413
  39 H :    0.022127

-------------------------------
LOEWDIN REDUCED ORBITAL CHARGES
-------------------------------
  0 C s       :     2.838485  s :     2.838485
      pz      :     1.024685  p :     3.138624
      px      :     1.055538
      py      :     1.058402
      dz2     :     0.015398  d :     0.076126
      dxz     :     0.011686
      dyz     :     0.022723
      dx2y2   :     0.007761
      dxy     :     0.018557

  1 C s       :     2.901041  s :     2.901041
      pz      :     1.056376  p :     3.169916
      px      :     1.052469
      py      :     1.061072
      dz2     :     0.022043  d :     0.103020
      dxz     :     0.017117
      dyz     :     0.026897
      dx2y2   :     0.017401
      dxy     :     0.019561

  2 C s       :     2.841812  s :     2.841812
      pz      :     1.058889  p :     3.127970
      px      :     1.009059
      py      :     1.060022
      dz2     :     0.011766  d :     0.074497
      dxz     :     0.012474
      dyz     :     0.019613
      dx2y2   :     0.013173
      dxy     :     0.017471

  3 C s       :     2.844918  s :     2.844918
      pz      :     1.044645  p :     3.130524
      px      :     1.064921
      py      :     1.020958
      dz2     :     0.017810  d :     0.073234
      dxz     :     0.008367
      dyz     :     0.015966
      dx2y2   :     0.008082
      dxy     :     0.023008

  4 P s       :     5.243977  s :     5.243977
      pz      :     3.436111  p :     9.064028
      px      :     2.840984
      py      :     2.786933
      dz2     :     0.022777  d :     0.211970
      dxz     :     0.024235
      dyz     :     0.046028
      dx2y2   :     0.067751
      dxy     :     0.051179

  5 C s       :     2.901039  s :     2.901039
      pz      :     1.053809  p :     3.169932
      px      :     1.044302
      py      :     1.071822
      dz2     :     0.029055  d :     0.103021
      dxz     :     0.017276
      dyz     :     0.018169
      dx2y2   :     0.019145
      dxy     :     0.019377

  6 C s       :     2.844909  s :     2.844909
      pz      :     1.060451  p :     3.130543
      px      :     1.014815
      py      :     1.055277
      dz2     :     0.022168  d :     0.073232
      dxz     :     0.011206
      dyz     :     0.005619
      dx2y2   :     0.019482
      dxy     :     0.014757

  7 C s       :     2.838479  s :     2.838479
      pz      :     1.015374  p :     3.138640
      px      :     1.059851
      py      :     1.063415
      dz2     :     0.019954  d :     0.076125
      dxz     :     0.016064
      dyz     :     0.014103
      dx2y2   :     0.014616
      dxy     :     0.011389

  8 C s       :     2.841811  s :     2.841811
      pz      :     1.056911  p :     3.127934
      px      :     1.034961
      py      :     1.036062
      dz2     :     0.023073  d :     0.074497
      dxz     :     0.010327
      dyz     :     0.006672
      dx2y2   :     0.021442
      dxy     :     0.012983

  9 C s       :     2.901034  s :     2.901034
      pz      :     1.046127  p :     3.169975
      px      :     1.079082
      py      :     1.044766
      dz2     :     0.023027  d :     0.103021
      dxz     :     0.023552
      dyz     :     0.019362
      dx2y2   :     0.024058
      dxy     :     0.013023

 10 C s       :     2.838478  s :     2.838478
      pz      :     1.026009  p :     3.138623
      px      :     1.054796
      py      :     1.057818
      dz2     :     0.019337  d :     0.076127
      dxz     :     0.015696
      dyz     :     0.012799
      dx2y2   :     0.020410
      dxy     :     0.007884

 11 C s       :     2.844910  s :     2.844910
      pz      :     1.031356  p :     3.130534
      px      :     1.048237
      py      :     1.050941
      dz2     :     0.019648  d :     0.073233
      dxz     :     0.014690
      dyz     :     0.008517
      dx2y2   :     0.021547
      dxy     :     0.008831

 12 C s       :     2.841811  s :     2.841811
      pz      :     1.056848  p :     3.127973
      px      :     1.064508
      py      :     1.006617
      dz2     :     0.013999  d :     0.074495
      dxz     :     0.010270
      dyz     :     0.018911
      dx2y2   :     0.021134
      dxy     :     0.010181

 13 H s       :     0.918231  s :     0.918231
      pz      :     0.013132  p :     0.067123
      px      :     0.033883
      py      :     0.020109

 14 H s       :     0.917139  s :     0.917139
      pz      :     0.018793  p :     0.065925
      px      :     0.023466
      py      :     0.023666

 15 H s       :     0.915367  s :     0.915367
      pz      :     0.024293  p :     0.066990
      px      :     0.013565
      py      :     0.029132

 16 H s       :     0.918792  s :     0.918792
      pz      :     0.026587  p :     0.067644
      px      :     0.013195
      py      :     0.027862

 17 H s       :     0.911568  s :     0.911568
      pz      :     0.033427  p :     0.066316
      px      :     0.016951
      py      :     0.015937

 18 H s       :     0.913449  s :     0.913449
      pz      :     0.015417  p :     0.065144
      px      :     0.022277
      py      :     0.027450

 19 H s       :     0.915889  s :     0.915889
      pz      :     0.013444  p :     0.068487
      px      :     0.033882
      py      :     0.021161

 20 H s       :     0.913733  s :     0.913733
      pz      :     0.037466  p :     0.066209
      px      :     0.015130
      py      :     0.013613

 21 H s       :     0.916536  s :     0.916536
      pz      :     0.015855  p :     0.065302
      px      :     0.025480
      py      :     0.023967

 22 H s       :     0.915887  s :     0.915887
      pz      :     0.017458  p :     0.068486
      px      :     0.031346
      py      :     0.019682

 23 H s       :     0.913735  s :     0.913735
      pz      :     0.041158  p :     0.066209
      px      :     0.012387
      py      :     0.012664

 24 H s       :     0.916522  s :     0.916522
      pz      :     0.014404  p :     0.065303
      px      :     0.012651
      py      :     0.038248

 25 H s       :     0.915359  s :     0.915359
      pz      :     0.017442  p :     0.066991
      px      :     0.032941
      py      :     0.016609

 26 H s       :     0.918205  s :     0.918205
      pz      :     0.017786  p :     0.067124
      px      :     0.029381
      py      :     0.019957

 27 H s       :     0.917149  s :     0.917149
      pz      :     0.016185  p :     0.065924
      px      :     0.012915
      py      :     0.036824

 28 H s       :     0.911582  s :     0.911582
      pz      :     0.041268  p :     0.066314
      px      :     0.012568
      py      :     0.012479

[...]
      px      :     1.061085
      py      :     1.012647
      dz2     :     0.014562  d :     0.074167
      dxz     :     0.010024
      dyz     :     0.017588
      dx2y2   :     0.021364
      dxy     :     0.010629

 13 H s       :     0.917331  s :     0.917331
      pz      :     0.013085  p :     0.066646
      px      :     0.034514
      py      :     0.019046

 14 H s       :     0.915936  s :     0.915936
      pz      :     0.018107  p :     0.064589
      px      :     0.022831
      py      :     0.023651

 15 H s       :     0.914195  s :     0.914195
      pz      :     0.023738  p :     0.066246
      px      :     0.012985
      py      :     0.029523

 16 H s       :     0.917871  s :     0.917871
      pz      :     0.025579  p :     0.067298
      px      :     0.012974
      py      :     0.028746

 17 H s       :     0.912915  s :     0.912915
      pz      :     0.033242  p :     0.065531
      px      :     0.017192
      py      :     0.015098

 18 H s       :     0.915242  s :     0.915242
      pz      :     0.015435  p :     0.064474
      px      :     0.021902
      py      :     0.027137

 19 H s       :     0.914661  s :     0.914661
      pz      :     0.013594  p :     0.067937
      px      :     0.034722
      py      :     0.019621

 20 H s       :     0.914456  s :     0.914456
      pz      :     0.035348  p :     0.065332
      px      :     0.016222
      py      :     0.013762

 21 H s       :     0.918123  s :     0.918123
      pz      :     0.016669  p :     0.064329
      px      :     0.023464
      py      :     0.024195

 22 H s       :     0.914610  s :     0.914610
      pz      :     0.015945  p :     0.067933
      px      :     0.031197
      py      :     0.020790

 23 H s       :     0.914493  s :     0.914493
      pz      :     0.041023  p :     0.065362
      px      :     0.012121
      py      :     0.012218

 24 H s       :     0.918134  s :     0.918134
      pz      :     0.014733  p :     0.064333
      px      :     0.012481
      py      :     0.037119

 25 H s       :     0.914299  s :     0.914299
      pz      :     0.016837  p :     0.066178
      px      :     0.033554
      py      :     0.015787

 26 H s       :     0.917274  s :     0.917274
      pz      :     0.016962  p :     0.066706
      px      :     0.028863
      py      :     0.020881

 27 H s       :     0.915921  s :     0.915921
      pz      :     0.015684  p :     0.064587
      px      :     0.012590
      py      :     0.036313

 28 H s       :     0.912884  s :     0.912884
      pz      :     0.040938  p :     0.065529
      px      :     0.012210
      py      :     0.012381

 29 H s       :     0.917884  s :     0.917884
      pz      :     0.016591  p :     0.067280
      px      :     0.036542
      py      :     0.014148

 30 H s       :     0.915236  s :     0.915236
      pz      :     0.014387  p :     0.064479
      px      :     0.013536
      py      :     0.036556

 31 H s       :     0.915963  s :     0.915963
      pz      :     0.012352  p :     0.064590
      px      :     0.037414
      py      :     0.014824

 32 H s       :     0.914229  s :     0.914229
      pz      :     0.028966  p :     0.066219
      px      :     0.018364
      py      :     0.018890

 33 H s       :     0.917359  s :     0.917359
      pz      :     0.013961  p :     0.066649
      px      :     0.012791
      py      :     0.039896

 34 H s       :     0.914698  s :     0.914698
      pz      :     0.013350  p :     0.067899
      px      :     0.012913
      py      :     0.041635

 35 H s       :     0.914497  s :     0.914497
      pz      :     0.035214  p :     0.065345
      px      :     0.016958
      py      :     0.013174

 36 H s       :     0.918100  s :     0.918100
      pz      :     0.012194  p :     0.064330
      px      :     0.037258
      py      :     0.014879

 37 H s       :     0.917843  s :     0.917843
      pz      :     0.027801  p :     0.067337
      px      :     0.016716
      py      :     0.022821

 38 H s       :     0.915275  s :     0.915275
      pz      :     0.012372  p :     0.064464
      px      :     0.038690
      py      :     0.013402

 39 H s       :     0.912920  s :     0.912920
      pz      :     0.033905  p :     0.065526
      px      :     0.017584
      py      :     0.014037



                      *****************************
                      * MAYER POPULATION ANALYSIS *
                      *****************************

  NA   - Mulliken gross atomic population
  ZA   - Total nuclear charge
  QA   - Mulliken gross atomic charge
  VA   - Mayer's total valence
  BVA  - Mayer's bonded valence
  FA   - Mayer's free valence

  ATOM       NA         ZA         QA         VA         BVA        FA
  0 C      5.8958     6.0000     0.1042     3.8851     3.8851    -0.0000
  1 C      6.4054     6.0000    -0.4054     4.1263     4.1263    -0.0000
  2 C      5.9243     6.0000     0.0757     3.9137     3.9137    -0.0000
  3 C      5.9068     6.0000     0.0932     3.8862     3.8862    -0.0000
  4 P     14.7110    15.0000     0.2890     2.9212     2.9212    -0.0000
  5 C      6.4050     6.0000    -0.4050     4.1266     4.1266    -0.0000
  6 C      5.9073     6.0000     0.0927     3.8863     3.8863    -0.0000
  7 C      5.8963     6.0000     0.1037     3.8859     3.8859    -0.0000
  8 C      5.9237     6.0000     0.0763     3.9133     3.9133    -0.0000
  9 C      6.4055     6.0000    -0.4055     4.1265     4.1265    -0.0000
 10 C      5.8959     6.0000     0.1041     3.8854     3.8854    -0.0000
 11 C      5.9069     6.0000     0.0931     3.8865     3.8865    -0.0000
 12 C      5.9239     6.0000     0.0761     3.9134     3.9134    -0.0000
 13 H      0.9919     1.0000     0.0081     1.0032     1.0032    -0.0000
 14 H      1.0075     1.0000    -0.0075     0.9930     0.9930    -0.0000
 15 H      0.9987     1.0000     0.0013     1.0138     1.0138     0.0000
 16 H      0.9864     1.0000     0.0136     0.9980     0.9980    -0.0000
 17 H      0.9793     1.0000     0.0207     0.9962     0.9962    -0.0000
 18 H      1.0028     1.0000    -0.0028     0.9954     0.9954     0.0000
 19 H      1.0044     1.0000    -0.0044     1.0162     1.0162    -0.0000
 20 H      0.9889     1.0000     0.0111     1.0021     1.0021    -0.0000
 21 H      1.0044     1.0000    -0.0044     0.9939     0.9939    -0.0000
 22 H      1.0042     1.0000    -0.0042     1.0160     1.0160     0.0000
 23 H      0.9887     1.0000     0.0113     1.0021     1.0021     0.0000
 24 H      1.0043     1.0000    -0.0043     0.9939     0.9939    -0.0000
 25 H      0.9989     1.0000     0.0011     1.0133     1.0133    -0.0000
 26 H      0.9917     1.0000     0.0083     1.0034     1.0034    -0.0000
 27 H      1.0074     1.0000    -0.0074     0.9930     0.9930     0.0000
 28 H      0.9795     1.0000     0.0205     0.9962     0.9962    -0.0000
 29 H      0.9863     1.0000     0.0137     0.9980     0.9980    -0.0000
 30 H      1.0029     1.0000    -0.0029     0.9954     0.9954     0.0000
 31 H      1.0074     1.0000    -0.0074     0.9931     0.9931    -0.0000
 32 H      0.9991     1.0000     0.0009     1.0138     1.0138    -0.0000
 33 H      0.9918     1.0000     0.0082     1.0032     1.0032    -0.0000
 34 H      1.0042     1.0000    -0.0042     1.0158     1.0158     0.0000
 35 H      0.9887     1.0000     0.0113     1.0021     1.0021    -0.0000
 36 H      1.0044     1.0000    -0.0044     0.9940     0.9940    -0.0000
 37 H      0.9864     1.0000     0.0136     0.9981     0.9981    -0.0000
 38 H      1.0029     1.0000    -0.0029     0.9954     0.9954    -0.0000
 39 H      0.9794     1.0000     0.0206     0.9961     0.9961    -0.0000

  Mayer bond orders larger than 0.100000
B(  0-C ,  1-C ) :   1.0153 B(  0-C , 13-H ) :   0.9559 B(  0-C , 14-H ) :   0.9442 
B(  0-C , 15-H ) :   0.9591 B(  1-C ,  2-C ) :   1.0332 B(  1-C ,  3-C ) :   1.0182 
B(  1-C ,  4-P ) :   0.9319 B(  2-C , 16-H ) :   0.9569 B(  2-C , 17-H ) :   0.9567 
B(  2-C , 18-H ) :   0.9462 B(  3-C , 19-H ) :   0.9604 B(  3-C , 20-H ) :   0.9607 
B(  3-C , 21-H ) :   0.9544 B(  4-P ,  5-C ) :   0.9320 B(  4-P ,  9-C ) :   0.9321 
B(  5-C ,  6-C ) :   1.0182 B(  5-C ,  7-C ) :   1.0155 B(  5-C ,  8-C ) :   1.0333 
B(  6-C , 22-H ) :   0.9604 B(  6-C , 23-H ) :   0.9606 B(  6-C , 24-H ) :   0.9543 
B(  7-C , 25-H ) :   0.9593 B(  7-C , 26-H ) :   0.9557 B(  7-C , 27-H ) :   0.9443 
B(  8-C , 28-H ) :   0.9567 B(  8-C , 29-H ) :   0.9570 B(  8-C , 30-H ) :   0.9463 
B(  9-C , 10-C ) :   1.0153 B(  9-C , 11-C ) :   1.0183 B(  9-C , 12-C ) :   1.0333 
B( 10-C , 31-H ) :   0.9444 B( 10-C , 32-H ) :   0.9593 B( 10-C , 33-H ) :   0.9559 
B( 11-C , 34-H ) :   0.9604 B( 11-C , 35-H ) :   0.9607 B( 11-C , 36-H ) :   0.9544 
B( 12-C , 37-H ) :   0.9569 B( 12-C , 38-H ) :   0.9462 B( 12-C , 39-H ) :   0.9567 


-------
TIMINGS
-------

Total SCF time: 0 days 0 hours 0 min 14 sec 

Total time                  ....      14.034 sec
Sum of individual times     ....      13.960 sec  ( 99.5%)

SCF preparation             ....       0.120 sec  (  0.9%)
Fock matrix formation       ....      13.549 sec  ( 96.5%)
  Startup                   ....       0.015 sec  (  0.1% of F)
  Exchange formation        ....      10.752 sec  ( 79.4% of F)
  Split-RI-J                ....       0.908 sec  (  6.7% of F)
  XC integration            ....       1.827 sec  ( 13.5% of F)
    Basis function eval.    ....       0.519 sec  ( 28.4% of XC)
    Density eval.           ....       0.562 sec  ( 30.8% of XC)
    XC-Functional eval.     ....       0.045 sec  (  2.5% of XC)
    XC-Potential eval.      ....       0.481 sec  ( 26.3% of XC)
Diagonalization             ....       0.000 sec  (  0.0%)
Density matrix formation    ....       0.027 sec  (  0.2%)
Total Energy calculation    ....       0.011 sec  (  0.1%)
Population analysis         ....       0.093 sec  (  0.7%)
Orbital Transformation      ....       0.027 sec  (  0.2%)
Orbital Orthonormalization  ....       0.000 sec  (  0.0%)
DIIS solution               ....       0.036 sec  (  0.3%)
SOSCF solution              ....       0.097 sec  (  0.7%)
Finished LeanSCF after  14.1 sec

Maximum memory used throughout the entire LEANSCF-calculation: 39.1 MB


-------------------------------------------------------------------------------
                          DFT DISPERSION CORRECTION                            
                                                                               
                              DFTD3 V3.1  Rev 1                                
                          USING Becke-Johnson damping                          
-------------------------------------------------------------------------------
The B3LYP functional is recognized
Active option DFTDOPT                   ...         4   

molecular C6(AA) [au] = 12250.948809 


            DFT-D V3
 parameters
 s6 scaling factor         :     1.0000 
 a1 scaling factor         :     0.3981 
 s8 scaling factor         :     1.9889 
 a2 scaling factor         :     4.4211 
 ad hoc parameters k1-k3   :    16.0000     1.3333    -4.0000 

 Edisp/kcal,au: -53.867541798415  -0.085843382895 
 E6   /kcal   : -25.741806246 
 E8   /kcal   : -28.125735553 
 % E8         :  52.212769719 

-------------------------   ----------------
Dispersion correction           -0.085843383
-------------------------   ----------------


-------------------------   --------------------
FINAL SINGLE POINT ENERGY      -814.109163299790
-------------------------   --------------------

                                *** OPTIMIZATION RUN DONE ***



           ************************************************************
           *        Program running with 6 parallel MPI-processes     *
           *              working on a common directory               *
           ************************************************************

------------------------------------------------------------------------------
                              ORCA PROPERTY CALCULATIONS
------------------------------------------------------------------------------

GBWName                                 ... data/geom_opt/83681/83681.gbw
Number of atoms                         ...     40
Number of basis functions               ...    321
Max core memory                         ...   1024 MB

Electric properties:
Dipole moment                           ... YES
Quadrupole moment                       ...  NO
Static polarizability (Dipole/Dipole)   ...  NO
Static polarizability (Dipole/Quad.)    ...  NO
Static polarizability (Quad./Quad.)     ...  NO
Static polarizability (Velocity)        ...  NO

Atomic electric properties:
Dipole moment                           ...  NO
Quadrupole moment                       ...  NO
Static polarizability                   ...  NO

Choice of electric origin               ... Center of mass
Position of electric origin             ...    -0.073231     0.006802    -0.254732

General magnetic properties:
Magnetizability                         ...  NO

EPR properties:
g-Tensor (aka g-matrix)                 ...  NO
Zero-Field splitting spin-orbit         ...  NO
Zero-field splitting spin-spin          ...  NO
Hyperfine couplings                     ...  NO (   0 nuclei)
Quadrupole couplings                    ...  NO (   0 nuclei)
Contact density                         ...  NO (   0 nuclei)

NMR properties:
Chemical shifts                         ...  NO (   0 nuclei)
Spin-rotation constants                 ...  NO (   0 nuclei)
Spin-spin couplings                     ...  NO (   0 nuclei,    0 pairs)

Choice of magnetic origin               ... GIAO
Position of magnetic origin             ...     0.000000     0.000000     0.000000

Properties with geometric perturbations:
SCF Hessian                             ...  NO
IR spectrum                             ...  NO
VCD spectrum                            ...  NO
X-ray spectroscopy properties:
SCF XES/XAS/RIXS spectra                ...  NO


-------------
DIPOLE MOMENT
-------------

Method             : SCF
Type of density    : Electron Density
Multiplicity       :   1
Irrep              :   0
Energy             :  -814.0233199168944793 Eh
Relativity type    : 
Basis              : AO
                                X                 Y                 Z
Electronic contribution:     -1.333755471       0.124503338      -4.638896038
Nuclear contribution   :      1.447277893      -0.134464873       5.036527716
                        -----------------------------------------
Total Dipole Moment    :      0.113522422      -0.009961535       0.397631678
                        -----------------------------------------
Magnitude (a.u.)       :      0.413639365
Magnitude (Debye)      :      1.051387710



--------------------
Rotational spectrum 
--------------------
 
Rotational constants in cm-1:             0.023846             0.023843             0.015872 
Rotational constants in MHz :           714.873811           714.786333           475.821922 

Dipole components along the rotational axes: 
x,y,z [a.u.] :     0.001153    -0.000493     0.413637 
x,y,z [Debye]:     0.002931    -0.001252     1.051383 

 

Dipole moment calculation done in   0.0 sec 

Maximum memory used throughout the entire PROP-calculation: 19.1 MB

--------------------------------
SUGGESTED CITATIONS FOR THIS RUN
--------------------------------

Below you find a list of papers that are relevant to this ORCA run
We neither can nor want to force you to cite these papers, but we appreciate if you do
You receive ORCA, which is the product of decades of hard work by many enthusiastic individuals, for free
The only thing we kindly ask in return is that you cite our papers,
We deeply appreciate it, if you show your appreciation for ORCA by not just citing the generic ORCA reference.

Please note that relegating all ORCA citations to the supporting information does *not* help us.
SI sections are not indexed - citations you put there will not count into any citation statistics
But we need these citations in order to attract the funding resources that allow us to do what we are doing

Therefore, if you are a happy ORCA user, please consider citing a few of the papers listed below in the main body of your paper

In addition to the list printed below, the program has created the file data/geom_opt/83681/83681.bibtex that contains the list in bibtex format
You can import this file easily into all common literature databanks and citation aid programs


List of essential papers. We consider these as the minimum necessary citations

  1. Neese,F.
     Software update: the ORCA program system, version 5.0
     WIRES Comput. Molec. Sci., 2022 12(1)e1606
     doi.org/10.1002/wcms.1606

List of papers to cite with high priority. The work reported in these papers was absolutely
necessary for this run to complete.
Our perspective: the developers of density functionals and basis sets usually get cited in chemistry papers
Good! But without the algorithms to do something with them, the functionals or basis sets would not do anything.
Hence, in our opinion, the algorithm design and method developments papers are equally worthy of getting cited

  1. Neese,F.
     An improvement of the resolution of the identity approximation for the formation of the Coulomb matrix
     J. Comp. Chem., 2003 24(14)1740-1747
     doi.org/10.1002/jcc.10318
  2. Neese,F.
     The SHARK Integral Generation and Digestion System
     J. Comp. Chem., 2022  1-16
     doi.org/10.1002/jcc.26942
  3. Grimme,S.; Antony,J.; Ehrlich,S.; Krieg,H.
     A consistent and accurate ab initio parametrization of density functional dispersion correction (DFT-D) for the 94 elements H-Pu
     J. Chem. Phys., 2010 132 154104-XXXX
     doi.org/10.1063/1.3382344
  4. Grimme,S.; Ehrlich,S.; Goerigk,L.
     Effect of the damping function in dispersion corrected density functional theory
     J. Comput. Chem., 2011 32(7)1456-1465
     doi.org/10.1002/jcc.21759

List of suggested additional citations. These are papers that are important in the 'surrounding' of 
of this run, or papers that preceded the highly important papers. If you like your results we are grateful for a citation.

  1. Neese,F.
     The ORCA program system
     WIRES Comput. Molec. Sci., 2012 2(1)73-78
     doi.org/10.1002/wcms.81
  2. Neese,F.
     Software update: the ORCA program system, version 4.0
     WIRES Comput. Molec. Sci., 2018 8(1)1-6
     doi.org/10.1002/wcms.1327
  3. Neese,F.; Wennmohs,F.; Becker,U.; Riplinger,C.
     The ORCA quantum chemistry program package
     J. Chem. Phys., 2020 152 Art. No. L224108
     doi.org/10.1063/5.0004608

List of optional additional citations

  1. Neese,F.
     Approximate second-order SCF convergence for spin unrestricted wavefunctions
     Chem. Phys. Lett., 2000 325(1-3)93-98
     doi.org/10.1016/s0009-2614(00)00662-x

Timings for individual modules:

Sum of individual times          ...      724.353 sec (=  12.073 min)
Startup calculation              ...       19.149 sec (=   0.319 min)   2.6 %
SCF iterations                   ...      463.665 sec (=   7.728 min)  64.0 %
Property calculations            ...        0.176 sec (=   0.003 min)   0.0 %
SCF Gradient evaluation          ...      241.072 sec (=   4.018 min)  33.3 %
Geometry relaxation              ...        0.291 sec (=   0.005 min)   0.0 %
                             ****ORCA TERMINATED NORMALLY****
TOTAL RUN TIME: 0 days 0 hours 12 minutes 7 seconds 370 msec
