
                                 *****************
                                 * O   R   C   A *
                                 *****************

                                            #,                                       
                                            ###                                      
                                            ####                                     
                                            #####                                    
                                            ######                                   
                                           ########,                                 
                                     ,,################,,,,,                         
                               ,,#################################,,                 
                          ,,##########################################,,             
                       ,#########################################, ''#####,          
                    ,#############################################,,   '####,        
                  ,##################################################,,,,####,       
                ,###########''''           ''''###############################       
              ,#####''   ,,,,##########,,,,          '''####'''          '####       
            ,##' ,,,,###########################,,,                        '##       
           ' ,,###''''                  '''############,,,                           
         ,,##''                                '''############,,,,        ,,,,,,###''
      ,#''                                            '''#######################'''  
     '                                                          ''''####''''         
             ,#######,   #######,   ,#######,      ##                                
            ,#'     '#,  ##    ##  ,#'     '#,    #''#        ,####,   ,####,        
            ##       ##  ##   ,#'  ##            #'  '#       #'       #'  '#        
            ##       ##  #######   ##           ,######,      #####,   #    #        
            '#,     ,#'  ##    ##  '#,     ,#' ,#      #,     #,   #   #,  ,#        
             '#######'   ##     ##  '#######'  #'      '#     '####' # '####'        



                #########################################################
                #                        -***-                          #
                #          Department of theory and spectroscopy        #
                #                                                       #
                #                      Frank Neese                      #
                #                                                       #
                #     Directorship, Architecture, Infrastructure        #
                #                    SHARK, DRIVERS                     #
                #        Core code/Algorithms in most modules           #
                #                                                       #
                #        Max Planck Institute fuer Kohlenforschung      #
                #                Kaiser Wilhelm Platz 1                 #
                #                 D-45470 Muelheim/Ruhr                 #
                #                      Germany                          #
                #                                                       #
                #                  All rights reserved                  #
                #                        -***-                          #
                #########################################################


                         Program Version 6.0.0  -   RELEASE   -


 With contributions from (in alphabetic order):
   Daniel Aravena         : Magnetic Suceptibility
   Michael Atanasov       : Ab Initio Ligand Field Theory (pilot matlab implementation)
   Alexander A. Auer      : GIAO ZORA, VPT2 properties, NMR spectrum
   Ute Becker             : All parallelization in ORCA, NUMFREQ, NUMCALC
   Giovanni Bistoni       : ED, misc. LED, open-shell LED, HFLD
   Martin Brehm           : Molecular dynamics
   Dmytro Bykov           : pre 5.0 version of the SCF Hessian
   Marcos Casanova-Páez   : Triplet and SCS-CIS(D). UHF-(DLPNO)-IP/EA/STEOM-CCSD. UHF-CVS-IP/STEOM-CCSD
   Vijay G. Chilkuri      : MRCI spin determinant printing, contributions to CSF-ICE
   Pauline Colinet        : FMM embedding
   Dipayan Datta          : RHF DLPNO-CCSD density
   Achintya Kumar Dutta   : EOM-CC, STEOM-CC
   Nicolas Foglia         : Exact transition moments, OPA infrastructure, MCD improvements
   Dmitry Ganyushin       : Spin-Orbit,Spin-Spin,Magnetic field MRCI
   Miquel Garcia          : C-PCM and meta-GGA Hessian, CCSD/C-PCM, Gaussian charge scheme
   Tiago L. C. Gouveia    : GS-ROHF, GS-ROCIS
   Yang Guo               : DLPNO-NEVPT2, F12-NEVPT2, CIM, IAO-localization
   Andreas Hansen         : Spin unrestricted coupled pair/coupled cluster methods
   Ingolf Harden          : AUTO-CI MPn and infrastructure 
   Benjamin Helmich-Paris : MC-RPA, TRAH-(SCF,CASSCF), AVAS, COSX integrals, SCF dyn. polar.
   Lee Huntington         : MR-EOM, pCC
   Robert Izsak           : Overlap fitted RIJCOSX, COSX-SCS-MP3, EOM
   Riya Kayal             : Wick's Theorem for AUTO-CI, AUTO-CI UHF-CCSDT
   Emily Kempfer          : AUTO-CI, RHF CISDT and CCSDT
   Christian Kollmar      : KDIIS, OOCD, Brueckner-CCSD(T), CCSD density, CASPT2, CASPT2-K, improved NEVPT2
   Axel Koslowski         : Symmetry handling
   Simone Kossmann        : Meta GGA functionals, TD-DFT gradient, OOMP2, (MP2 Hessian; deprecated post 5.0)
   Lucas Lang             : DCDCAS
   Marvin Lechner         : AUTO-CI (C++ implementation), FIC-MRCC
   Spencer Leger          : CASSCF response
   Dagmar Lenk            : GEPOL surface, SMD, ORCA-2-JSON
   Dimitrios Liakos       : Extrapolation schemes; Compound Job, initial MDCI parallelization
   Dimitrios Manganas     : Further ROCIS development; embedding schemes. LFT, Crystal Embedding
   Dimitrios Pantazis     : SARC Basis sets
   Anastasios Papadopoulos: AUTO-CI, single reference methods and gradients
   Taras Petrenko         : pre 6.0 DFT Hessian and TD-DFT gradient, (ASA, deprecated), ECA, 1-Electron XAS/XES, NRVS
   Peter Pinski           : DLPNO-MP2, DLPNO-MP2 Gradient
   Christoph Reimann      : Effective Core Potentials
   Marius Retegan         : Local ZFS, SOC
   Christoph Riplinger    : Optimizer, TS searches, QM/MM, DLPNO-CCSD(T), (RO)-DLPNO pert. Triples
   Michael Roemelt        : Original ROCIS implementation
   Masaaki Saitow         : Open-shell DLPNO-CCSD energy and density
   Barbara Sandhoefer     : DKH picture change effects
   Kantharuban Sivalingam : CASSCF convergence/infrastructure, NEVPT2 and variants, FIC-MRCI
   Bernardo de Souza      : ESD, SOC TD-DFT
   Georgi Stoychev        : AutoAux, RI-MP2 NMR, DLPNO-MP2 response, X2C
   Van Anh Tran           : RI-MP2 g-tensors
   Willem Van den Heuvel  : Paramagnetic NMR
   Zikuan Wang            : NOTCH, Electric field optimization 
   Frank Wennmohs         : Technical directorship and infrastructure
   Hang Xu                : AUTO-CI-Response properties 


 We gratefully acknowledge several colleagues who have allowed us to
 interface, adapt or use parts of their codes:
   Stefan Grimme, W. Hujo, H. Kruse, P. Pracht,  : VdW corrections, initial TS optimization,
                  C. Bannwarth, S. Ehlert,         DFT functionals, gCP, sTDA/sTD-DF
                  L. Wittmann, M. Mueller
   Ed Valeev, F. Pavosevic, A. Kumar             : LibInt (2-el integral package), F12 methods
   Garnet Chan, S. Sharma, J. Yang, R. Olivares  : DMRG
   Ulf Ekstrom                                   : XCFun DFT Library
   Mihaly Kallay                                 : mrcc  (arbitrary order and MRCC methods)
   Frank Weinhold                                : gennbo (NPA and NBO analysis)
   Simon Mueller                                 : openCOSMO-RS
   Christopher J. Cramer and Donald G. Truhlar   : smd solvation model
   Lars Goerigk                                  : TD-DFT with DH, B97 family of functionals
   V. Asgeirsson, H. Jonsson                     : NEB implementation
   FAccTs GmbH                                   : IRC, NEB, NEB-TS, DLPNO-Multilevel, CI-OPT
                                                   MM, QMMM, 2- and 3-layer-ONIOM, Crystal-QMMM,
                                                   LR-CPCM, SF, NACMEs, symmetry and pop. for TD-DFT,
                                                   nearIR, NL-DFT gradient (VV10), updates on ESD,
                                                   ML-optimized integration grids, MBIS, APM,
                                                   GOAT, DOCKER, SOLVATOR, interface openCOSMO-RS
   S Lehtola, MJT Oliveira, MAL Marques          : LibXC Library
   Liviu Ungur et al                             : ANISO software


 Your calculation uses the libint2 library for the computation of 2-el integrals
 For citations please refer to: http://libint.valeyev.net

 Your ORCA version has been built with support for libXC version: 6.2.2
 For citations please refer to: https://libxc.gitlab.io

 This ORCA versions uses:
   CBLAS   interface :  Fast vector & matrix operations
   LAPACKE interface :  Fast linear algebra routines
   Shared memory     :  Shared parallel matrices


Your calculation utilizes the atom-pairwise dispersion correction
with the zero-damping scheme (D30)


XCFun DFT library Copyright 2009-2010 Ulf Ekstrom and contributors.
See http://admol.org/xcfun for more information.
This is free software; see the source code for copying conditions.
There is ABSOLUTELY NO WARRANTY; not even for MERCHANTABILITY or FITNESS FOR A PARTICULAR PURPOSE.
For details see the documentation.
Scientific users of this library should cite U. Ekstrom, L. Visscher, R. Bast, A. J. Thorvaldsen and K. Ruud;
J.Chem.Theor.Comp. 2010, DOI: 10.1021/ct100117s
XCFun Version 0.99 

Warning: RI is on but no J-basis has been assigned. Assigning Def2/J (nothing to worry about!)
================================================================================

----- Orbital basis set information -----
Your calculation utilizes the basis: def2-TZVP
   F. Weigend and R. Ahlrichs, Phys. Chem. Chem. Phys. 7, 3297 (2005).

----- AuxJ basis set information -----
Your calculation utilizes the auxiliary basis: def2/J
   F. Weigend, Phys. Chem. Chem. Phys. 8, 1057 (2006).

================================================================================
                                        WARNINGS
                       Please study these warnings very carefully!
================================================================================

WARNING: Functional chosen is sensitive to the integration grid.
         DEFGRID3 seems to be a minimum grid for robust results!

================================================================================
                                       INPUT FILE
================================================================================
NAME = data/single_point_PO_M06-2x/20851/20851.inp
|  1> ! RIJCOSX M062X def2-TZVP D3ZERO NormalSCF
|  2> %pal
|  3> nprocs 6
|  4> end
|  5> 
|  6> * xyz 0 1
|  7>   C          -4.52256732044359      5.27221347625914      1.66834377697696
|  8>   C          -3.27508181055603      4.40193743239101      1.85779360013740
|  9>   C          -3.47673168252801      2.91950285927808      1.49863591387058
| 10>   C          -3.88899720807072      2.64271462183043      0.04322710138626
| 11>   C          -2.92214659530894      3.18034276134249     -1.02772929499861
| 12>   C          -1.45980497288290      2.73232214071048     -0.86842591971656
| 13>   C          -1.28355656258699      1.21145981200704     -0.79019180680830
| 14>   C           0.18304121018041      0.76529950430436     -0.68884146185071
| 15>   P           0.27948219738099     -0.98185857276954     -0.11178045133666
| 16>   O          -0.57672651557562     -1.22543777395172      1.12733063213377
| 17>   C           2.05734967521298     -1.34807360564726      0.19453750277081
| 18>   C           3.04346273156249     -1.03606099688229     -0.93901102599220
| 19>   C           4.49080743886366     -1.46478848385902     -0.64223655167582
| 20>   C           5.15485225209796     -0.69467754820901      0.50651081065343
| 21>   C           6.58822062717530     -1.14855261948003      0.82981028266365
| 22>   C           7.59535209155931     -1.03771376765341     -0.32991247649293
| 23>   C           7.72460397984162      0.36060251908437     -0.95813976017511
| 24>   C           8.16642098036641      1.45426765211407      0.02047924988443
| 25>   C          -0.24220872087840     -2.01034796396563     -1.55453620665104
| 26>   C          -0.66796660668956     -3.42911164523140     -1.11780760658046
| 27>   C          -1.98022194864374     -3.91322545102868     -1.76715747041366
| 28>   C          -3.17231132835860     -2.95632824950245     -1.57974577619430
| 29>   C          -3.43613996306207     -2.54120959374759     -0.12710282422128
| 30>   C          -4.54284817276527     -1.48836724020307      0.01203010470020
| 31>   C          -4.67085029776842     -0.89750146638238      1.42549814197928
| 32>   C          -5.08696007310739     -1.90889657682617      2.49912607459091
| 33>   H          -5.38051080582087      4.87711177424863      2.25309845037313
| 34>   H          -4.34461323278580      6.31566781641612      1.99985320678113
| 35>   H          -4.84124462446475      5.31534681011149      0.60622928379477
| 36>   H          -2.94043332158930      4.46533503495613      2.91615975969223
| 37>   H          -2.43696415194794      4.82297640301509      1.25873105033790
| 38>   H          -2.54316813205738      2.36167805681995      1.73103724512135
| 39>   H          -4.25012608501507      2.48509530441497      2.17006840502840
| 40>   H          -4.89860195634565      3.06674467565493     -0.14772383403273
| 41>   H          -4.00782512074840      1.54577099903835     -0.08153183988195
| 42>   H          -2.95355121480496      4.29190738144570     -1.03885511678528
| 43>   H          -3.29237278701851      2.86244950917912     -2.02785115771582
| 44>   H          -1.02341551170489      3.18738623760559      0.04882029521431
| 45>   H          -0.86084124996684      3.13497118867957     -1.71525404322746
| 46>   H          -1.81708232077199      0.81310591214592      0.09804637224960
| 47>   H          -1.76475004686994      0.73519036108424     -1.67373912704872
| 48>   H           0.71434317395260      1.36804205031709      0.08033583944160
| 49>   H           0.73337396073489      0.89489996583352     -1.64567607187581
| 50>   H           2.30130380354276     -0.79350398069404      1.12555121994588
| 51>   H           2.09025762522131     -2.42623887493254      0.46635188785754
| 52>   H           3.02750470812927      0.05397974079900     -1.16114200700542
| 53>   H           2.70631303426536     -1.54127915759664     -1.86999293616425
| 54>   H           5.08917911054020     -1.33741230681700     -1.56980144121933
| 55>   H           4.51112511081499     -2.55559375880713     -0.41657708250570
| 56>   H           4.54100342196273     -0.79753856828000      1.42720696276982
| 57>   H           5.14587078318243      0.39227359565112      0.26431221576240
| 58>   H           6.56234817725753     -2.20590107005722      1.17530011395553
| 59>   H           6.95797062653061     -0.56300892447675      1.69933726591107
| 60>   H           8.59361080733545     -1.36107231256862      0.04071985402269
| 61>   H           7.32691420857842     -1.76549252881510     -1.12667719282409
| 62>   H           8.45079475587229      0.30318696839398     -1.79800091426082
| 63>   H           6.75767926450063      0.65184419820233     -1.42615865991619
| 64>   H           7.42349520558224      1.61264737500492      0.82935624203818
| 65>   H           9.13095835494269      1.19408640583222      0.50622883854889
| 66>   H           8.30374175072170      2.42742708323070     -0.49348920559605
| 67>   H          -1.10132711433426     -1.46378857097553     -1.99510613689593
| 68>   H           0.55146874675223     -2.01108783785473     -2.33069064292371
| 69>   H          -0.79622742562446     -3.43176909568336     -0.01438675837842
| 70>   H           0.14504173573611     -4.15216895377623     -1.33721824908654
| 71>   H          -2.23253341127870     -4.90529116762857     -1.33219194700304
| 72>   H          -1.82220881079136     -4.08726229990292     -2.85501528088926
| 73>   H          -4.08205950197400     -3.42522204187135     -2.01615156752668
| 74>   H          -3.01015579161906     -2.03650594811084     -2.18876324473409
| 75>   H          -2.50905606515707     -2.12649629199091      0.32620090055989
| 76>   H          -3.68580590928087     -3.44664943320444      0.47011894806300
| 77>   H          -4.32855610869213     -0.65779766147931     -0.69928531809035
| 78>   H          -5.52253851372949     -1.91150694867686     -0.31086472466285
| 79>   H          -3.69606457555813     -0.44210563948639      1.70898265968779
| 80>   H          -5.40709553562736     -0.06403810852509      1.40241246784110
| 81>   H          -5.21208240554029     -1.42149098221608      3.48772461218242
| 82>   H          -4.32998750738880     -2.71006443672291      2.62310109287700
| 83>   H          -6.05157153266306     -2.39734817091198      2.24225275155283
| 84> **                         ****END OF INPUT****
================================================================================

                       ****************************
                       * Single Point Calculation *
                       ****************************

---------------------------------
CARTESIAN COORDINATES (ANGSTROEM)
---------------------------------
  C     -4.522567    5.272213    1.668344
  C     -3.275082    4.401937    1.857794
  C     -3.476732    2.919503    1.498636
  C     -3.888997    2.642715    0.043227
  C     -2.922147    3.180343   -1.027729
  C     -1.459805    2.732322   -0.868426
  C     -1.283557    1.211460   -0.790192
  C      0.183041    0.765300   -0.688841
  P      0.279482   -0.981859   -0.111780
  O     -0.576727   -1.225438    1.127331
  C      2.057350   -1.348074    0.194538
  C      3.043463   -1.036061   -0.939011
  C      4.490807   -1.464788   -0.642237
  C      5.154852   -0.694678    0.506511
  C      6.588221   -1.148553    0.829810
  C      7.595352   -1.037714   -0.329912
  C      7.724604    0.360603   -0.958140
  C      8.166421    1.454268    0.020479
  C     -0.242209   -2.010348   -1.554536
  C     -0.667967   -3.429112   -1.117808
  C     -1.980222   -3.913225   -1.767157
  C     -3.172311   -2.956328   -1.579746
  C     -3.436140   -2.541210   -0.127103
  C     -4.542848   -1.488367    0.012030
  C     -4.670850   -0.897501    1.425498
  C     -5.086960   -1.908897    2.499126
  H     -5.380511    4.877112    2.253098
  H     -4.344613    6.315668    1.999853
  H     -4.841245    5.315347    0.606229
  H     -2.940433    4.465335    2.916160
  H     -2.436964    4.822976    1.258731
  H     -2.543168    2.361678    1.731037
  H     -4.250126    2.485095    2.170068
  H     -4.898602    3.066745   -0.147724
  H     -4.007825    1.545771   -0.081532
  H     -2.953551    4.291907   -1.038855
  H     -3.292373    2.862450   -2.027851
  H     -1.023416    3.187386    0.048820
  H     -0.860841    3.134971   -1.715254
  H     -1.817082    0.813106    0.098046
  H     -1.764750    0.735190   -1.673739
  H      0.714343    1.368042    0.080336
  H      0.733374    0.894900   -1.645676
  H      2.301304   -0.793504    1.125551
  H      2.090258   -2.426239    0.466352
  H      3.027505    0.053980   -1.161142
  H      2.706313   -1.541279   -1.869993
  H      5.089179   -1.337412   -1.569801
  H      4.511125   -2.555594   -0.416577
  H      4.541003   -0.797539    1.427207
  H      5.145871    0.392274    0.264312
  H      6.562348   -2.205901    1.175300
  H      6.957971   -0.563009    1.699337
  H      8.593611   -1.361072    0.040720
  H      7.326914   -1.765493   -1.126677
  H      8.450795    0.303187   -1.798001
  H      6.757679    0.651844   -1.426159
  H      7.423495    1.612647    0.829356
  H      9.130958    1.194086    0.506229
  H      8.303742    2.427427   -0.493489
  H     -1.101327   -1.463789   -1.995106
  H      0.551469   -2.011088   -2.330691
  H     -0.796227   -3.431769   -0.014387
  H      0.145042   -4.152169   -1.337218
  H     -2.232533   -4.905291   -1.332192
  H     -1.822209   -4.087262   -2.855015
  H     -4.082060   -3.425222   -2.016152
  H     -3.010156   -2.036506   -2.188763
  H     -2.509056   -2.126496    0.326201
  H     -3.685806   -3.446649    0.470119
  H     -4.328556   -0.657798   -0.699285
  H     -5.522539   -1.911507   -0.310865
  H     -3.696065   -0.442106    1.708983
  H     -5.407096   -0.064038    1.402412
  H     -5.212082   -1.421491    3.487725
  H     -4.329988   -2.710064    2.623101
  H     -6.051572   -2.397348    2.242253

----------------------------
CARTESIAN COORDINATES (A.U.)
----------------------------
  NO LB      ZA    FRAG     MASS         X           Y           Z
   0 C     6.0000    0    12.011   -8.546414    9.963040    3.152713
   1 C     6.0000    0    12.011   -6.189008    8.318456    3.510721
   2 C     6.0000    0    12.011   -6.570071    5.517061    2.832011
   3 C     6.0000    0    12.011   -7.349140    4.994007    0.081687
   4 C     6.0000    0    12.011   -5.522057    6.009977   -1.942127
   5 C     6.0000    0    12.011   -2.758632    5.163341   -1.641087
   6 C     6.0000    0    12.011   -2.425570    2.289327   -1.493246
   7 C     6.0000    0    12.011    0.345898    1.446206   -1.301722
   8 P    15.0000    0    30.974    0.528145   -1.855444   -0.211234
   9 O     8.0000    0    15.999   -1.089855   -2.315742    2.130346
  10 C     6.0000    0    12.011    3.887827   -2.547490    0.367623
  11 C     6.0000    0    12.011    5.751311   -1.957872   -1.774474
  12 C     6.0000    0    12.011    8.486396   -2.768049   -1.213651
  13 C     6.0000    0    12.011    9.741259   -1.312750    0.957167
  14 C     6.0000    0    12.011   12.449933   -2.170450    1.568114
  15 C     6.0000    0    12.011   14.353135   -1.960995   -0.623444
  16 C     6.0000    0    12.011   14.597386    0.681440   -1.810622
  17 C     6.0000    0    12.011   15.432299    2.748168    0.038700
  18 C     6.0000    0    12.011   -0.457708   -3.799007   -2.937648
  19 C     6.0000    0    12.011   -1.262274   -6.480082   -2.112350
  20 C     6.0000    0    12.011   -3.742077   -7.394924   -3.339444
  21 C     6.0000    0    12.011   -5.994800   -5.586651   -2.985287
  22 C     6.0000    0    12.011   -6.493363   -4.802190   -0.240190
  23 C     6.0000    0    12.011   -8.584739   -2.812606    0.022734
  24 C     6.0000    0    12.011   -8.826628   -1.696032    2.693801
  25 C     6.0000    0    12.011   -9.612961   -3.607292    4.722664
  26 H     1.0000    0     1.008  -10.167692    9.216406    4.257739
  27 H     1.0000    0     1.008   -8.210129   11.934883    3.779175
  28 H     1.0000    0     1.008   -9.148626   10.044550    1.145607
  29 H     1.0000    0     1.008   -5.556614    8.438260    5.510743
  30 H     1.0000    0     1.008   -4.605195    9.114105    2.378657
  31 H     1.0000    0     1.008   -4.805891    4.462925    3.271186
  32 H     1.0000    0     1.008   -8.031574    4.696150    4.100835
  33 H     1.0000    0     1.008   -9.257016    5.795308   -0.279158
  34 H     1.0000    0     1.008   -7.573692    2.921084   -0.154073
  35 H     1.0000    0     1.008   -5.581403    8.110530   -1.963152
  36 H     1.0000    0     1.008   -6.221683    5.409246   -3.832083
  37 H     1.0000    0     1.008   -1.933975    6.023287    0.092257
  38 H     1.0000    0     1.008   -1.626754    5.924237   -3.241360
  39 H     1.0000    0     1.008   -3.433788    1.536547    0.185281
  40 H     1.0000    0     1.008   -3.334894    1.389308   -3.162909
  41 H     1.0000    0     1.008    1.349913    2.585225    0.151813
  42 H     1.0000    0     1.008    1.385876    1.691116   -3.109877
  43 H     1.0000    0     1.008    4.348834   -1.499505    2.126984
  44 H     1.0000    0     1.008    3.950014   -4.584927    0.881277
  45 H     1.0000    0     1.008    5.721155    0.102007   -2.194240
  46 H     1.0000    0     1.008    5.114190   -2.912596   -3.533775
  47 H     1.0000    0     1.008    9.617155   -2.527343   -2.966495
  48 H     1.0000    0     1.008    8.524791   -4.829372   -0.787217
  49 H     1.0000    0     1.008    8.581253   -1.507129    2.697030
  50 H     1.0000    0     1.008    9.724287    0.741290    0.499478
  51 H     1.0000    0     1.008   12.401041   -4.168549    2.220995
  52 H     1.0000    0     1.008   13.148659   -1.063933    3.211282
  53 H     1.0000    0     1.008   16.239571   -2.572054    0.076949
  54 H     1.0000    0     1.008   13.845861   -3.336297   -2.129111
  55 H     1.0000    0     1.008   15.969688    0.572940   -3.397729
  56 H     1.0000    0     1.008   12.770163    1.231807   -2.695049
  57 H     1.0000    0     1.008   14.028373    3.047462    1.567256
  58 H     1.0000    0     1.008   17.255011    2.256496    0.956634
  59 H     1.0000    0     1.008   15.691798    4.587172   -0.932559
  60 H     1.0000    0     1.008   -2.081207   -2.766160   -3.770204
  61 H     1.0000    0     1.008    1.042125   -3.800405   -4.404367
  62 H     1.0000    0     1.008   -1.504652   -6.485104   -0.027187
  63 H     1.0000    0     1.008    0.274089   -7.846462   -2.526976
  64 H     1.0000    0     1.008   -4.218877   -9.269657   -2.517478
  65 H     1.0000    0     1.008   -3.443476   -7.723806   -5.395197
  66 H     1.0000    0     1.008   -7.713975   -6.472732   -3.809974
  67 H     1.0000    0     1.008   -5.688370   -3.848439   -4.136163
  68 H     1.0000    0     1.008   -4.741429   -4.018496    0.616430
  69 H     1.0000    0     1.008   -6.965164   -6.513224    0.888396
  70 H     1.0000    0     1.008   -8.179786   -1.243057   -1.321458
  71 H     1.0000    0     1.008  -10.436085   -3.612225   -0.587449
  72 H     1.0000    0     1.008   -6.984550   -0.835459    3.229509
  73 H     1.0000    0     1.008  -10.217930   -0.121014    2.650175
  74 H     1.0000    0     1.008   -9.849408   -2.686229    6.590844
  75 H     1.0000    0     1.008   -8.182491   -5.121280    4.956943
  76 H     1.0000    0     1.008  -11.435813   -4.530331    4.237244

--------------------------------
INTERNAL COORDINATES (ANGSTROEM)
--------------------------------
 C      0   0   0     0.000000000000     0.00000000     0.00000000
 C      1   0   0     1.532805181817     0.00000000     0.00000000
 C      2   1   0     1.538593246453   114.30077614     0.00000000
 C      3   2   1     1.537787177537   115.43490966    60.14578702
 C      4   3   2     1.539737551257   115.28335186    57.41262648
 C      5   4   3     1.537707079572   115.04731851    54.01063968
 C      6   5   4     1.533038258304   113.80725119    54.56203584
 C      7   6   5     1.536307241303   113.65453536   177.63895317
 P      8   7   6     1.842515025760   110.24342356   163.47127649
 O      9   8   7     1.525719654645   112.10909255   310.62835072
 C      9   8   7     1.840857655564   106.93624892   187.47306343
 C     11   9   8     1.534504185394   117.21086498   307.99610209
 C     12  11   9     1.538404708927   113.91741055   184.20780063
 C     13  12  11     1.534159988283   114.31634544   294.07701730
 C     14  13  12     1.537878417690   114.37380374   178.40140114
 C     15  14  13     1.539985686860   115.46681038    59.11486494
 C     16  15  14     1.538396570571   115.33407571    55.70455386
 C     17  16  15     1.532645050887   114.33533799    59.55476800
 C      9   8   7     1.847023554666   105.58048568    73.78357579
 C     19   9   8     1.544309564410   111.62538765   199.06991206
 C     20  19   9     1.542088034164   113.82443011   134.42123222
 C     21  20  19     1.540081974003   114.35454124   305.97709477
 C     22  21  20     1.533655956452   114.61970687   307.94175990
 C     23  22  21     1.533831168920   113.31795978   174.59019919
 C     24  23  22     1.537334966456   114.03509958   189.16487976
 C     25  24  23     1.532561369814   114.39743781   295.78308801
 H      1   2   3     1.110905219671   111.19523870    56.43524515
 H      1   2   3     1.109217345409   111.50591167   176.43335959
 H      1   2   3     1.109731005792   111.96709986   296.53069768
 H      2   1   3     1.111821835938   109.28355433   238.26421841
 H      2   1   3     1.112920016455   109.36428832   123.45462445
 H      3   2   1     1.112079040254   108.93477115   183.68204706
 H      3   2   1     1.112506366590   109.05354366   297.95443870
 H      4   3   2     1.111559937216   109.71990629   294.55861473
 H      4   3   2     1.110391902817   108.23033079   180.40092610
 H      5   4   3     1.112063819527   109.76955193   291.17252013
 H      5   4   3     1.112819524040   108.44850769   176.39076967
 H      6   5   4     1.113040750788   109.82250443   292.62054337
 H      6   5   4     1.112655233201   109.12631355   177.35915819
 H      7   6   5     1.110091269634   109.97294424   298.28744791
 H      7   6   5     1.113119771769   109.52780973    54.26506797
 H      8   7   6     1.112301251598   110.13515934    47.09322531
 H      8   7   6     1.111393218849   112.46038392   287.60141743
 H     11   9   8     1.110786940515   104.61103246    72.85380229
 H     11   9   8     1.112387675681   105.19161299   184.11947240
 H     12  11   9     1.112558151758   109.72384210    61.74478224
 H     12  11   9     1.111594631766   109.35115839   306.01568616
 H     13  12  11     1.111148042457   108.27972164   171.68198361
 H     13  12  11     1.114087587075   109.21361204    56.97871022
 H     14  13  12     1.111338013491   109.55986606    56.66335514
 H     14  13  12     1.113644294777   108.88115051   301.83363141
 H     15  14  13     1.112662731077   108.90877680   296.78446165
 H     15  14  13     1.111599593098   108.60280582   182.49653375
 H     16  15  14     1.112856476198   108.35604658   178.09246228
 H     16  15  14     1.112004872025   109.54874082   292.55550645
 H     17  16  15     1.111762720546   108.44715542   181.81152790
 H     17  16  15     1.113016986082   109.66794910   296.26756994
 H     18  17  16     1.109641758360   111.98077977   296.60872329
 H     18  17  16     1.110846204818   111.24635078    56.57100744
 H     18  17  16     1.109080630780   111.46425604   176.53721423
 H     19   9   8     1.109465388138   104.74901697   318.75625178
 H     19   9   8     1.110108183459   110.15563755    72.39687658
 H     20  19   9     1.110853486272   108.35696991    13.47493293
 H     20  19   9     1.109925883264   109.91584677   257.79789890
 H     21  20  19     1.112227704558   107.96184231   184.05836452
 H     21  20  19     1.112965225114   109.86841353    68.93819914
 H     22  21  20     1.112633426887   108.86405395   184.05726720
 H     22  21  20     1.115020072115   109.48279546    70.24605606
 H     23  22  21     1.112185210884   110.09530765    53.56315236
 H     23  22  21     1.113026609236   109.06423947   297.94035586
 H     24  23  22     1.114332331275   108.35853148   310.03252488
 H     24  23  22     1.114944594092   110.31783431    65.04645212
 H     25  24  23     1.112634726745   108.57957442    58.06982573
 H     25  24  23     1.112317925555   108.90618303   173.26434545
 H     26  25  24     1.109300175903   111.40636013   182.76472213
 H     26  25  24     1.109165095980   111.69628414    62.98336427
 H     26  25  24     1.111325394185   111.33377303   302.79339386

---------------------------
INTERNAL COORDINATES (A.U.)
---------------------------
 C      0   0   0     0.000000000000     0.00000000     0.00000000
 C      1   0   0     2.896582010290     0.00000000     0.00000000
 C      2   1   0     2.907519867297   114.30077614     0.00000000
 C      3   2   1     2.905996617801   115.43490966    60.14578702
 C      4   3   2     2.909682289990   115.28335186    57.41262648
 C      5   4   3     2.905845254584   115.04731851    54.01063968
 C      6   5   4     2.897022461018   113.80725119    54.56203584
 C      7   6   5     2.903199943622   113.65453536   177.63895317
 P      8   7   6     3.481848796322   110.24342356   163.47127649
 O      9   8   7     2.883192304420   112.10909255   310.62835072
 C      9   8   7     3.478716820547   106.93624892   187.47306343
 C     11   9   8     2.899792661751   117.21086498   307.99610209
 C     12  11   9     2.907163583006   113.91741055   184.20780063
 C     13  12  11     2.899142223475   114.31634544   294.07701730
 C     14  13  12     2.906169036701   114.37380374   178.40140114
 C     15  14  13     2.910151198323   115.46681038    59.11486494
 C     16  15  14     2.907148203742   115.33407571    55.70455386
 C     17  16  15     2.896279406686   114.33533799    59.55476800
 C      9   8   7     3.490368681220   105.58048568    73.78357579
 C     19   9   8     2.918322142730   111.62538765   199.06991206
 C     20  19   9     2.914124058966   113.82443011   134.42123222
 C     21  20  19     2.910333154654   114.35454124   305.97709477
 C     22  21  20     2.898189741352   114.61970687   307.94175990
 C     23  22  21     2.898520844932   113.31795978   174.59019919
 C     24  23  22     2.905142062702   114.03509958   189.16487976
 C     25  24  23     2.896121272376   114.39743781   295.78308801
 H      1   2   3     2.099306625921   111.19523870    56.43524515
 H      1   2   3     2.096117005818   111.50591167   176.43335959
 H      1   2   3     2.097087683267   111.96709986   296.53069768
 H      2   1   3     2.101038779637   109.28355433   238.26421841
 H      2   1   3     2.103114040060   109.36428832   123.45462445
 H      3   2   1     2.101524825354   108.93477115   183.68204706
 H      3   2   1     2.102332355099   109.05354366   297.95443870
 H      4   3   2     2.100543862776   109.71990629   294.55861473
 H      4   3   2     2.098336597648   108.23033079   180.40092610
 H      5   4   3     2.101496062349   109.76955193   291.17252013
 H      5   4   3     2.102924136915   108.44850769   176.39076967
 H      6   5   4     2.103342194884   109.82250443   292.62054337
 H      6   5   4     2.102613672224   109.12631355   177.35915819
 H      7   6   5     2.097768483265   109.97294424   298.28744791
 H      7   6   5     2.103491522896   109.52780973    54.26506797
 H      8   7   6     2.101944743937   110.13515934    47.09322531
 H      8   7   6     2.100228810722   112.46038392   287.60141743
 H     11   9   8     2.099083110709   104.61103246    72.85380229
 H     11   9   8     2.102108061786   105.19161299   184.11947240
 H     12  11   9     2.102430214884   109.72384210    61.74478224
 H     12  11   9     2.100609425975   109.35115839   306.01568616
 H     13  12  11     2.099765494487   108.27972164   171.68198361
 H     13  12  11     2.105320428773   109.21361204    56.97871022
 H     14  13  12     2.100124487714   109.55986606    56.66335514
 H     14  13  12     2.104482727733   108.88115051   301.83363141
 H     15  14  13     2.102627841157   108.90877680   296.78446165
 H     15  14  13     2.100618801534   108.60280582   182.49653375
 H     16  15  14     2.102993966375   108.35604658   178.09246228
 H     16  15  14     2.101384667714   109.54874082   292.55550645
 H     17  16  15     2.100927067735   108.44715542   181.81152790
 H     17  16  15     2.103297286098   109.66794910   296.26756994
 H     18  17  16     2.096919030064   111.98077977   296.60872329
 H     18  17  16     2.099195104012   111.24635078    56.57100744
 H     18  17  16     2.095858652611   111.46425604   176.53721423
 H     19   9   8     2.096585738645   104.74901697   318.75625178
 H     19   9   8     2.097800445763   110.15563755    72.39687658
 H     20  19   9     2.099208863967   108.35696991    13.47493293
 H     20  19   9     2.097455948319   109.91584677   257.79789890
 H     21  20  19     2.101805760174   107.96184231   184.05836452
 H     21  20  19     2.103199472043   109.86841353    68.93819914
 H     22  21  20     2.102572464263   108.86405395   184.05726720
 H     22  21  20     2.107082570122   109.48279546    70.24605606
 H     23  22  21     2.101725458768   110.09530765    53.56315236
 H     23  22  21     2.103315471223   109.06423947   297.94035586
 H     24  23  22     2.105782928285   108.35853148   310.03252488
 H     24  23  22     2.106939937330   110.31783431    65.04645212
 H     25  24  23     2.102574920639   108.57957442    58.06982573
 H     25  24  23     2.101976253150   108.90618303   173.26434545
 H     26  25  24     2.096273532768   111.40636013   182.76472213
 H     26  25  24     2.096018268707   111.69628414    62.98336427
 H     26  25  24     2.100100640681   111.33377303   302.79339386

---------------------
BASIS SET INFORMATION
---------------------
There are 4 groups of distinct atoms

 Group   1 Type C   : 11s6p2d1f contracted to 5s3p2d1f pattern {62111/411/11/1}
 Group   2 Type P   : 14s9p3d1f contracted to 5s5p2d1f pattern {73211/51111/21/1}
 Group   3 Type O   : 11s6p2d1f contracted to 5s3p2d1f pattern {62111/411/11/1}
 Group   4 Type H   : 5s1p contracted to 3s1p pattern {311/1}

Atom   0C    basis set group =>   1
Atom   1C    basis set group =>   1
Atom   2C    basis set group =>   1
Atom   3C    basis set group =>   1
Atom   4C    basis set group =>   1
Atom   5C    basis set group =>   1
Atom   6C    basis set group =>   1
Atom   7C    basis set group =>   1
Atom   8P    basis set group =>   2
Atom   9O    basis set group =>   3
Atom  10C    basis set group =>   1
Atom  11C    basis set group =>   1
Atom  12C    basis set group =>   1
Atom  13C    basis set group =>   1
Atom  14C    basis set group =>   1
Atom  15C    basis set group =>   1
Atom  16C    basis set group =>   1
Atom  17C    basis set group =>   1
Atom  18C    basis set group =>   1
Atom  19C    basis set group =>   1
Atom  20C    basis set group =>   1
Atom  21C    basis set group =>   1
Atom  22C    basis set group =>   1
Atom  23C    basis set group =>   1
Atom  24C    basis set group =>   1
Atom  25C    basis set group =>   1
Atom  26H    basis set group =>   4
Atom  27H    basis set group =>   4
Atom  28H    basis set group =>   4
Atom  29H    basis set group =>   4
Atom  30H    basis set group =>   4
Atom  31H    basis set group =>   4
Atom  32H    basis set group =>   4
Atom  33H    basis set group =>   4
Atom  34H    basis set group =>   4
Atom  35H    basis set group =>   4
Atom  36H    basis set group =>   4
Atom  37H    basis set group =>   4
Atom  38H    basis set group =>   4
Atom  39H    basis set group =>   4
Atom  40H    basis set group =>   4
Atom  41H    basis set group =>   4
Atom  42H    basis set group =>   4
Atom  43H    basis set group =>   4
Atom  44H    basis set group =>   4
Atom  45H    basis set group =>   4
Atom  46H    basis set group =>   4
Atom  47H    basis set group =>   4
Atom  48H    basis set group =>   4
Atom  49H    basis set group =>   4
Atom  50H    basis set group =>   4
Atom  51H    basis set group =>   4
Atom  52H    basis set group =>   4
Atom  53H    basis set group =>   4
Atom  54H    basis set group =>   4
Atom  55H    basis set group =>   4
Atom  56H    basis set group =>   4
Atom  57H    basis set group =>   4
Atom  58H    basis set group =>   4
Atom  59H    basis set group =>   4
Atom  60H    basis set group =>   4
Atom  61H    basis set group =>   4
Atom  62H    basis set group =>   4
Atom  63H    basis set group =>   4
Atom  64H    basis set group =>   4
Atom  65H    basis set group =>   4
Atom  66H    basis set group =>   4
Atom  67H    basis set group =>   4
Atom  68H    basis set group =>   4
Atom  69H    basis set group =>   4
Atom  70H    basis set group =>   4
Atom  71H    basis set group =>   4
Atom  72H    basis set group =>   4
Atom  73H    basis set group =>   4
Atom  74H    basis set group =>   4
Atom  75H    basis set group =>   4
Atom  76H    basis set group =>   4
---------------------------------
AUXILIARY/J BASIS SET INFORMATION
---------------------------------
There are 4 groups of distinct atoms

 Group   1 Type C   : 12s5p4d2f1g contracted to 6s4p3d1f1g pattern {711111/2111/211/2/1}
 Group   2 Type P   : 14s5p5d2f1g contracted to 8s4p3d1f1g pattern {71111111/2111/311/2/1}
 Group   3 Type O   : 12s5p4d2f1g contracted to 6s4p3d1f1g pattern {711111/2111/211/2/1}
 Group   4 Type H   : 5s2p1d contracted to 3s1p1d pattern {311/2/1}

Atom   0C    basis set group =>   1
Atom   1C    basis set group =>   1
Atom   2C    basis set group =>   1
Atom   3C    basis set group =>   1
Atom   4C    basis set group =>   1
Atom   5C    basis set group =>   1
Atom   6C    basis set group =>   1
Atom   7C    basis set group =>   1
Atom   8P    basis set group =>   2
Atom   9O    basis set group =>   3
Atom  10C    basis set group =>   1
Atom  11C    basis set group =>   1
Atom  12C    basis set group =>   1
Atom  13C    basis set group =>   1
Atom  14C    basis set group =>   1
Atom  15C    basis set group =>   1
Atom  16C    basis set group =>   1
Atom  17C    basis set group =>   1
Atom  18C    basis set group =>   1
Atom  19C    basis set group =>   1
Atom  20C    basis set group =>   1
Atom  21C    basis set group =>   1
Atom  22C    basis set group =>   1
Atom  23C    basis set group =>   1
Atom  24C    basis set group =>   1
Atom  25C    basis set group =>   1
Atom  26H    basis set group =>   4
Atom  27H    basis set group =>   4
Atom  28H    basis set group =>   4
Atom  29H    basis set group =>   4
Atom  30H    basis set group =>   4
Atom  31H    basis set group =>   4
Atom  32H    basis set group =>   4
Atom  33H    basis set group =>   4
Atom  34H    basis set group =>   4
Atom  35H    basis set group =>   4
Atom  36H    basis set group =>   4
Atom  37H    basis set group =>   4
Atom  38H    basis set group =>   4
Atom  39H    basis set group =>   4
Atom  40H    basis set group =>   4
Atom  41H    basis set group =>   4
Atom  42H    basis set group =>   4
Atom  43H    basis set group =>   4
Atom  44H    basis set group =>   4
Atom  45H    basis set group =>   4
Atom  46H    basis set group =>   4
Atom  47H    basis set group =>   4
Atom  48H    basis set group =>   4
Atom  49H    basis set group =>   4
Atom  50H    basis set group =>   4
Atom  51H    basis set group =>   4
Atom  52H    basis set group =>   4
Atom  53H    basis set group =>   4
Atom  54H    basis set group =>   4
Atom  55H    basis set group =>   4
Atom  56H    basis set group =>   4
Atom  57H    basis set group =>   4
Atom  58H    basis set group =>   4
Atom  59H    basis set group =>   4
Atom  60H    basis set group =>   4
Atom  61H    basis set group =>   4
Atom  62H    basis set group =>   4
Atom  63H    basis set group =>   4
Atom  64H    basis set group =>   4
Atom  65H    basis set group =>   4
Atom  66H    basis set group =>   4
Atom  67H    basis set group =>   4
Atom  68H    basis set group =>   4
Atom  69H    basis set group =>   4
Atom  70H    basis set group =>   4
Atom  71H    basis set group =>   4
Atom  72H    basis set group =>   4
Atom  73H    basis set group =>   4
Atom  74H    basis set group =>   4
Atom  75H    basis set group =>   4
Atom  76H    basis set group =>   4


           ************************************************************
           *        Program running with 6 parallel MPI-processes     *
           *              working on a common directory               *
           ************************************************************
------------------------------------------------------------------------------
                             ORCA STARTUP CALCULATIONS
                           -- RI-GTO INTEGRALS CHOSEN --
------------------------------------------------------------------------------
------------------------------------------------------------------------------
                   ___                                                        
                  /   \      - P O W E R E D   B Y -                         
                 /     \                                                     
                 |  |  |   _    _      __       _____    __    __             
                 |  |  |  | |  | |    /  \     |  _  \  |  |  /  |          
                  \  \/   | |  | |   /    \    | | | |  |  | /  /          
                 / \  \   | |__| |  /  /\  \   | |_| |  |  |/  /          
                |  |  |   |  __  | /  /__\  \  |    /   |      \           
                |  |  |   | |  | | |   __   |  |    \   |  |\   \          
                \     /   | |  | | |  |  |  |  | |\  \  |  | \   \       
                 \___/    |_|  |_| |__|  |__|  |_| \__\ |__|  \__/        
                                                                              
                      - O R C A' S   B I G   F R I E N D -                    
                                      &                                       
                       - I N T E G R A L  F E E D E R -                       
                                                                              
 v1 FN, 2020, v2 2021, v3 2022-2024                                           
------------------------------------------------------------------------------


----------------------
SHARK INTEGRAL PACKAGE
----------------------

Number of atoms                             ...     77
Number of basis functions                   ...   1118
Number of shells                            ...    492
Maximum angular momentum                    ...      3
Integral batch strategy                     ... SHARK/LIBINT Hybrid
RI-J (if used) integral strategy            ... SPLIT-RIJ (Revised 2003 algorithm where possible)
Printlevel                                  ...      1
Contraction scheme used                     ... SEGMENTED contraction
Prescreening option                         ... SCHWARTZ
   Thresh                                   ... 1.000e-10
   Tcut                                     ... 1.000e-11
   Tpresel                                  ... 1.000e-11 
Coulomb Range Separation                    ... NOT USED
Exchange Range Separation                   ... NOT USED
Multipole approximations                    ... NOT USED
Finite Nucleus Model                        ... NOT USED
CABS basis                                  ... NOT available
Auxiliary Coulomb fitting basis             ... AVAILABLE
   # of basis functions in Aux-J            ...   1837
   # of shells in Aux-J                     ...    647
   Maximum angular momentum in Aux-J        ...      4
Auxiliary J/K fitting basis                 ... NOT available
Auxiliary Correlation fitting basis         ... NOT available
Auxiliary 'external' fitting basis          ... NOT available

Checking pre-screening integrals            ... done (  0.0 sec) Dimension = 492
Check shell pair data                       ... done (  0.0 sec)
Shell pair information
Shell pair cut-off parameter TPreSel        ...   1.0e-11
Total number of shell pairs                 ...    121278
Shell pairs after pre-screening             ...     64013
Total number of primitive shell pairs       ...    348100
Primitive shell pairs kept                  ...    120631
          la=0 lb=0:  21497 shell pairs
          la=1 lb=0:  20027 shell pairs
          la=1 lb=1:   4741 shell pairs
          la=2 lb=0:   7569 shell pairs
          la=2 lb=1:   3565 shell pairs
          la=2 lb=2:    711 shell pairs
          la=3 lb=0:   3507 shell pairs
          la=3 lb=1:   1644 shell pairs
          la=3 lb=2:    602 shell pairs
          la=3 lb=3:    150 shell pairs

Calculating one electron integrals          ... done (  0.1 sec)
Calculating RI/J V-Matrix + Cholesky decomp.... done (  0.2 sec)
Calculating Nuclear repulsion               ... done (  0.0 sec) ENN=   2676.341920883453 Eh

Diagonalization of the overlap matrix:
Smallest eigenvalue                        ... 5.932e-05
Time for diagonalization                   ...    0.288 sec
Threshold for overlap eigenvalues          ... 1.000e-07
Number of eigenvalues below threshold      ... 0
Time for construction of square roots      ...    0.166 sec
Total time needed                          ...    0.464 sec

-------------------
DFT GRID GENERATION
-------------------

General Integration Accuracy     IntAcc      ... 4.388
Radial Grid Type                 RadialGrid  ... OptM3 with GC (2021)
Angular Grid (max. ang.)         AngularGrid ... 4 (Lebedev-302)
Angular grid pruning method      GridPruning ... 4 (adaptive)
Weight generation scheme         WeightScheme... mBecke (2022)
Basis function cutoff            BFCut       ... 1.0000e-10
Integration weight cutoff        WCut        ... 1.0000e-14
Partially contracted basis set               ... off
Rotationally invariant grid construction     ... off
Angular grids for H and He will be reduced by one unit

Total number of grid points                  ...   316274
Total number of batches                      ...     4981
Average number of points per batch           ...       63
Average number of grid points per atom       ...     4107

--------------------
COSX GRID GENERATION
--------------------

GRIDX 1
-------
General Integration Accuracy     IntAcc      ... 3.816
Radial Grid Type                 RadialGrid  ... OptM3 with GC (2021)
Angular Grid (max. ang.)         AngularGrid ... 1 (Lebedev-50)
Angular grid pruning method      GridPruning ... 4 (adaptive)
Weight generation scheme         WeightScheme... mBecke (2022)
Basis function cutoff            BFCut       ... 1.0000e-10
Integration weight cutoff        WCut        ... 1.0000e-14
Partially contracted basis set               ... on
Rotationally invariant grid construction     ... off
Angular grids for H and He will be reduced by one unit

Total number of grid points                  ...    41232
Total number of batches                      ...      373
Average number of points per batch           ...      110
Average number of grid points per atom       ...      535
UseSFitting                                  ... on

GRIDX 2
-------
General Integration Accuracy     IntAcc      ... 4.020
Radial Grid Type                 RadialGrid  ... OptM3 with GC (2021)
Angular Grid (max. ang.)         AngularGrid ... 2 (Lebedev-110)
Angular grid pruning method      GridPruning ... 4 (adaptive)
Weight generation scheme         WeightScheme... mBecke (2022)
Basis function cutoff            BFCut       ... 1.0000e-10
Integration weight cutoff        WCut        ... 1.0000e-14
Partially contracted basis set               ... on
Rotationally invariant grid construction     ... off
Angular grids for H and He will be reduced by one unit

Total number of grid points                  ...    82008
Total number of batches                      ...      687
Average number of points per batch           ...      119
Average number of grid points per atom       ...     1065
UseSFitting                                  ... on

GRIDX 3
-------
General Integration Accuracy     IntAcc      ... 4.338
Radial Grid Type                 RadialGrid  ... OptM3 with GC (2021)
Angular Grid (max. ang.)         AngularGrid ... 3 (Lebedev-194)
Angular grid pruning method      GridPruning ... 4 (adaptive)
Weight generation scheme         WeightScheme... mBecke (2022)
Basis function cutoff            BFCut       ... 1.0000e-10
Integration weight cutoff        WCut        ... 1.0000e-14
Partially contracted basis set               ... on
Rotationally invariant grid construction     ... off
Angular grids for H and He will be reduced by one unit

Total number of grid points                  ...   177372
Total number of batches                      ...     1430
Average number of points per batch           ...      124
Average number of grid points per atom       ...     2304
UseSFitting                                  ... on
Initializing property integral containers    ... done (  0.0 sec)

SHARK setup successfully completed in   8.2 seconds

Maximum memory used throughout the entire STARTUP-calculation: 133.9 MB


           ************************************************************
           *        Program running with 6 parallel MPI-processes     *
           *              working on a common directory               *
           ************************************************************
-------------------------------------------------------------------------------
                                 ORCA GUESS
                   Start orbitals & Density for SCF / CASSCF
-------------------------------------------------------------------------------

------------
SCF SETTINGS
------------
Hamiltonian:
 Density Functional     Method          .... DFT(GTOs)
 Exchange Functional    Exchange        .... M062X
 Correlation Functional Correlation     .... M062X
 Gradients option       PostSCFGGA      .... off
 Hybrid DFT is turned on
   Fraction HF Exchange ScalHFX         ....  0.540000
   Scaling of DF-GGA-X  ScalDFX         ....  0.460000
   Scaling of DF-GGA-C  ScalDFC         ....  1.000000
   Scaling of DF-LDA-C  ScalLDAC        ....  1.000000
   Perturbative correction              ....  0.000000
 RI-approximation to the Coulomb term is turned on
   Number of AuxJ basis functions       .... 1837
   RIJ-COSX (HFX calculated with COS-X)).... on


General Settings:
 Integral files         IntName         .... data/single_point_PO_M06-2x/20851/20851
 Hartree-Fock type      HFTyp           .... RHF
 Total Charge           Charge          ....    0
 Multiplicity           Mult            ....    1
 Number of Electrons    NEL             ....  218
 Basis Dimension        Dim             .... 1118
 Nuclear Repulsion      ENuc            ....   2676.3419208835 Eh

Convergence Acceleration:
 AO-DIIS                CNVDIIS         .... on
   Start iteration      DIISMaxIt       ....    12
   Startup error        DIISStart       ....  0.200000
   # of expansion vecs  DIISMaxEq       ....     5
   Bias factor          DIISBfac        ....   1.050
   Max. coefficient     DIISMaxC        ....  10.000
 MO-DIIS                CNVKDIIS        .... off
 Trust-Rad. Augm. Hess. CNVTRAH         .... auto
   Auto Start mean grad. ratio tolernc. ....  1.125000
   Auto Start start iteration           ....    50
   Auto Start num. interpolation iter.  ....    10
   Max. Number of Micro iterations      ....    24
   Max. Number of Macro iterations      .... Maxiter - #DIIS iter
   Number of Davidson start vectors     ....     2
   Converg. threshold    (grad. norm)   ....   5.000e-05
   Grad. Scal. Fac. for Micro threshold ....   0.100
   Minimum threshold for Micro iter.    ....   1.000e-02
   NR start threshold (gradient norm)   ....   1.000e-04
   Initial trust radius                 ....   0.400
   Minimum AH scaling param. (alpha)    ....   1.000
   Maximum AH scaling param. (alpha)    .... 1000.000
   Quad. conv. algorithm                .... NR
   White noise on init. David. guess    .... on
   Maximum white noise                  ....   0.010
   Pseudo random numbers                .... off
   Inactive MOs                         .... canonical
   Orbital update algorithm             .... Taylor
   Preconditioner                       .... Diag
   Full preconditioner red. dimension   ....   250
 SOSCF                  CNVSOSCF        .... on
   Start iteration      SOSCFMaxIt      ....   150
   Startup grad/error   SOSCFStart      ....  0.003300
   Hessian update       SOSCFHessUp     .... L-BFGS
 Level Shifting         CNVShift        .... on
   Level shift para.    LevelShift      ....    0.2500
   Turn off err/grad.   ShiftErr        ....    0.0010
 Zerner damping         CNVZerner       .... off
 Static damping         CNVDamp         .... on
   Fraction old density DampFac         ....    0.7000
   Max. Damping (<1)    DampMax         ....    0.9800
   Min. Damping (>=0)   DampMin         ....    0.0000
   Turn off err/grad.   DampErr         ....    0.1000

SCF Procedure:
 Maximum # iterations   MaxIter         ....   125
 SCF integral mode      SCFMode         .... Direct
   Integral package                     .... SHARK and LIBINT hybrid scheme
 Reset frequency        DirectResetFreq ....    20
 Integral Threshold     Thresh          ....  1.000e-10 Eh
 Primitive CutOff       TCut            ....  1.000e-11 Eh

Convergence Tolerance:
 Convergence Check Mode ConvCheckMode   .... Total+1el-Energy
 Convergence forced     ConvForced      .... 0
 Energy Change          TolE            ....  1.000e-06 Eh
 1-El. energy change                    ....  1.000e-03 Eh
 Orbital Gradient       TolG            ....  5.000e-05
 Orbital Rotation angle TolX            ....  5.000e-05
 DIIS Error             TolErr          ....  1.000e-05

------------------------------
INITIAL GUESS: MODEL POTENTIAL
------------------------------
Loading Hartree-Fock densities                     ... done
Calculating cut-offs                               ... done
Initializing the effective Hamiltonian             ... done
Setting up the integral package (SHARK)            ... done
Starting the Coulomb interaction                   ... done (   1.5 sec)
Making the grid                                    ... done (   0.7 sec)
Mapping shells                                     ... done
Starting the XC term evaluation                    ... done (   0.7 sec)
  promolecular density results
     # of electrons  =    217.976283409
     EX              =   -168.418696403
     EC              =     -7.236353330
     EX+EC           =   -175.655049733
Transforming the Hamiltonian                       ... done (   0.1 sec)
Diagonalizing the Hamiltonian                      ... done (   0.3 sec)
Back transforming the eigenvectors                 ... done (   0.1 sec)
Now organizing SCF variables                       ... done
                      ------------------
                      INITIAL GUESS DONE (   3.4 sec)
                      ------------------
             **** ENERGY FILE WAS UPDATED (data/single_point_PO_M06-2x/20851/20851.en.tmp) ****
Finished Guess after   3.9 sec
Maximum memory used throughout the entire GUESS-calculation: 99.1 MB


           ************************************************************
           *        Program running with 6 parallel MPI-processes     *
           *              working on a common directory               *
           ************************************************************

-------------------------------------------------------------------------------------------
                                      ORCA LEAN-SCF
                              memory conserving SCF solver
-------------------------------------------------------------------------------------------

----------------------------------------D-I-I-S--------------------------------------------
Iteration    Energy (Eh)           Delta-E    RMSDP     MaxDP     DIISErr   Damp  Time(sec)
-------------------------------------------------------------------------------------------
               ***  Starting incremental Fock matrix formation  ***
    1    -1360.7369779070718323     0.00e+00  8.94e-04  8.25e-02  3.61e-01  0.700  31.3
    2    -1361.1885975166942444    -4.52e-01  7.18e-04  8.22e-02  1.57e-01  0.700  17.5
                               ***Turning on AO-DIIS***
    3    -1361.3929012695330130    -2.04e-01  3.75e-04  2.50e-02  4.77e-02  0.700  16.6
    4    -1361.5122440216032373    -1.19e-01  8.14e-04  6.24e-02  3.43e-02  0.000  15.7
    5    -1361.7682729699604351    -2.56e-01  8.93e-05  1.06e-02  4.21e-03  0.000  16.7
                              *** Initializing SOSCF ***
---------------------------------------S-O-S-C-F--------------------------------------
Iteration    Energy (Eh)           Delta-E    RMSDP     MaxDP     MaxGrad    Time(sec)
--------------------------------------------------------------------------------------
    6    -1361.7688277683928391    -5.55e-04  3.68e-05  4.79e-03  2.78e-03    14.5
               *** Restarting incremental Fock matrix formation ***
    7    -1361.7689133588792174    -8.56e-05  3.11e-05  2.41e-03  1.88e-04    31.0
    8    -1361.7689141918649511    -8.33e-07  1.22e-05  1.96e-03  2.54e-04    20.9
                 **** Energy Check signals convergence ****

               *****************************************************
               *                     SUCCESS                       *
               *           SCF CONVERGED AFTER   8 CYCLES          *
               *****************************************************

Recomputing exchange energy using gridx3       ... done (   47.181 sec)
Old exchange energy                            :    -93.609866047 Eh
New exchange energy                            :    -93.609968012 Eh
Exchange energy change after final integration :     -0.000101965 Eh
Total energy after final integration           :  -1361.769016157 Eh
             **** ENERGY FILE WAS UPDATED (data/single_point_PO_M06-2x/20851/20851.en.tmp) ****

----------------
TOTAL SCF ENERGY
----------------

Total Energy       :      -1361.76901615679549 Eh          -37055.61880 eV

Components:
Nuclear Repulsion  :       2676.34192088345253 Eh           72826.96612 eV
Electronic Energy  :      -4038.11083507531748 Eh         -109882.58214 eV
One Electron Energy:      -7173.73980938897421 Eh         -195207.38437 eV
Two Electron Energy:       3135.62897431365673 Eh           85324.80222 eV

Virial components:
Potential Energy   :      -2715.75326729538665 Eh          -73899.40338 eV
Kinetic Energy     :       1353.98425113859116 Eh           36843.78458 eV
Virial Ratio       :          2.00574952405219

DFT components:
N(Alpha)           :      109.000584248587 electrons
N(Beta)            :      109.000584248587 electrons
N(Total)           :      218.001168497174 electrons
E(XC)              :      -87.107382492222 Eh       

---------------
SCF CONVERGENCE
---------------

  Last Energy change         ...    8.3299e-07  Tolerance :   1.0000e-06
  Last MAX-Density change    ...    1.9629e-03  Tolerance :   1.0000e-05
  Last RMS-Density change    ...    1.2192e-05  Tolerance :   1.0000e-06
  Last DIIS Error            ...    2.7834e-03  Tolerance :   1.0000e-05
  Last Orbital Gradient      ...    2.5383e-04  Tolerance :   5.0000e-05
  Last Orbital Rotation      ...    1.7531e-04  Tolerance :   5.0000e-05


----------------
ORBITAL ENERGIES
----------------

  NO   OCC          E(Eh)            E(eV) 
   0   2.0000     -78.082277     -2124.7268 
   1   2.0000     -19.562607      -532.3256 
   2   2.0000     -10.553839      -287.1845 
   3   2.0000     -10.547916      -287.0234 
   4   2.0000     -10.547575      -287.0141 
   5   2.0000     -10.544742      -286.9370 
   6   2.0000     -10.543795      -286.9112 
   7   2.0000     -10.541392      -286.8459 
   8   2.0000     -10.539030      -286.7816 
   9   2.0000     -10.537874      -286.7501 
  10   2.0000     -10.537461      -286.7389 
  11   2.0000     -10.536807      -286.7211 
  12   2.0000     -10.535862      -286.6954 
  13   2.0000     -10.535641      -286.6894 
  14   2.0000     -10.532081      -286.5925 
  15   2.0000     -10.531922      -286.5882 
  16   2.0000     -10.530410      -286.5470 
  17   2.0000     -10.528944      -286.5071 
  18   2.0000     -10.526530      -286.4414 
  19   2.0000     -10.525533      -286.4143 
  20   2.0000     -10.525455      -286.4122 
  21   2.0000     -10.523128      -286.3489 
  22   2.0000     -10.518847      -286.2324 
  23   2.0000     -10.518093      -286.2119 
  24   2.0000     -10.512489      -286.0594 
  25   2.0000     -10.511164      -286.0233 
  26   2.0000      -6.889468      -187.4720 
  27   2.0000      -5.006346      -136.2296 
  28   2.0000      -5.006310      -136.2286 
  29   2.0000      -5.004791      -136.1873 
  30   2.0000      -1.054741       -28.7010 
  31   2.0000      -0.921161       -25.0661 
  32   2.0000      -0.913529       -24.8584 
  33   2.0000      -0.905742       -24.6465 
  34   2.0000      -0.893940       -24.3253 
  35   2.0000      -0.883162       -24.0321 
  36   2.0000      -0.875407       -23.8210 
  37   2.0000      -0.852269       -23.1914 
  38   2.0000      -0.840302       -22.8658 
  39   2.0000      -0.831471       -22.6255 
  40   2.0000      -0.802611       -21.8401 
  41   2.0000      -0.788883       -21.4666 
  42   2.0000      -0.782421       -21.2908 
  43   2.0000      -0.756813       -20.5939 
  44   2.0000      -0.742549       -20.2058 
  45   2.0000      -0.733361       -19.9558 
  46   2.0000      -0.707084       -19.2407 
  47   2.0000      -0.700055       -19.0495 
  48   2.0000      -0.692145       -18.8342 
  49   2.0000      -0.667674       -18.1683 
  50   2.0000      -0.659248       -17.9391 
  51   2.0000      -0.637090       -17.3361 
  52   2.0000      -0.625897       -17.0315 
  53   2.0000      -0.624377       -16.9902 
  54   2.0000      -0.612171       -16.6580 
  55   2.0000      -0.599661       -16.3176 
  56   2.0000      -0.554472       -15.0880 
  57   2.0000      -0.551149       -14.9975 
  58   2.0000      -0.548511       -14.9257 
  59   2.0000      -0.539236       -14.6734 
  60   2.0000      -0.533535       -14.5182 
  61   2.0000      -0.532465       -14.4891 
  62   2.0000      -0.524414       -14.2700 
  63   2.0000      -0.520649       -14.1676 
  64   2.0000      -0.510018       -13.8783 
  65   2.0000      -0.502722       -13.6798 
  66   2.0000      -0.501404       -13.6439 
  67   2.0000      -0.494986       -13.4693 
  68   2.0000      -0.488690       -13.2979 
  69   2.0000      -0.485921       -13.2226 
  70   2.0000      -0.481853       -13.1119 
  71   2.0000      -0.475110       -12.9284 
  72   2.0000      -0.472938       -12.8693 
  73   2.0000      -0.465560       -12.6685 
  74   2.0000      -0.462496       -12.5852 
  75   2.0000      -0.456196       -12.4137 
  76   2.0000      -0.453818       -12.3490 
  77   2.0000      -0.449500       -12.2315 
  78   2.0000      -0.446994       -12.1633 
  79   2.0000      -0.440878       -11.9969 
  80   2.0000      -0.434632       -11.8269 
  81   2.0000      -0.432788       -11.7768 
  82   2.0000      -0.428318       -11.6551 
  83   2.0000      -0.421700       -11.4750 
  84   2.0000      -0.419610       -11.4182 
  85   2.0000      -0.414933       -11.2909 
  86   2.0000      -0.413815       -11.2605 
  87   2.0000      -0.405864       -11.0441 
  88   2.0000      -0.402949       -10.9648 
  89   2.0000      -0.402056       -10.9405 
  90   2.0000      -0.399600       -10.8737 
  91   2.0000      -0.395986       -10.7753 
  92   2.0000      -0.393061       -10.6957 
  93   2.0000      -0.391329       -10.6486 
  94   2.0000      -0.384676       -10.4676 
  95   2.0000      -0.379922       -10.3382 
  96   2.0000      -0.377344       -10.2681 
  97   2.0000      -0.376711       -10.2508 
  98   2.0000      -0.375148       -10.2083 
  99   2.0000      -0.372312       -10.1311 
 100   2.0000      -0.366567        -9.9748 
 101   2.0000      -0.366005        -9.9595 
 102   2.0000      -0.362268        -9.8578 
 103   2.0000      -0.360554        -9.8112 
 104   2.0000      -0.359185        -9.7739 
 105   2.0000      -0.356601        -9.7036 
 106   2.0000      -0.350139        -9.5278 
 107   2.0000      -0.323136        -8.7930 
 108   2.0000      -0.316735        -8.6188 
 109   0.0000       0.046148         1.2558 
 110   0.0000       0.053964         1.4684 
 111   0.0000       0.061004         1.6600 
 112   0.0000       0.063943         1.7400 
 113   0.0000       0.067972         1.8496 
 114   0.0000       0.070523         1.9190 
 115   0.0000       0.077003         2.0953 
 116   0.0000       0.078528         2.1369 
 117   0.0000       0.079879         2.1736 
 118   0.0000       0.086387         2.3507 
 119   0.0000       0.090170         2.4536 
*Only the first 10 virtual orbitals were printed.

                    ********************************
                    * MULLIKEN POPULATION ANALYSIS *
                    ********************************

-----------------------
MULLIKEN ATOMIC CHARGES
-----------------------
   0 C :   -0.436036
   1 C :   -0.254176
   2 C :   -0.316677
   3 C :   -0.314072
   4 C :   -0.297801
   5 C :   -0.298052
   6 C :   -0.334901
   7 C :   -0.414089
   8 P :    0.703419
   9 O :   -0.608235
  10 C :   -0.407236
  11 C :   -0.299463
  12 C :   -0.296971
  13 C :   -0.313403
  14 C :   -0.324060
  15 C :   -0.313617
  16 C :   -0.256491
  17 C :   -0.436805
  18 C :   -0.453735
  19 C :   -0.304814
  20 C :   -0.274424
  21 C :   -0.291387
  22 C :   -0.347384
  23 C :   -0.283044
  24 C :   -0.290913
  25 C :   -0.441606
  26 H :    0.141725
  27 H :    0.142588
  28 H :    0.138610
  29 H :    0.138713
  30 H :    0.137511
  31 H :    0.168337
  32 H :    0.158475
  33 H :    0.168210
  34 H :    0.124346
  35 H :    0.159243
  36 H :    0.151888
  37 H :    0.163254
  38 H :    0.145366
  39 H :    0.171720
  40 H :    0.153512
  41 H :    0.176868
  42 H :    0.180576
  43 H :    0.187082
  44 H :    0.186735
  45 H :    0.164760
  46 H :    0.152361
  47 H :    0.154828
  48 H :    0.156844
  49 H :    0.155312
  50 H :    0.156820
  51 H :    0.153271
  52 H :    0.167348
  53 H :    0.152819
  54 H :    0.156463
  55 H :    0.138815
  56 H :    0.137532
  57 H :    0.140006
  58 H :    0.142854
  59 H :    0.144602
  60 H :    0.171258
  61 H :    0.178105
  62 H :    0.201219
  63 H :    0.144430
  64 H :    0.148027
  65 H :    0.144226
  66 H :    0.149142
  67 H :    0.141728
  68 H :    0.177796
  69 H :    0.153129
  70 H :    0.140536
  71 H :    0.149020
  72 H :    0.172844
  73 H :    0.139917
  74 H :    0.139289
  75 H :    0.151071
  76 H :    0.134842
Sum of atomic charges:   -0.0000000

--------------------------------
MULLIKEN REDUCED ORBITAL CHARGES
--------------------------------
  0 C s       :     3.312262  s :     3.312262
      pz      :     1.057722  p :     3.065623
      px      :     0.966997
      py      :     1.040904
      dz2     :     0.009044  d :     0.054890
      dxz     :     0.015557
      dyz     :     0.004511
      dx2y2   :     0.018885
      dxy     :     0.006893
      f0      :     0.000639  f :     0.003260
      f+1     :     0.000381
      f-1     :     0.000165
      f+2     :     0.000249
      f-2     :     0.000502
      f+3     :     0.000707
      f-3     :     0.000617

  1 C s       :     3.269467  s :     3.269467
      pz      :     1.066489  p :     2.891069
      px      :     0.936831
      py      :     0.887749
      dz2     :     0.015040  d :     0.088749
      dxz     :     0.016953
      dyz     :     0.013054
      dx2y2   :     0.021141
      dxy     :     0.022561
      f0      :     0.000757  f :     0.004892
      f+1     :     0.000429
      f-1     :     0.000486
      f+2     :     0.000502
      f-2     :     0.000624
      f+3     :     0.001271
      f-3     :     0.000823

  2 C s       :     3.272909  s :     3.272909
      pz      :     0.914430  p :     2.949580
      px      :     1.095041
      py      :     0.940109
      dz2     :     0.016457  d :     0.089254
      dxz     :     0.018010
      dyz     :     0.023504
      dx2y2   :     0.010788
      dxy     :     0.020496
      f0      :     0.000980  f :     0.004934
      f+1     :     0.000689
      f-1     :     0.000901
      f+2     :     0.000653
      f-2     :     0.000448
      f+3     :     0.000583
      f-3     :     0.000681

  3 C s       :     3.269619  s :     3.269619
      pz      :     0.873615  p :     2.951698
      px      :     0.996231
      py      :     1.081852
      dz2     :     0.026670  d :     0.087837
      dxz     :     0.019105
      dyz     :     0.013809
      dx2y2   :     0.020044
      dxy     :     0.008208
      f0      :     0.001007  f :     0.004918
      f+1     :     0.001062
      f-1     :     0.000845
      f+2     :     0.000648
      f-2     :     0.000529
      f+3     :     0.000252
      f-3     :     0.000575

  4 C s       :     3.292498  s :     3.292498
      pz      :     0.994236  p :     2.911980
      px      :     0.877280
      py      :     1.040464
      dz2     :     0.022321  d :     0.088411
      dxz     :     0.022812
      dyz     :     0.005267
      dx2y2   :     0.025465
      dxy     :     0.012546
      f0      :     0.000682  f :     0.004913
      f+1     :     0.000824
      f-1     :     0.000538
      f+2     :     0.000734
      f-2     :     0.000515
      f+3     :     0.000758
      f-3     :     0.000861

  5 C s       :     3.289209  s :     3.289209
      pz      :     1.092939  p :     2.917922
      px      :     0.953239
      py      :     0.871745
      dz2     :     0.006207  d :     0.085978
      dxz     :     0.022619
      dyz     :     0.018511
      dx2y2   :     0.017113
      dxy     :     0.021527
      f0      :     0.000529  f :     0.004943
      f+1     :     0.000642
      f-1     :     0.000511
      f+2     :     0.000858
      f-2     :     0.000376
      f+3     :     0.001172
      f-3     :     0.000856

  6 C s       :     3.257823  s :     3.257823
      pz      :     1.076472  p :     2.981719
      px      :     0.937213
      py      :     0.968034
      dz2     :     0.007091  d :     0.090109
      dxz     :     0.022189
      dyz     :     0.020602
      dx2y2   :     0.015709
      dxy     :     0.024518
      f0      :     0.000553  f :     0.005250
      f+1     :     0.000594
      f-1     :     0.000569
      f+2     :     0.000849
      f-2     :     0.000437
      f+3     :     0.001316
      f-3     :     0.000932

  7 C s       :     3.247307  s :     3.247307
      pz      :     1.091404  p :     3.095385
      px      :     0.982795
      py      :     1.021187
      dz2     :     0.005574  d :     0.067737
      dxz     :     0.026248
      dyz     :     0.006660
      dx2y2   :     0.015214
      dxy     :     0.014041
      f0      :     0.000404  f :     0.003660
      f+1     :     0.000626
      f-1     :     0.000277
      f+2     :     0.000641
      f-2     :     0.000344
      f+3     :     0.000667
      f-3     :     0.000700

  8 P s       :     5.303101  s :     5.303101
      pz      :     2.677271  p :     8.246956
      px      :     2.747041
      py      :     2.822645
      dz2     :     0.173114  d :     0.679233
      dxz     :     0.099649
      dyz     :     0.173225
      dx2y2   :     0.156919
      dxy     :     0.076325
      f0      :     0.014777  f :     0.067290
      f+1     :     0.007942
      f-1     :     0.009915
      f+2     :     0.010529
      f-2     :     0.011424
      f+3     :     0.006203
      f-3     :     0.006500

  9 O s       :     3.878159  s :     3.878159
      pz      :     1.479687  p :     4.704689
      px      :     1.562200
      py      :     1.662802
      dz2     :     0.007374  d :     0.024164
      dxz     :     0.007042
      dyz     :     0.004956
      dx2y2   :     0.002326
      dxy     :     0.002465
      f0      :     0.000240  f :     0.001224
      f+1     :     0.000354
      f-1     :     0.000134
      f+2     :     0.000214
      f-2     :     0.000201
      f+3     :     0.000040
      f-3     :     0.000041

 10 C s       :     3.254470  s :     3.254470
      pz      :     0.985889  p :     3.084015
      px      :     0.988228
      py      :     1.109897
      dz2     :     0.017493  d :     0.065230
      dxz     :     0.008670
      dyz     :     0.014175
      dx2y2   :     0.017527
      dxy     :     0.007365
      f0      :     0.000537  f :     0.003522
      f+1     :     0.000581
      f-1     :     0.000466
      f+2     :     0.000701
      f-2     :     0.000425
      f+3     :     0.000394
      f-3     :     0.000417

 11 C s       :     3.267957  s :     3.267957
      pz      :     0.948196  p :     2.937289
      px      :     0.932739
      py      :     1.056354
      dz2     :     0.018223  d :     0.089205
      dxz     :     0.021260
      dyz     :     0.012774
      dx2y2   :     0.024687
      dxy     :     0.012260
      f0      :     0.000652  f :     0.005013
      f+1     :     0.000835
      f-1     :     0.000495
      f+2     :     0.000839
      f-2     :     0.000649
      f+3     :     0.000734
      f-3     :     0.000807

 12 C s       :     3.275282  s :     3.275282
      pz      :     0.991898  p :     2.928307
      px      :     0.935073
      py      :     1.001336
      dz2     :     0.019417  d :     0.088403
      dxz     :     0.025541
      dyz     :     0.005699
      dx2y2   :     0.025627
      dxy     :     0.012118
      f0      :     0.000682  f :     0.004979
      f+1     :     0.000863
      f-1     :     0.000482
      f+2     :     0.000966
      f-2     :     0.000455
      f+3     :     0.000696
      f-3     :     0.000834

 13 C s       :     3.273033  s :     3.273033
      pz      :     0.995644  p :     2.948819
      px      :     0.963424
      py      :     0.989751
      dz2     :     0.017920  d :     0.086598
      dxz     :     0.025340
      dyz     :     0.006632
      dx2y2   :     0.024932
      dxy     :     0.011774
      f0      :     0.000689  f :     0.004953
      f+1     :     0.000878
      f-1     :     0.000460
      f+2     :     0.000941
      f-2     :     0.000502
      f+3     :     0.000679
      f-3     :     0.000805

 14 C s       :     3.305422  s :     3.305422
      pz      :     0.949001  p :     2.924107
      px      :     0.874759
      py      :     1.100347
      dz2     :     0.015778  d :     0.089594
      dxz     :     0.020953
      dyz     :     0.017504
      dx2y2   :     0.023082
      dxy     :     0.012277
      f0      :     0.000638  f :     0.004937
      f+1     :     0.000874
      f-1     :     0.000433
      f+2     :     0.000833
      f-2     :     0.000748
[...]
                      * MAYER POPULATION ANALYSIS *
                      *****************************

  NA   - Mulliken gross atomic population
  ZA   - Total nuclear charge
  QA   - Mulliken gross atomic charge
  VA   - Mayer's total valence
  BVA  - Mayer's bonded valence
  FA   - Mayer's free valence

  ATOM       NA         ZA         QA         VA         BVA        FA
  0 C      6.4360     6.0000    -0.4360     3.8332     3.8332    -0.0000
  1 C      6.2542     6.0000    -0.2542     3.7896     3.7896    -0.0000
  2 C      6.3167     6.0000    -0.3167     3.7152     3.7152     0.0000
  3 C      6.3141     6.0000    -0.3141     3.7010     3.7010     0.0000
  4 C      6.2978     6.0000    -0.2978     3.7239     3.7239     0.0000
  5 C      6.2981     6.0000    -0.2981     3.7635     3.7635     0.0000
  6 C      6.3349     6.0000    -0.3349     3.7166     3.7166     0.0000
  7 C      6.4141     6.0000    -0.4141     3.6893     3.6893     0.0000
  8 P     14.2966    15.0000     0.7034     4.7569     4.7569    -0.0000
  9 O      8.6082     8.0000    -0.6082     1.9358     1.9358    -0.0000
 10 C      6.4072     6.0000    -0.4072     3.6397     3.6397    -0.0000
 11 C      6.2995     6.0000    -0.2995     3.7136     3.7136    -0.0000
 12 C      6.2970     6.0000    -0.2970     3.7507     3.7507    -0.0000
 13 C      6.3134     6.0000    -0.3134     3.7072     3.7072     0.0000
 14 C      6.3241     6.0000    -0.3241     3.7462     3.7462    -0.0000
 15 C      6.3136     6.0000    -0.3136     3.7184     3.7184    -0.0000
 16 C      6.2565     6.0000    -0.2565     3.7578     3.7578    -0.0000
 17 C      6.4368     6.0000    -0.4368     3.8359     3.8359    -0.0000
 18 C      6.4537     6.0000    -0.4537     3.6638     3.6638    -0.0000
 19 C      6.3048     6.0000    -0.3048     3.6922     3.6922     0.0000
 20 C      6.2744     6.0000    -0.2744     3.7614     3.7614    -0.0000
 21 C      6.2914     6.0000    -0.2914     3.7133     3.7133    -0.0000
 22 C      6.3474     6.0000    -0.3474     3.6197     3.6197    -0.0000
 23 C      6.2830     6.0000    -0.2830     3.6914     3.6914     0.0000
 24 C      6.2909     6.0000    -0.2909     3.7471     3.7471    -0.0000
 25 C      6.4416     6.0000    -0.4416     3.8673     3.8673    -0.0000
 26 H      0.8583     1.0000     0.1417     0.9560     0.9560    -0.0000
 27 H      0.8574     1.0000     0.1426     0.9590     0.9590     0.0000
 28 H      0.8614     1.0000     0.1386     0.9546     0.9546     0.0000
 29 H      0.8613     1.0000     0.1387     0.9531     0.9531    -0.0000
 30 H      0.8625     1.0000     0.1375     0.9462     0.9462    -0.0000
 31 H      0.8317     1.0000     0.1683     0.9435     0.9435     0.0000
 32 H      0.8415     1.0000     0.1585     0.9510     0.9510    -0.0000
 33 H      0.8318     1.0000     0.1682     0.9453     0.9453     0.0000
 34 H      0.8757     1.0000     0.1243     0.9633     0.9633     0.0000
 35 H      0.8408     1.0000     0.1592     0.9467     0.9467    -0.0000
 36 H      0.8481     1.0000     0.1519     0.9538     0.9538    -0.0000
 37 H      0.8367     1.0000     0.1633     0.9462     0.9462     0.0000
 38 H      0.8546     1.0000     0.1454     0.9587     0.9587     0.0000
 39 H      0.8283     1.0000     0.1717     0.9717     0.9717    -0.0000
 40 H      0.8465     1.0000     0.1535     0.9524     0.9524    -0.0000
 41 H      0.8231     1.0000     0.1769     0.9583     0.9583     0.0000
 42 H      0.8194     1.0000     0.1806     0.9475     0.9475    -0.0000
 43 H      0.8129     1.0000     0.1871     0.9631     0.9631     0.0000
 44 H      0.8133     1.0000     0.1867     0.9591     0.9591    -0.0000
 45 H      0.8352     1.0000     0.1648     0.9507     0.9507    -0.0000
 46 H      0.8476     1.0000     0.1524     0.9571     0.9571    -0.0000
 47 H      0.8452     1.0000     0.1548     0.9536     0.9536    -0.0000
 48 H      0.8432     1.0000     0.1568     0.9543     0.9543    -0.0000
 49 H      0.8447     1.0000     0.1553     0.9578     0.9578    -0.0000
 50 H      0.8432     1.0000     0.1568     0.9433     0.9433     0.0000
 51 H      0.8467     1.0000     0.1533     0.9546     0.9546     0.0000
 52 H      0.8327     1.0000     0.1673     0.9410     0.9410    -0.0000
 53 H      0.8472     1.0000     0.1528     0.9547     0.9547     0.0000
 54 H      0.8435     1.0000     0.1565     0.9449     0.9449    -0.0000
 55 H      0.8612     1.0000     0.1388     0.9533     0.9533    -0.0000
 56 H      0.8625     1.0000     0.1375     0.9451     0.9451    -0.0000
 57 H      0.8600     1.0000     0.1400     0.9534     0.9534    -0.0000
 58 H      0.8571     1.0000     0.1429     0.9558     0.9558    -0.0000
 59 H      0.8554     1.0000     0.1446     0.9586     0.9586     0.0000
 60 H      0.8287     1.0000     0.1713     0.9510     0.9510     0.0000
 61 H      0.8219     1.0000     0.1781     0.9533     0.9533    -0.0000
 62 H      0.7988     1.0000     0.2012     0.9510     0.9510    -0.0000
 63 H      0.8556     1.0000     0.1444     0.9558     0.9558    -0.0000
 64 H      0.8520     1.0000     0.1480     0.9564     0.9564    -0.0000
 65 H      0.8558     1.0000     0.1442     0.9536     0.9536    -0.0000
 66 H      0.8509     1.0000     0.1491     0.9627     0.9627    -0.0000
 67 H      0.8583     1.0000     0.1417     0.9507     0.9507     0.0000
 68 H      0.8222     1.0000     0.1778     0.9696     0.9696    -0.0000
 69 H      0.8469     1.0000     0.1531     0.9522     0.9522    -0.0000
 70 H      0.8595     1.0000     0.1405     0.9518     0.9518     0.0000
 71 H      0.8510     1.0000     0.1490     0.9561     0.9561    -0.0000
 72 H      0.8272     1.0000     0.1728     0.9440     0.9440    -0.0000
 73 H      0.8601     1.0000     0.1399     0.9433     0.9433    -0.0000
 74 H      0.8607     1.0000     0.1393     0.9587     0.9587     0.0000
 75 H      0.8489     1.0000     0.1511     0.9515     0.9515    -0.0000
 76 H      0.8652     1.0000     0.1348     0.9540     0.9540    -0.0000

  Mayer bond orders larger than 0.100000
B(  0-C ,  1-C ) :   0.9325 B(  0-C , 26-H ) :   0.9735 B(  0-C , 27-H ) :   0.9780 
B(  0-C , 28-H ) :   0.9673 B(  1-C ,  2-C ) :   0.9355 B(  1-C , 29-H ) :   0.9836 
B(  1-C , 30-H ) :   0.9733 B(  2-C ,  3-C ) :   0.8954 B(  2-C , 31-H ) :   0.9699 
B(  2-C , 32-H ) :   0.9807 B(  3-C ,  4-C ) :   0.8867 B(  3-C , 33-H ) :   0.9862 
B(  3-C , 34-H ) :   0.9835 B(  4-C ,  5-C ) :   0.9193 B(  4-C , 35-H ) :   0.9868 
B(  4-C , 36-H ) :   0.9846 B(  5-C ,  6-C ) :   0.9058 B(  5-C , 37-H ) :   0.9908 
B(  5-C , 38-H ) :   0.9833 B(  6-C ,  7-C ) :   0.9243 B(  6-C , 39-H ) :   0.9598 
B(  6-C , 40-H ) :   0.9598 B(  7-C ,  8-P ) :   0.9025 B(  7-C , 41-H ) :   0.9493 
B(  7-C , 42-H ) :   0.9496 B(  8-P ,  9-O ) :   1.8717 B(  8-P , 10-C ) :   0.9466 
B(  8-P , 18-C ) :   0.9146 B( 10-C , 11-C ) :   0.8299 B( 10-C , 43-H ) :   0.9574 
B( 10-C , 44-H ) :   0.9528 B( 11-C , 12-C ) :   0.9430 B( 11-C , 45-H ) :   0.9776 
B( 11-C , 46-H ) :   0.9797 B( 12-C , 13-C ) :   0.8875 B( 12-C , 47-H ) :   0.9804 
B( 12-C , 48-H ) :   0.9756 B( 13-C , 14-C ) :   0.9174 B( 13-C , 49-H ) :   0.9796 
B( 13-C , 50-H ) :   0.9727 B( 14-C , 15-C ) :   0.8954 B( 14-C , 51-H ) :   0.9801 
B( 14-C , 52-H ) :   0.9933 B( 15-C , 16-C ) :   0.9198 B( 15-C , 53-H ) :   0.9834 
B( 15-C , 54-H ) :   0.9817 B( 16-C , 17-C ) :   0.9368 B( 16-C , 55-H ) :   0.9804 
B( 16-C , 56-H ) :   0.9699 B( 17-C , 57-H ) :   0.9655 B( 17-C , 58-H ) :   0.9729 
B( 17-C , 59-H ) :   0.9773 B( 18-C , 19-C ) :   0.8685 B( 18-C , 60-H ) :   0.9528 
B( 18-C , 61-H ) :   0.9420 B( 19-C , 20-C ) :   0.9140 B( 19-C , 62-H ) :   0.9699 
B( 19-C , 63-H ) :   0.9723 B( 20-C , 21-C ) :   0.9358 B( 20-C , 64-H ) :   0.9838 
B( 20-C , 65-H ) :   0.9885 B( 21-C , 22-C ) :   0.8773 B( 21-C , 66-H ) :   0.9808 
B( 21-C , 67-H ) :   0.9960 B( 22-C , 23-C ) :   0.8830 B( 22-C , 68-H ) :   0.9592 
B( 22-C , 69-H ) :   0.9742 B( 23-C , 24-C ) :   0.9149 B( 23-C , 70-H ) :   0.9854 
B( 23-C , 71-H ) :   0.9842 B( 24-C , 25-C ) :   0.9414 B( 24-C , 72-H ) :   0.9664 
B( 24-C , 73-H ) :   0.9806 B( 25-C , 74-H ) :   0.9783 B( 25-C , 75-H ) :   0.9739 
B( 25-C , 76-H ) :   0.9765 

-------
TIMINGS
-------

Total SCF time: 0 days 0 hours 3 min 33 sec 

Total time                  ....     213.005 sec
Sum of individual times     ....     213.216 sec  (100.1%)

SCF preparation             ....       0.506 sec  (  0.2%)
Fock matrix formation       ....     203.683 sec  ( 95.6%)
  Startup                   ....       0.256 sec  (  0.1% of F)
  Split-RI-J                ....      15.904 sec  (  7.8% of F)
  Chain of spheres X        ....     152.233 sec  ( 74.7% of F)
  XC integration            ....      34.716 sec  ( 17.0% of F)
    Basis function eval.    ....       5.061 sec  ( 14.6% of XC)
    Density eval.           ....      14.315 sec  ( 41.2% of XC)
    XC-Functional eval.     ....       0.631 sec  (  1.8% of XC)
    XC-Potential eval.      ....      13.324 sec  ( 38.4% of XC)
Diagonalization             ....       0.000 sec  (  0.0%)
Density matrix formation    ....       0.709 sec  (  0.3%)
Total Energy calculation    ....       0.214 sec  (  0.1%)
Population analysis         ....       0.538 sec  (  0.3%)
Orbital Transformation      ....       1.125 sec  (  0.5%)
Orbital Orthonormalization  ....       0.000 sec  (  0.0%)
DIIS solution               ....       5.134 sec  (  2.4%)
SOSCF solution              ....       1.307 sec  (  0.6%)
Finished LeanSCF after 213.1 sec

Maximum memory used throughout the entire LEANSCF-calculation: 198.7 MB


-------------------------------------------------------------------------------
                          DFT DISPERSION CORRECTION                            
                                                                               
                              DFTD3 V3.1  Rev 1                                
                              USING zero damping                               
-------------------------------------------------------------------------------
The M062X functional is recognized
Active option DFTDOPT                   ...         3   

molecular C6(AA) [au] = 43082.351113 


            DFT-D V3
 parameters
 s6 scaling factor         :     1.0000 
 rs6 scaling factor        :     1.6190 
 s8 scaling factor         :     0.0000 
 rs8 scaling factor        :     1.0000 
 Damping factor alpha6     :    14.0000 
 Damping factor alpha8     :    16.0000 
 ad hoc parameters k1-k3   :    16.0000     1.3333    -4.0000 

 Edisp/kcal,au: -3.867082276190  -0.006162587217 
 E6   /kcal   :  -3.867082276 
 E8   /kcal   :  -0.000000000 
 % E8         :   0.000000000 

-------------------------   ----------------
Dispersion correction           -0.006162587
-------------------------   ----------------


-------------------------   --------------------
FINAL SINGLE POINT ENERGY     -1361.775178744013
-------------------------   --------------------



           ************************************************************
           *        Program running with 6 parallel MPI-processes     *
           *              working on a common directory               *
           ************************************************************

------------------------------------------------------------------------------
                              ORCA PROPERTY CALCULATIONS
------------------------------------------------------------------------------

GBWName                                 ... data/single_point_PO_M06-2x/20851/20851.gbw
Number of atoms                         ...     77
Number of basis functions               ...   1118
Max core memory                         ...   1024 MB

Electric properties:
Dipole moment                           ... YES
Quadrupole moment                       ...  NO
Static polarizability (Dipole/Dipole)   ...  NO
Static polarizability (Dipole/Quad.)    ...  NO
Static polarizability (Quad./Quad.)     ...  NO
Static polarizability (Velocity)        ...  NO

Atomic electric properties:
Dipole moment                           ...  NO
Quadrupole moment                       ...  NO
Static polarizability                   ...  NO

Choice of electric origin               ... Center of mass
Position of electric origin             ...     0.018882    -0.283826    -0.038032

General magnetic properties:
Magnetizability                         ...  NO

EPR properties:
g-Tensor (aka g-matrix)                 ...  NO
Zero-Field splitting spin-orbit         ...  NO
Zero-field splitting spin-spin          ...  NO
Hyperfine couplings                     ...  NO (   0 nuclei)
Quadrupole couplings                    ...  NO (   0 nuclei)
Contact density                         ...  NO (   0 nuclei)

NMR properties:
Chemical shifts                         ...  NO (   0 nuclei)
Spin-rotation constants                 ...  NO (   0 nuclei)
Spin-spin couplings                     ...  NO (   0 nuclei,    0 pairs)

Choice of magnetic origin               ... GIAO
Position of magnetic origin             ...     0.000000     0.000000     0.000000

Properties with geometric perturbations:
SCF Hessian                             ...  NO
IR spectrum                             ...  NO
VCD spectrum                            ...  NO
X-ray spectroscopy properties:
SCF XES/XAS/RIXS spectra                ...  NO


-------------
DIPOLE MOMENT
-------------

Method             : SCF
Type of density    : Electron Density
Multiplicity       :   1
Irrep              :   0
Energy             : -1361.7690161567954874 Eh
Relativity type    : 
Basis              : AO
                                X                 Y                 Z
Electronic contribution:      2.011819731     -10.591043737      -1.943311416
Nuclear contribution   :     -0.801163746      10.860797212       0.766670342
                        -----------------------------------------
Total Dipole Moment    :      1.210655986       0.269753475      -1.176641074
                        -----------------------------------------
Magnitude (a.u.)       :      1.709660513
Magnitude (Debye)      :      4.345611672



--------------------
Rotational spectrum 
--------------------
 
Rotational constants in cm-1:             0.006514             0.002380             0.001916 
Rotational constants in MHz :           195.281471            71.365266            57.431078 

Dipole components along the rotational axes: 
x,y,z [a.u.] :    -1.255544     0.226069    -1.138175 
x,y,z [Debye]:    -3.191338     0.574622    -2.893011 

 

Dipole moment calculation done in   0.1 sec 

Maximum memory used throughout the entire PROP-calculation: 108.9 MB

--------------------------------
SUGGESTED CITATIONS FOR THIS RUN
--------------------------------

Below you find a list of papers that are relevant to this ORCA run
We neither can nor want to force you to cite these papers, but we appreciate if you do
You receive ORCA, which is the product of decades of hard work by many enthusiastic individuals, for free
The only thing we kindly ask in return is that you cite our papers,
We deeply appreciate it, if you show your appreciation for ORCA by not just citing the generic ORCA reference.

Please note that relegating all ORCA citations to the supporting information does *not* help us.
SI sections are not indexed - citations you put there will not count into any citation statistics
But we need these citations in order to attract the funding resources that allow us to do what we are doing

Therefore, if you are a happy ORCA user, please consider citing a few of the papers listed below in the main body of your paper

In addition to the list printed below, the program has created the file data/single_point_PO_M06-2x/20851/20851.bibtex that contains the list in bibtex format
You can import this file easily into all common literature databanks and citation aid programs


List of essential papers. We consider these as the minimum necessary citations

  1. Neese,F.
     Software update: the ORCA program system, version 5.0
     WIRES Comput. Molec. Sci., 2022 12(1)e1606
     doi.org/10.1002/wcms.1606

List of papers to cite with high priority. The work reported in these papers was absolutely
necessary for this run to complete.
Our perspective: the developers of density functionals and basis sets usually get cited in chemistry papers
Good! But without the algorithms to do something with them, the functionals or basis sets would not do anything.
Hence, in our opinion, the algorithm design and method developments papers are equally worthy of getting cited

  1. Neese,F.
     An improvement of the resolution of the identity approximation for the formation of the Coulomb matrix
     J. Comp. Chem., 2003 24(14)1740-1747
     doi.org/10.1002/jcc.10318
  2. Neese,F.; Wennmohs,F.; Hansen,A.; Becker,U.
     Efficient, approximate and parallel Hartree-Fock and hybrid DFT calculations. A 'chain-of-spheres' algorithm for the Hartree-Fock exchange
     Chem. Phys., 2009 356(1-3)98-109
     doi.org/10.1016/j.chemphys.2008.10.036
  3. Helmich-Paris,B.; de Souza,B.; Neese,F.; Izsák,R.
     An improved chain of spheres for exchange algorithm
     J. Chem. Phys., 2021 155 104109
     doi.org/doi: 10.1063/5.0058766.
  4. Neese,F.
     The SHARK Integral Generation and Digestion System
     J. Comp. Chem., 2022  1-16
     doi.org/10.1002/jcc.26942
  5. Grimme,S.; Antony,J.; Ehrlich,S.; Krieg,H.
     A consistent and accurate ab initio parametrization of density functional dispersion correction (DFT-D) for the 94 elements H-Pu
     J. Chem. Phys., 2010 132 154104-XXXX
     doi.org/10.1063/1.3382344

List of suggested additional citations. These are papers that are important in the 'surrounding' of 
of this run, or papers that preceded the highly important papers. If you like your results we are grateful for a citation.

  1. Izsak,R.; Neese,F.
     An overlap fitted chain of spheres exchange method
     J. Chem. Phys., 2011 135 144105
     doi.org/10.1063/1.3646921
  2. Izsak,R.; Hansen,A.; Neese,F.
     The resolution of identity and chain of spheres approximations for the LPNO-CCSD singles Fock term
     Molec. Phys., 2012 110 2413-2417
     doi.org/10.1080/00268976.2012.687466
  3. Neese,F.
     The ORCA program system
     WIRES Comput. Molec. Sci., 2012 2(1)73-78
     doi.org/10.1002/wcms.81
  4. Izsak,R.; Neese,F.; Klopper,W.
     Robust fitting techniques in the chain of spheres approximation to the Fock exchange: The role of the complementary space
     J. Chem. Phys., 2013 139 
     doi.org/10.1063/1.4819264
  5. Neese,F.
     Software update: the ORCA program system, version 4.0
     WIRES Comput. Molec. Sci., 2018 8(1)1-6
     doi.org/10.1002/wcms.1327
  6. Neese,F.; Wennmohs,F.; Becker,U.; Riplinger,C.
     The ORCA quantum chemistry program package
     J. Chem. Phys., 2020 152 Art. No. L224108
     doi.org/10.1063/5.0004608

List of optional additional citations

  1. Neese,F.
     Approximate second-order SCF convergence for spin unrestricted wavefunctions
     Chem. Phys. Lett., 2000 325(1-3)93-98
     doi.org/10.1016/s0009-2614(00)00662-x

Timings for individual modules:

Sum of individual times          ...      226.090 sec (=   3.768 min)
Startup calculation              ...        8.385 sec (=   0.140 min)   3.7 %
SCF iterations                   ...      217.255 sec (=   3.621 min)  96.1 %
Property calculations            ...        0.450 sec (=   0.008 min)   0.2 %
                             ****ORCA TERMINATED NORMALLY****
TOTAL RUN TIME: 0 days 0 hours 3 minutes 46 seconds 378 msec
