
                                 *****************
                                 * O   R   C   A *
                                 *****************

                                            #,                                       
                                            ###                                      
                                            ####                                     
                                            #####                                    
                                            ######                                   
                                           ########,                                 
                                     ,,################,,,,,                         
                               ,,#################################,,                 
                          ,,##########################################,,             
                       ,#########################################, ''#####,          
                    ,#############################################,,   '####,        
                  ,##################################################,,,,####,       
                ,###########''''           ''''###############################       
              ,#####''   ,,,,##########,,,,          '''####'''          '####       
            ,##' ,,,,###########################,,,                        '##       
           ' ,,###''''                  '''############,,,                           
         ,,##''                                '''############,,,,        ,,,,,,###''
      ,#''                                            '''#######################'''  
     '                                                          ''''####''''         
             ,#######,   #######,   ,#######,      ##                                
            ,#'     '#,  ##    ##  ,#'     '#,    #''#        ,####,   ,####,        
            ##       ##  ##   ,#'  ##            #'  '#       #'       #'  '#        
            ##       ##  #######   ##           ,######,      #####,   #    #        
            '#,     ,#'  ##    ##  '#,     ,#' ,#      #,     #,   #   #,  ,#        
             '#######'   ##     ##  '#######'  #'      '#     '####' # '####'        



                #########################################################
                #                        -***-                          #
                #          Department of theory and spectroscopy        #
                #                                                       #
                #                      Frank Neese                      #
                #                                                       #
                #     Directorship, Architecture, Infrastructure        #
                #                    SHARK, DRIVERS                     #
                #        Core code/Algorithms in most modules           #
                #                                                       #
                #        Max Planck Institute fuer Kohlenforschung      #
                #                Kaiser Wilhelm Platz 1                 #
                #                 D-45470 Muelheim/Ruhr                 #
                #                      Germany                          #
                #                                                       #
                #                  All rights reserved                  #
                #                        -***-                          #
                #########################################################


                         Program Version 6.0.0  -   RELEASE   -


 With contributions from (in alphabetic order):
   Daniel Aravena         : Magnetic Suceptibility
   Michael Atanasov       : Ab Initio Ligand Field Theory (pilot matlab implementation)
   Alexander A. Auer      : GIAO ZORA, VPT2 properties, NMR spectrum
   Ute Becker             : All parallelization in ORCA, NUMFREQ, NUMCALC
   Giovanni Bistoni       : ED, misc. LED, open-shell LED, HFLD
   Martin Brehm           : Molecular dynamics
   Dmytro Bykov           : pre 5.0 version of the SCF Hessian
   Marcos Casanova-Páez   : Triplet and SCS-CIS(D). UHF-(DLPNO)-IP/EA/STEOM-CCSD. UHF-CVS-IP/STEOM-CCSD
   Vijay G. Chilkuri      : MRCI spin determinant printing, contributions to CSF-ICE
   Pauline Colinet        : FMM embedding
   Dipayan Datta          : RHF DLPNO-CCSD density
   Achintya Kumar Dutta   : EOM-CC, STEOM-CC
   Nicolas Foglia         : Exact transition moments, OPA infrastructure, MCD improvements
   Dmitry Ganyushin       : Spin-Orbit,Spin-Spin,Magnetic field MRCI
   Miquel Garcia          : C-PCM and meta-GGA Hessian, CCSD/C-PCM, Gaussian charge scheme
   Tiago L. C. Gouveia    : GS-ROHF, GS-ROCIS
   Yang Guo               : DLPNO-NEVPT2, F12-NEVPT2, CIM, IAO-localization
   Andreas Hansen         : Spin unrestricted coupled pair/coupled cluster methods
   Ingolf Harden          : AUTO-CI MPn and infrastructure 
   Benjamin Helmich-Paris : MC-RPA, TRAH-(SCF,CASSCF), AVAS, COSX integrals, SCF dyn. polar.
   Lee Huntington         : MR-EOM, pCC
   Robert Izsak           : Overlap fitted RIJCOSX, COSX-SCS-MP3, EOM
   Riya Kayal             : Wick's Theorem for AUTO-CI, AUTO-CI UHF-CCSDT
   Emily Kempfer          : AUTO-CI, RHF CISDT and CCSDT
   Christian Kollmar      : KDIIS, OOCD, Brueckner-CCSD(T), CCSD density, CASPT2, CASPT2-K, improved NEVPT2
   Axel Koslowski         : Symmetry handling
   Simone Kossmann        : Meta GGA functionals, TD-DFT gradient, OOMP2, (MP2 Hessian; deprecated post 5.0)
   Lucas Lang             : DCDCAS
   Marvin Lechner         : AUTO-CI (C++ implementation), FIC-MRCC
   Spencer Leger          : CASSCF response
   Dagmar Lenk            : GEPOL surface, SMD, ORCA-2-JSON
   Dimitrios Liakos       : Extrapolation schemes; Compound Job, initial MDCI parallelization
   Dimitrios Manganas     : Further ROCIS development; embedding schemes. LFT, Crystal Embedding
   Dimitrios Pantazis     : SARC Basis sets
   Anastasios Papadopoulos: AUTO-CI, single reference methods and gradients
   Taras Petrenko         : pre 6.0 DFT Hessian and TD-DFT gradient, (ASA, deprecated), ECA, 1-Electron XAS/XES, NRVS
   Peter Pinski           : DLPNO-MP2, DLPNO-MP2 Gradient
   Christoph Reimann      : Effective Core Potentials
   Marius Retegan         : Local ZFS, SOC
   Christoph Riplinger    : Optimizer, TS searches, QM/MM, DLPNO-CCSD(T), (RO)-DLPNO pert. Triples
   Michael Roemelt        : Original ROCIS implementation
   Masaaki Saitow         : Open-shell DLPNO-CCSD energy and density
   Barbara Sandhoefer     : DKH picture change effects
   Kantharuban Sivalingam : CASSCF convergence/infrastructure, NEVPT2 and variants, FIC-MRCI
   Bernardo de Souza      : ESD, SOC TD-DFT
   Georgi Stoychev        : AutoAux, RI-MP2 NMR, DLPNO-MP2 response, X2C
   Van Anh Tran           : RI-MP2 g-tensors
   Willem Van den Heuvel  : Paramagnetic NMR
   Zikuan Wang            : NOTCH, Electric field optimization 
   Frank Wennmohs         : Technical directorship and infrastructure
   Hang Xu                : AUTO-CI-Response properties 


 We gratefully acknowledge several colleagues who have allowed us to
 interface, adapt or use parts of their codes:
   Stefan Grimme, W. Hujo, H. Kruse, P. Pracht,  : VdW corrections, initial TS optimization,
                  C. Bannwarth, S. Ehlert,         DFT functionals, gCP, sTDA/sTD-DF
                  L. Wittmann, M. Mueller
   Ed Valeev, F. Pavosevic, A. Kumar             : LibInt (2-el integral package), F12 methods
   Garnet Chan, S. Sharma, J. Yang, R. Olivares  : DMRG
   Ulf Ekstrom                                   : XCFun DFT Library
   Mihaly Kallay                                 : mrcc  (arbitrary order and MRCC methods)
   Frank Weinhold                                : gennbo (NPA and NBO analysis)
   Simon Mueller                                 : openCOSMO-RS
   Christopher J. Cramer and Donald G. Truhlar   : smd solvation model
   Lars Goerigk                                  : TD-DFT with DH, B97 family of functionals
   V. Asgeirsson, H. Jonsson                     : NEB implementation
   FAccTs GmbH                                   : IRC, NEB, NEB-TS, DLPNO-Multilevel, CI-OPT
                                                   MM, QMMM, 2- and 3-layer-ONIOM, Crystal-QMMM,
                                                   LR-CPCM, SF, NACMEs, symmetry and pop. for TD-DFT,
                                                   nearIR, NL-DFT gradient (VV10), updates on ESD,
                                                   ML-optimized integration grids, MBIS, APM,
                                                   GOAT, DOCKER, SOLVATOR, interface openCOSMO-RS
   S Lehtola, MJT Oliveira, MAL Marques          : LibXC Library
   Liviu Ungur et al                             : ANISO software


 Your calculation uses the libint2 library for the computation of 2-el integrals
 For citations please refer to: http://libint.valeyev.net

 Your ORCA version has been built with support for libXC version: 6.2.2
 For citations please refer to: https://libxc.gitlab.io

 This ORCA versions uses:
   CBLAS   interface :  Fast vector & matrix operations
   LAPACKE interface :  Fast linear algebra routines
   Shared memory     :  Shared parallel matrices


Your calculation utilizes the atom-pairwise dispersion correction
with the zero-damping scheme (D30)


XCFun DFT library Copyright 2009-2010 Ulf Ekstrom and contributors.
See http://admol.org/xcfun for more information.
This is free software; see the source code for copying conditions.
There is ABSOLUTELY NO WARRANTY; not even for MERCHANTABILITY or FITNESS FOR A PARTICULAR PURPOSE.
For details see the documentation.
Scientific users of this library should cite U. Ekstrom, L. Visscher, R. Bast, A. J. Thorvaldsen and K. Ruud;
J.Chem.Theor.Comp. 2010, DOI: 10.1021/ct100117s
XCFun Version 0.99 

Warning: RI is on but no J-basis has been assigned. Assigning Def2/J (nothing to worry about!)
================================================================================

----- Orbital basis set information -----
Your calculation utilizes the basis: def2-TZVP
   F. Weigend and R. Ahlrichs, Phys. Chem. Chem. Phys. 7, 3297 (2005).

----- AuxJ basis set information -----
Your calculation utilizes the auxiliary basis: def2/J
   F. Weigend, Phys. Chem. Chem. Phys. 8, 1057 (2006).

================================================================================
                                        WARNINGS
                       Please study these warnings very carefully!
================================================================================

WARNING: Functional chosen is sensitive to the integration grid.
         DEFGRID3 seems to be a minimum grid for robust results!

================================================================================
                                       INPUT FILE
================================================================================
NAME = data/single_point_PO_M06-2x/82100/82100.inp
|  1> ! RIJCOSX M062X def2-TZVP D3ZERO NormalSCF
|  2> %pal
|  3> nprocs 6
|  4> end
|  5> 
|  6> * xyz 0 1
|  7>   C           4.04056976472763     -1.28295692931974     -0.30191208601129
|  8>   C           2.73320064124288     -0.70599281344493     -0.85221034306975
|  9>   C           1.50114191110407     -1.14898004427261     -0.05081362727670
| 10>   P          -0.04907020846595     -0.52080963120494     -0.81876557746064
| 11>   O          -0.20128792735272     -0.85978660259540     -2.29361474326827
| 12>   C          -0.01722214693784      1.29530112457588     -0.54542752504903
| 13>   C          -0.09281493024601      2.09701210247228     -1.70107442168882
| 14>   C          -0.05729091798259      3.49617439432188     -1.58746829092102
| 15>   C           0.05368135551947      4.09677890033272     -0.32215607469735
| 16>   C           0.12701576466888      3.29797104446482      0.83315798930885
| 17>   C           0.09126489786025      1.89936928637235      0.72345089251828
| 18>   C          -1.42231182379047     -1.17925160622132      0.20001939081212
| 19>   C          -2.55202050513558     -1.63667055129500     -0.50782594927421
| 20>   C          -3.65731694965483     -2.14889379821135      0.18918033128911
| 21>   C          -3.63714770313208     -2.21185411228436      1.59302120399751
| 22>   C          -2.50736136951621     -1.76695453496974      2.30161281620194
| 23>   C          -1.40034680327617     -1.25273814653041      1.60817687813243
| 24>   H           4.02794269781581     -2.39305407274679     -0.31291401611520
| 25>   H           4.21513147213224     -0.96307136403637      0.74709154278746
| 26>   H           4.91191114305620     -0.95174235149610     -0.90264920939224
| 27>   H           2.58623840730424     -1.01080047178890     -1.90982498998789
| 28>   H           2.78225359439600      0.40489472327589     -0.86034294694835
| 29>   H           1.40967164420690     -2.25673761119631     -0.03156794230075
| 30>   H           1.55745604219700     -0.80612363871938      1.00538743512098
| 31>   H          -0.17937867737926      1.59380600729717     -2.67697689266307
| 32>   H          -0.11657308143681      4.12167522838605     -2.49159391680635
| 33>   H           0.08141349782005      5.19378026810888     -0.23316506978198
| 34>   H           0.21044744797845      3.76866163513257      1.82487424827560
| 35>   H           0.14013332482878      1.28309904423243      1.63449540010831
| 36>   H          -2.53283043815969     -1.58857221950748     -1.60790147503074
| 37>   H          -4.53868907399692     -2.50503217075714     -0.36617865557544
| 38>   H          -4.50377936214425     -2.61508623623123      2.13926283915947
| 39>   H          -2.48721458932695     -1.82485573021947      3.40078653688196
| 40>   H          -0.51681909892450     -0.91855812192391      2.17386624872509
| 41> **                         ****END OF INPUT****
================================================================================

                       ****************************
                       * Single Point Calculation *
                       ****************************

---------------------------------
CARTESIAN COORDINATES (ANGSTROEM)
---------------------------------
  C      4.040570   -1.282957   -0.301912
  C      2.733201   -0.705993   -0.852210
  C      1.501142   -1.148980   -0.050814
  P     -0.049070   -0.520810   -0.818766
  O     -0.201288   -0.859787   -2.293615
  C     -0.017222    1.295301   -0.545428
  C     -0.092815    2.097012   -1.701074
  C     -0.057291    3.496174   -1.587468
  C      0.053681    4.096779   -0.322156
  C      0.127016    3.297971    0.833158
  C      0.091265    1.899369    0.723451
  C     -1.422312   -1.179252    0.200019
  C     -2.552021   -1.636671   -0.507826
  C     -3.657317   -2.148894    0.189180
  C     -3.637148   -2.211854    1.593021
  C     -2.507361   -1.766955    2.301613
  C     -1.400347   -1.252738    1.608177
  H      4.027943   -2.393054   -0.312914
  H      4.215131   -0.963071    0.747092
  H      4.911911   -0.951742   -0.902649
  H      2.586238   -1.010800   -1.909825
  H      2.782254    0.404895   -0.860343
  H      1.409672   -2.256738   -0.031568
  H      1.557456   -0.806124    1.005387
  H     -0.179379    1.593806   -2.676977
  H     -0.116573    4.121675   -2.491594
  H      0.081413    5.193780   -0.233165
  H      0.210447    3.768662    1.824874
  H      0.140133    1.283099    1.634495
  H     -2.532830   -1.588572   -1.607901
  H     -4.538689   -2.505032   -0.366179
  H     -4.503779   -2.615086    2.139263
  H     -2.487215   -1.824856    3.400787
  H     -0.516819   -0.918558    2.173866

----------------------------
CARTESIAN COORDINATES (A.U.)
----------------------------
  NO LB      ZA    FRAG     MASS         X           Y           Z
   0 C     6.0000    0    12.011    7.635570   -2.424437   -0.570531
   1 C     6.0000    0    12.011    5.165001   -1.334133   -1.610444
   2 C     6.0000    0    12.011    2.836747   -2.171258   -0.096024
   3 P    15.0000    0    30.974   -0.092729   -0.984188   -1.547243
   4 O     8.0000    0    15.999   -0.380379   -1.624761   -4.334304
   5 C     6.0000    0    12.011   -0.032545    2.447764   -1.030709
   6 C     6.0000    0    12.011   -0.175395    3.962779   -3.214565
   7 C     6.0000    0    12.011   -0.108264    6.606812   -2.999880
   8 C     6.0000    0    12.011    0.101443    7.741790   -0.608787
   9 C     6.0000    0    12.011    0.240025    6.232262    1.574440
  10 C     6.0000    0    12.011    0.172466    3.589288    1.367124
  11 C     6.0000    0    12.011   -2.687780   -2.228463    0.377982
  12 C     6.0000    0    12.011   -4.822620   -3.092859   -0.959652
  13 C     6.0000    0    12.011   -6.911327   -4.060821    0.357499
  14 C     6.0000    0    12.011   -6.873213   -4.179799    3.010374
  15 C     6.0000    0    12.011   -4.738226   -3.339060    4.349418
  16 C     6.0000    0    12.011   -2.646272   -2.367332    3.039014
  17 H     1.0000    0     1.008    7.611709   -4.522217   -0.591322
  18 H     1.0000    0     1.008    7.965444   -1.819941    1.411798
  19 H     1.0000    0     1.008    9.282167   -1.798532   -1.705760
  20 H     1.0000    0     1.008    4.887282   -1.910136   -3.609046
  21 H     1.0000    0     1.008    5.257697    0.765140   -1.625813
  22 H     1.0000    0     1.008    2.663893   -4.264616   -0.059655
  23 H     1.0000    0     1.008    2.943165   -1.523353    1.899907
  24 H     1.0000    0     1.008   -0.338977    3.011857   -5.058753
  25 H     1.0000    0     1.008   -0.220291    7.788837   -4.708430
  26 H     1.0000    0     1.008    0.153849    9.814822   -0.440618
  27 H     1.0000    0     1.008    0.397688    7.121738    3.448513
  28 H     1.0000    0     1.008    0.264814    2.424706    3.088749
  29 H     1.0000    0     1.008   -4.786356   -3.001966   -3.038493
  30 H     1.0000    0     1.008   -8.576879   -4.733825   -0.691977
  31 H     1.0000    0     1.008   -8.510910   -4.941797    4.042621
  32 H     1.0000    0     1.008   -4.700154   -3.448478    6.426555
  33 H     1.0000    0     1.008   -0.976647   -1.735823    4.108012

--------------------------------
INTERNAL COORDINATES (ANGSTROEM)
--------------------------------
 C      0   0   0     0.000000000000     0.00000000     0.00000000
 C      1   0   0     1.531316357834     0.00000000     0.00000000
 C      2   1   0     1.535071039813   112.88557871     0.00000000
 P      3   2   1     1.840517829663   111.08127561   183.78472279
 O      4   3   2     1.520939079306   114.38287756    53.11496938
 C      4   3   2     1.836841383240   105.11487680   290.49168988
 C      6   4   3     1.408536300803   116.08693438   122.59930428
 C      7   6   4     1.404216303612   119.96003649   180.83624531
 C      8   7   6     1.405010897699   120.05242591     0.00000000
 C      9   8   7     1.406492983506   120.07148715   359.88772291
 C     10   9   8     1.403353358675   120.03160732     0.08684463
 C      4   3   2     1.832283051305   106.05795604   177.81428378
 C     12   4   3     1.409439186876   115.98308843   220.92426264
 C     13  12   4     1.403520801447   120.01680234   180.47604890
 C     14  13  12     1.405396739551   120.07351078   359.72534728
 C     15  14  13     1.405864455204   120.05449928   359.73495187
 C     16  15  14     1.403835155641   120.04361256     0.32746492
 H      1   2   3     1.110223469906   111.31298637    59.63629418
 H      1   2   3     1.110498616749   111.41581424   299.77037685
 H      1   2   3     1.108974294363   111.32214647   179.66986596
 H      2   1   3     1.110429803349   110.59985477   238.65348016
 H      2   1   3     1.111999753013   109.96016550   122.10831794
 H      3   2   1     1.111694217487   111.26193828   301.80086680
 H      3   2   1     1.111882404034   111.48635078    61.36146736
 H      7   6   4     1.101406051097   118.10847903     0.85359117
 H      8   7   6     1.101003549359   119.88595707   180.00652608
 H      9   8   7     1.100954345818   120.04776215   180.00681907
 H     10   9   8     1.100913991292   120.07081991   180.21245985
 H     11  10   9     1.100990113176   119.47395431   180.54984690
 H     13  12   4     1.101293725833   118.26312423     1.09556960
 H     14  13  12     1.100942762480   119.86791806   179.96787271
 H     15  14  13     1.100920751993   120.04830610   180.08965573
 H     16  15  14     1.100882059713   120.08643576   180.57818889
 H     17  16  15     1.101045847004   119.35176482   180.71740761

---------------------------
INTERNAL COORDINATES (A.U.)
---------------------------
 C      0   0   0     0.000000000000     0.00000000     0.00000000
 C      1   0   0     2.893768540700     0.00000000     0.00000000
 C      2   1   0     2.900863861360   112.88557871     0.00000000
 P      3   2   1     3.478074642662   111.08127561   183.78472279
 O      4   3   2     2.874158326266   114.38287756    53.11496938
 C      4   3   2     3.471127165776   105.11487680   290.49168988
 C      6   4   3     2.661747858205   116.08693438   122.59930428
 C      7   6   4     2.653584246613   119.96003649   180.83624531
 C      8   7   6     2.655085811825   120.05242591     0.00000000
 C      9   8   7     2.657886548108   120.07148715   359.88772291
 C     10   9   8     2.651953517013   120.03160732     0.08684463
 C      4   3   2     3.462513166793   106.05795604   177.81428378
 C     12   4   3     2.663454065612   115.98308843   220.92426264
 C     13  12   4     2.652269937996   120.01680234   180.47604890
 C     14  13  12     2.655814947257   120.07351078   359.72534728
 C     15  14  13     2.656698801750   120.05449928   359.73495187
 C     16  15  14     2.652863981332   120.04361256     0.32746492
 H      1   2   3     2.098018305574   111.31298637    59.63629418
 H      1   2   3     2.098538257754   111.41581424   299.77037685
 H      1   2   3     2.095657705905   111.32214647   179.66986596
 H      2   1   3     2.098408219273   110.59985477   238.65348016
 H      2   1   3     2.101374994182   109.96016550   122.10831794
 H      3   2   1     2.100797615714   111.26193828   301.80086680
 H      3   2   1     2.101153236750   111.48635078    61.36146736
 H      7   6   4     2.081355798817   118.10847903     0.85359117
 H      8   7   6     2.080595180764   119.88595707   180.00652608
 H      9   8   7     2.080502199546   120.04776215   180.00681907
 H     10   9   8     2.080425940544   120.07081991   180.21245985
 H     11  10   9     2.080569790058   119.47395431   180.54984690
 H     13  12   4     2.081143534831   118.26312423     1.09556960
 H     14  13  12     2.080480310211   119.86791806   179.96787271
 H     15  14  13     2.080438716418   120.04830610   180.08965573
 H     16  15  14     2.080365598604   120.08643576   180.57818889
 H     17  16  15     2.080675111729   119.35176482   180.71740761

---------------------
BASIS SET INFORMATION
---------------------
There are 4 groups of distinct atoms

 Group   1 Type C   : 11s6p2d1f contracted to 5s3p2d1f pattern {62111/411/11/1}
 Group   2 Type P   : 14s9p3d1f contracted to 5s5p2d1f pattern {73211/51111/21/1}
 Group   3 Type O   : 11s6p2d1f contracted to 5s3p2d1f pattern {62111/411/11/1}
 Group   4 Type H   : 5s1p contracted to 3s1p pattern {311/1}

Atom   0C    basis set group =>   1
Atom   1C    basis set group =>   1
Atom   2C    basis set group =>   1
Atom   3P    basis set group =>   2
Atom   4O    basis set group =>   3
Atom   5C    basis set group =>   1
Atom   6C    basis set group =>   1
Atom   7C    basis set group =>   1
Atom   8C    basis set group =>   1
Atom   9C    basis set group =>   1
Atom  10C    basis set group =>   1
Atom  11C    basis set group =>   1
Atom  12C    basis set group =>   1
Atom  13C    basis set group =>   1
Atom  14C    basis set group =>   1
Atom  15C    basis set group =>   1
Atom  16C    basis set group =>   1
Atom  17H    basis set group =>   4
Atom  18H    basis set group =>   4
Atom  19H    basis set group =>   4
Atom  20H    basis set group =>   4
Atom  21H    basis set group =>   4
Atom  22H    basis set group =>   4
Atom  23H    basis set group =>   4
Atom  24H    basis set group =>   4
Atom  25H    basis set group =>   4
Atom  26H    basis set group =>   4
Atom  27H    basis set group =>   4
Atom  28H    basis set group =>   4
Atom  29H    basis set group =>   4
Atom  30H    basis set group =>   4
Atom  31H    basis set group =>   4
Atom  32H    basis set group =>   4
Atom  33H    basis set group =>   4
---------------------------------
AUXILIARY/J BASIS SET INFORMATION
---------------------------------
There are 4 groups of distinct atoms

 Group   1 Type C   : 12s5p4d2f1g contracted to 6s4p3d1f1g pattern {711111/2111/211/2/1}
 Group   2 Type P   : 14s5p5d2f1g contracted to 8s4p3d1f1g pattern {71111111/2111/311/2/1}
 Group   3 Type O   : 12s5p4d2f1g contracted to 6s4p3d1f1g pattern {711111/2111/211/2/1}
 Group   4 Type H   : 5s2p1d contracted to 3s1p1d pattern {311/2/1}

Atom   0C    basis set group =>   1
Atom   1C    basis set group =>   1
Atom   2C    basis set group =>   1
Atom   3P    basis set group =>   2
Atom   4O    basis set group =>   3
Atom   5C    basis set group =>   1
Atom   6C    basis set group =>   1
Atom   7C    basis set group =>   1
Atom   8C    basis set group =>   1
Atom   9C    basis set group =>   1
Atom  10C    basis set group =>   1
Atom  11C    basis set group =>   1
Atom  12C    basis set group =>   1
Atom  13C    basis set group =>   1
Atom  14C    basis set group =>   1
Atom  15C    basis set group =>   1
Atom  16C    basis set group =>   1
Atom  17H    basis set group =>   4
Atom  18H    basis set group =>   4
Atom  19H    basis set group =>   4
Atom  20H    basis set group =>   4
Atom  21H    basis set group =>   4
Atom  22H    basis set group =>   4
Atom  23H    basis set group =>   4
Atom  24H    basis set group =>   4
Atom  25H    basis set group =>   4
Atom  26H    basis set group =>   4
Atom  27H    basis set group =>   4
Atom  28H    basis set group =>   4
Atom  29H    basis set group =>   4
Atom  30H    basis set group =>   4
Atom  31H    basis set group =>   4
Atom  32H    basis set group =>   4
Atom  33H    basis set group =>   4


           ************************************************************
           *        Program running with 6 parallel MPI-processes     *
           *              working on a common directory               *
           ************************************************************
------------------------------------------------------------------------------
                             ORCA STARTUP CALCULATIONS
                           -- RI-GTO INTEGRALS CHOSEN --
------------------------------------------------------------------------------
------------------------------------------------------------------------------
                   ___                                                        
                  /   \      - P O W E R E D   B Y -                         
                 /     \                                                     
                 |  |  |   _    _      __       _____    __    __             
                 |  |  |  | |  | |    /  \     |  _  \  |  |  /  |          
                  \  \/   | |  | |   /    \    | | | |  |  | /  /          
                 / \  \   | |__| |  /  /\  \   | |_| |  |  |/  /          
                |  |  |   |  __  | /  /__\  \  |    /   |      \           
                |  |  |   | |  | | |   __   |  |    \   |  |\   \          
                \     /   | |  | | |  |  |  |  | |\  \  |  | \   \       
                 \___/    |_|  |_| |__|  |__|  |_| \__\ |__|  \__/        
                                                                              
                      - O R C A' S   B I G   F R I E N D -                    
                                      &                                       
                       - I N T E G R A L  F E E D E R -                       
                                                                              
 v1 FN, 2020, v2 2021, v3 2022-2024                                           
------------------------------------------------------------------------------


----------------------
SHARK INTEGRAL PACKAGE
----------------------

Number of atoms                             ...     34
Number of basis functions                   ...    635
Number of shells                            ...    257
Maximum angular momentum                    ...      3
Integral batch strategy                     ... SHARK/LIBINT Hybrid
RI-J (if used) integral strategy            ... SPLIT-RIJ (Revised 2003 algorithm where possible)
Printlevel                                  ...      1
Contraction scheme used                     ... SEGMENTED contraction
Prescreening option                         ... SCHWARTZ
   Thresh                                   ... 1.000e-10
   Tcut                                     ... 1.000e-11
   Tpresel                                  ... 1.000e-11 
Coulomb Range Separation                    ... NOT USED
Exchange Range Separation                   ... NOT USED
Multipole approximations                    ... NOT USED
Finite Nucleus Model                        ... NOT USED
CABS basis                                  ... NOT available
Auxiliary Coulomb fitting basis             ... AVAILABLE
   # of basis functions in Aux-J            ...   1022
   # of shells in Aux-J                     ...    342
   Maximum angular momentum in Aux-J        ...      4
Auxiliary J/K fitting basis                 ... NOT available
Auxiliary Correlation fitting basis         ... NOT available
Auxiliary 'external' fitting basis          ... NOT available

Checking pre-screening integrals            ... done (  0.0 sec) Dimension = 257
Check shell pair data                       ... done (  0.0 sec)
Shell pair information
Shell pair cut-off parameter TPreSel        ...   1.0e-11
Total number of shell pairs                 ...     33153
Shell pairs after pre-screening             ...     24699
Total number of primitive shell pairs       ...    101464
Primitive shell pairs kept                  ...     51028
          la=0 lb=0:   6725 shell pairs
          la=1 lb=0:   7246 shell pairs
          la=1 lb=1:   2010 shell pairs
          la=2 lb=0:   3371 shell pairs
          la=2 lb=1:   1879 shell pairs
          la=2 lb=2:    476 shell pairs
          la=3 lb=0:   1606 shell pairs
          la=3 lb=1:    875 shell pairs
          la=3 lb=2:    410 shell pairs
          la=3 lb=3:    101 shell pairs

Calculating one electron integrals          ... done (  0.0 sec)
Calculating RI/J V-Matrix + Cholesky decomp.... done (  0.1 sec)
Calculating Nuclear repulsion               ... done (  0.0 sec) ENN=   1277.764000464790 Eh

Diagonalization of the overlap matrix:
Smallest eigenvalue                        ... 8.357e-06
Time for diagonalization                   ...    0.082 sec
Threshold for overlap eigenvalues          ... 1.000e-07
Number of eigenvalues below threshold      ... 0
Time for construction of square roots      ...    0.034 sec
Total time needed                          ...    0.121 sec

-------------------
DFT GRID GENERATION
-------------------

General Integration Accuracy     IntAcc      ... 4.388
Radial Grid Type                 RadialGrid  ... OptM3 with GC (2021)
Angular Grid (max. ang.)         AngularGrid ... 4 (Lebedev-302)
Angular grid pruning method      GridPruning ... 4 (adaptive)
Weight generation scheme         WeightScheme... mBecke (2022)
Basis function cutoff            BFCut       ... 1.0000e-10
Integration weight cutoff        WCut        ... 1.0000e-14
Partially contracted basis set               ... off
Rotationally invariant grid construction     ... off
Angular grids for H and He will be reduced by one unit

Total number of grid points                  ...   157108
Total number of batches                      ...     2473
Average number of points per batch           ...       63
Average number of grid points per atom       ...     4621

--------------------
COSX GRID GENERATION
--------------------

GRIDX 1
-------
General Integration Accuracy     IntAcc      ... 3.816
Radial Grid Type                 RadialGrid  ... OptM3 with GC (2021)
Angular Grid (max. ang.)         AngularGrid ... 1 (Lebedev-50)
Angular grid pruning method      GridPruning ... 4 (adaptive)
Weight generation scheme         WeightScheme... mBecke (2022)
Basis function cutoff            BFCut       ... 1.0000e-10
Integration weight cutoff        WCut        ... 1.0000e-14
Partially contracted basis set               ... on
Rotationally invariant grid construction     ... off
Angular grids for H and He will be reduced by one unit

Total number of grid points                  ...    20965
Total number of batches                      ...      182
Average number of points per batch           ...      115
Average number of grid points per atom       ...      617
UseSFitting                                  ... on

GRIDX 2
-------
General Integration Accuracy     IntAcc      ... 4.020
Radial Grid Type                 RadialGrid  ... OptM3 with GC (2021)
Angular Grid (max. ang.)         AngularGrid ... 2 (Lebedev-110)
Angular grid pruning method      GridPruning ... 4 (adaptive)
Weight generation scheme         WeightScheme... mBecke (2022)
Basis function cutoff            BFCut       ... 1.0000e-10
Integration weight cutoff        WCut        ... 1.0000e-14
Partially contracted basis set               ... on
Rotationally invariant grid construction     ... off
Angular grids for H and He will be reduced by one unit

Total number of grid points                  ...    42739
Total number of batches                      ...      349
Average number of points per batch           ...      122
Average number of grid points per atom       ...     1257
UseSFitting                                  ... on

GRIDX 3
-------
General Integration Accuracy     IntAcc      ... 4.338
Radial Grid Type                 RadialGrid  ... OptM3 with GC (2021)
Angular Grid (max. ang.)         AngularGrid ... 3 (Lebedev-194)
Angular grid pruning method      GridPruning ... 4 (adaptive)
Weight generation scheme         WeightScheme... mBecke (2022)
Basis function cutoff            BFCut       ... 1.0000e-10
Integration weight cutoff        WCut        ... 1.0000e-14
Partially contracted basis set               ... on
Rotationally invariant grid construction     ... off
Angular grids for H and He will be reduced by one unit

Total number of grid points                  ...    93757
Total number of batches                      ...      749
Average number of points per batch           ...      125
Average number of grid points per atom       ...     2758
UseSFitting                                  ... on
Initializing property integral containers    ... done (  0.0 sec)

SHARK setup successfully completed in   3.3 seconds

Maximum memory used throughout the entire STARTUP-calculation: 62.2 MB


           ************************************************************
           *        Program running with 6 parallel MPI-processes     *
           *              working on a common directory               *
           ************************************************************
-------------------------------------------------------------------------------
                                 ORCA GUESS
                   Start orbitals & Density for SCF / CASSCF
-------------------------------------------------------------------------------

------------
SCF SETTINGS
------------
Hamiltonian:
 Density Functional     Method          .... DFT(GTOs)
 Exchange Functional    Exchange        .... M062X
 Correlation Functional Correlation     .... M062X
 Gradients option       PostSCFGGA      .... off
 Hybrid DFT is turned on
   Fraction HF Exchange ScalHFX         ....  0.540000
   Scaling of DF-GGA-X  ScalDFX         ....  0.460000
   Scaling of DF-GGA-C  ScalDFC         ....  1.000000
   Scaling of DF-LDA-C  ScalLDAC        ....  1.000000
   Perturbative correction              ....  0.000000
 RI-approximation to the Coulomb term is turned on
   Number of AuxJ basis functions       .... 1022
   RIJ-COSX (HFX calculated with COS-X)).... on


General Settings:
 Integral files         IntName         .... data/single_point_PO_M06-2x/82100/82100
 Hartree-Fock type      HFTyp           .... RHF
 Total Charge           Charge          ....    0
 Multiplicity           Mult            ....    1
 Number of Electrons    NEL             ....  130
 Basis Dimension        Dim             ....  635
 Nuclear Repulsion      ENuc            ....   1277.7640004648 Eh

Convergence Acceleration:
 AO-DIIS                CNVDIIS         .... on
   Start iteration      DIISMaxIt       ....    12
   Startup error        DIISStart       ....  0.200000
   # of expansion vecs  DIISMaxEq       ....     5
   Bias factor          DIISBfac        ....   1.050
   Max. coefficient     DIISMaxC        ....  10.000
 MO-DIIS                CNVKDIIS        .... off
 Trust-Rad. Augm. Hess. CNVTRAH         .... auto
   Auto Start mean grad. ratio tolernc. ....  1.125000
   Auto Start start iteration           ....    50
   Auto Start num. interpolation iter.  ....    10
   Max. Number of Micro iterations      ....    24
   Max. Number of Macro iterations      .... Maxiter - #DIIS iter
   Number of Davidson start vectors     ....     2
   Converg. threshold    (grad. norm)   ....   5.000e-05
   Grad. Scal. Fac. for Micro threshold ....   0.100
   Minimum threshold for Micro iter.    ....   1.000e-02
   NR start threshold (gradient norm)   ....   1.000e-04
   Initial trust radius                 ....   0.400
   Minimum AH scaling param. (alpha)    ....   1.000
   Maximum AH scaling param. (alpha)    .... 1000.000
   Quad. conv. algorithm                .... NR
   White noise on init. David. guess    .... on
   Maximum white noise                  ....   0.010
   Pseudo random numbers                .... off
   Inactive MOs                         .... canonical
   Orbital update algorithm             .... Taylor
   Preconditioner                       .... Diag
   Full preconditioner red. dimension   ....   250
 SOSCF                  CNVSOSCF        .... on
   Start iteration      SOSCFMaxIt      ....   150
   Startup grad/error   SOSCFStart      ....  0.003300
   Hessian update       SOSCFHessUp     .... L-BFGS
 Level Shifting         CNVShift        .... on
   Level shift para.    LevelShift      ....    0.2500
   Turn off err/grad.   ShiftErr        ....    0.0010
 Zerner damping         CNVZerner       .... off
 Static damping         CNVDamp         .... on
   Fraction old density DampFac         ....    0.7000
   Max. Damping (<1)    DampMax         ....    0.9800
   Min. Damping (>=0)   DampMin         ....    0.0000
   Turn off err/grad.   DampErr         ....    0.1000

SCF Procedure:
 Maximum # iterations   MaxIter         ....   125
 SCF integral mode      SCFMode         .... Direct
   Integral package                     .... SHARK and LIBINT hybrid scheme
 Reset frequency        DirectResetFreq ....    20
 Integral Threshold     Thresh          ....  1.000e-10 Eh
 Primitive CutOff       TCut            ....  1.000e-11 Eh

Convergence Tolerance:
 Convergence Check Mode ConvCheckMode   .... Total+1el-Energy
 Convergence forced     ConvForced      .... 0
 Energy Change          TolE            ....  1.000e-06 Eh
 1-El. energy change                    ....  1.000e-03 Eh
 Orbital Gradient       TolG            ....  5.000e-05
 Orbital Rotation angle TolX            ....  5.000e-05
 DIIS Error             TolErr          ....  1.000e-05

------------------------------
INITIAL GUESS: MODEL POTENTIAL
------------------------------
Loading Hartree-Fock densities                     ... done
Calculating cut-offs                               ... done
Initializing the effective Hamiltonian             ... done
Setting up the integral package (SHARK)            ... done
Starting the Coulomb interaction                   ... done (   0.4 sec)
Making the grid                                    ... done (   0.2 sec)
Mapping shells                                     ... done
Starting the XC term evaluation                    ... done (   0.3 sec)
  promolecular density results
     # of electrons  =    129.995965588
     EX              =   -112.333753930
     EC              =     -4.377644757
     EX+EC           =   -116.711398687
Transforming the Hamiltonian                       ... done (   0.0 sec)
Diagonalizing the Hamiltonian                      ... done (   0.1 sec)
Back transforming the eigenvectors                 ... done (   0.0 sec)
Now organizing SCF variables                       ... done
                      ------------------
                      INITIAL GUESS DONE (   1.1 sec)
                      ------------------
             **** ENERGY FILE WAS UPDATED (data/single_point_PO_M06-2x/82100/82100.en.tmp) ****
Finished Guess after   1.3 sec
Maximum memory used throughout the entire GUESS-calculation: 44.2 MB


           ************************************************************
           *        Program running with 6 parallel MPI-processes     *
           *              working on a common directory               *
           ************************************************************

-------------------------------------------------------------------------------------------
                                      ORCA LEAN-SCF
                              memory conserving SCF solver
-------------------------------------------------------------------------------------------

----------------------------------------D-I-I-S--------------------------------------------
Iteration    Energy (Eh)           Delta-E    RMSDP     MaxDP     DIISErr   Damp  Time(sec)
-------------------------------------------------------------------------------------------
               ***  Starting incremental Fock matrix formation  ***
    1    -997.8779859793426112     0.00e+00  1.50e-03  1.02e-01  3.62e-01  0.700  12.3
    2    -998.1055418588953216    -2.28e-01  1.23e-03  9.69e-02  1.57e-01  0.700   7.2
                               ***Turning on AO-DIIS***
    3    -998.2073097293346109    -1.02e-01  6.84e-04  1.99e-02  4.61e-02  0.700   7.1
    4    -998.2681784087776578    -6.09e-02  1.55e-03  5.42e-02  3.34e-02  0.000   6.3
    5    -998.3997878679956557    -1.32e-01  1.47e-04  1.71e-02  6.68e-03  0.000   6.8
                              *** Initializing SOSCF ***
---------------------------------------S-O-S-C-F--------------------------------------
Iteration    Energy (Eh)           Delta-E    RMSDP     MaxDP     MaxGrad    Time(sec)
--------------------------------------------------------------------------------------
    6    -998.4001512959762294    -3.63e-04  4.92e-05  5.43e-03  1.56e-03     6.0
               *** Restarting incremental Fock matrix formation ***
    7    -998.4000431267431850     1.08e-04  7.30e-05  2.64e-03  1.96e-04    11.7
    8    -998.4000438203665908    -6.94e-07  2.17e-05  6.89e-04  2.70e-04     8.5
                 **** Energy Check signals convergence ****

               *****************************************************
               *                     SUCCESS                       *
               *           SCF CONVERGED AFTER   8 CYCLES          *
               *****************************************************

Recomputing exchange energy using gridx3       ... done (   17.271 sec)
Old exchange energy                            :    -61.888971377 Eh
New exchange energy                            :    -61.888909176 Eh
Exchange energy change after final integration :      0.000062201 Eh
Total energy after final integration           :   -998.399981620 Eh
             **** ENERGY FILE WAS UPDATED (data/single_point_PO_M06-2x/82100/82100.en.tmp) ****

----------------
TOTAL SCF ENERGY
----------------

Total Energy       :       -998.39998161952985 Eh          -27167.84469 eV

Components:
Nuclear Repulsion  :       1277.76400046478966 Eh           34769.72611 eV
Electronic Energy  :      -2276.16404428515580 Eh          -61937.57249 eV
One Electron Energy:      -3899.26810264622327 Eh         -106104.47932 eV
Two Electron Energy:       1623.10405836106725 Eh           44166.90683 eV

Virial components:
Potential Energy   :      -1991.81643777825184 Eh          -54200.08075 eV
Kinetic Energy     :        993.41645615872199 Eh           27032.23606 eV
Virial Ratio       :          2.00501655215183

DFT components:
N(Alpha)           :       65.000043136538 electrons
N(Beta)            :       65.000043136538 electrons
N(Total)           :      130.000086273076 electrons
E(XC)              :      -57.392460386505 Eh       

---------------
SCF CONVERGENCE
---------------

  Last Energy change         ...    6.9362e-07  Tolerance :   1.0000e-06
  Last MAX-Density change    ...    6.8891e-04  Tolerance :   1.0000e-05
  Last RMS-Density change    ...    2.1742e-05  Tolerance :   1.0000e-06
  Last DIIS Error            ...    1.5606e-03  Tolerance :   1.0000e-05
  Last Orbital Gradient      ...    2.6982e-04  Tolerance :   5.0000e-05
  Last Orbital Rotation      ...    3.8093e-04  Tolerance :   5.0000e-05


----------------
ORBITAL ENERGIES
----------------

  NO   OCC          E(Eh)            E(eV) 
   0   2.0000     -78.092272     -2124.9988 
   1   2.0000     -19.566114      -532.4210 
   2   2.0000     -10.565421      -287.4997 
   3   2.0000     -10.563277      -287.4414 
   4   2.0000     -10.560922      -287.3773 
   5   2.0000     -10.559827      -287.3475 
   6   2.0000     -10.559535      -287.3396 
   7   2.0000     -10.558712      -287.3172 
   8   2.0000     -10.558406      -287.3088 
   9   2.0000     -10.557345      -287.2800 
  10   2.0000     -10.556748      -287.2637 
  11   2.0000     -10.556483      -287.2565 
  12   2.0000     -10.555954      -287.2421 
  13   2.0000     -10.554746      -287.2092 
  14   2.0000     -10.551011      -287.1076 
  15   2.0000     -10.543683      -286.9082 
  16   2.0000     -10.533255      -286.6244 
  17   2.0000      -6.898863      -187.7276 
  18   2.0000      -5.016037      -136.4933 
  19   2.0000      -5.015744      -136.4853 
  20   2.0000      -5.014265      -136.4451 
  21   2.0000      -1.060811       -28.8661 
  22   2.0000      -0.965048       -26.2603 
  23   2.0000      -0.961892       -26.1744 
  24   2.0000      -0.893073       -24.3017 
  25   2.0000      -0.859811       -23.3967 
  26   2.0000      -0.849495       -23.1159 
  27   2.0000      -0.847657       -23.0659 
  28   2.0000      -0.845294       -23.0016 
  29   2.0000      -0.790657       -21.5149 
  30   2.0000      -0.717840       -19.5334 
  31   2.0000      -0.697474       -18.9792 
  32   2.0000      -0.692921       -18.8553 
  33   2.0000      -0.685349       -18.6493 
  34   2.0000      -0.673581       -18.3291 
  35   2.0000      -0.630495       -17.1566 
  36   2.0000      -0.598336       -16.2815 
  37   2.0000      -0.581507       -15.8236 
  38   2.0000      -0.542335       -14.7577 
  39   2.0000      -0.530455       -14.4344 
  40   2.0000      -0.528591       -14.3837 
  41   2.0000      -0.524233       -14.2651 
  42   2.0000      -0.522393       -14.2150 
  43   2.0000      -0.499809       -13.6005 
  44   2.0000      -0.495938       -13.4952 
  45   2.0000      -0.494322       -13.4512 
  46   2.0000      -0.491480       -13.3738 
  47   2.0000      -0.478821       -13.0294 
  48   2.0000      -0.459794       -12.5116 
  49   2.0000      -0.450301       -12.2533 
  50   2.0000      -0.446061       -12.1379 
  51   2.0000      -0.441986       -12.0271 
  52   2.0000      -0.423239       -11.5169 
  53   2.0000      -0.411047       -11.1852 
  54   2.0000      -0.408208       -11.1079 
  55   2.0000      -0.404600       -11.0097 
  56   2.0000      -0.403109       -10.9692 
  57   2.0000      -0.398313       -10.8387 
  58   2.0000      -0.391322       -10.6484 
  59   2.0000      -0.336681        -9.1616 
  60   2.0000      -0.333657        -9.0793 
  61   2.0000      -0.319761        -8.7011 
  62   2.0000      -0.318033        -8.6541 
  63   2.0000      -0.314997        -8.5715 
  64   2.0000      -0.310525        -8.4498 
  65   0.0000      -0.014991        -0.4079 
  66   0.0000       0.002846         0.0774 
  67   0.0000       0.008514         0.2317 
  68   0.0000       0.013561         0.3690 
  69   0.0000       0.053419         1.4536 
  70   0.0000       0.073784         2.0078 
  71   0.0000       0.084054         2.2872 
  72   0.0000       0.086956         2.3662 
  73   0.0000       0.090468         2.4618 
  74   0.0000       0.104586         2.8459 
  75   0.0000       0.109789         2.9875 
*Only the first 10 virtual orbitals were printed.

                    ********************************
                    * MULLIKEN POPULATION ANALYSIS *
                    ********************************

-----------------------
MULLIKEN ATOMIC CHARGES
-----------------------
   0 C :   -0.423419
   1 C :   -0.256621
   2 C :   -0.402716
   3 P :    0.643491
   4 O :   -0.609083
   5 C :   -0.100880
   6 C :   -0.129712
   7 C :   -0.140041
   8 C :   -0.134245
   9 C :   -0.168636
  10 C :   -0.152770
  11 C :   -0.012499
  12 C :   -0.161164
  13 C :   -0.133092
  14 C :   -0.138033
  15 C :   -0.166852
  16 C :   -0.186960
  17 H :    0.140406
  18 H :    0.134674
  19 H :    0.147508
  20 H :    0.173217
  21 H :    0.150776
  22 H :    0.179418
  23 H :    0.161825
  24 H :    0.198099
  25 H :    0.149868
  26 H :    0.148083
  27 H :    0.146384
  28 H :    0.141694
  29 H :    0.193066
  30 H :    0.150154
  31 H :    0.149038
  32 H :    0.146428
  33 H :    0.162595
Sum of atomic charges:   -0.0000000

--------------------------------
MULLIKEN REDUCED ORBITAL CHARGES
--------------------------------
  0 C s       :     3.315295  s :     3.315295
      pz      :     1.045919  p :     3.051105
      px      :     0.960863
      py      :     1.044323
      dz2     :     0.014702  d :     0.053791
      dxz     :     0.012158
      dyz     :     0.002671
      dx2y2   :     0.017391
      dxy     :     0.006869
      f0      :     0.000412  f :     0.003228
      f+1     :     0.000506
      f-1     :     0.000391
      f+2     :     0.000396
      f-2     :     0.000325
      f+3     :     0.000532
      f-3     :     0.000666

  1 C s       :     3.272672  s :     3.272672
      pz      :     0.997959  p :     2.888785
      px      :     0.866070
      py      :     1.024755
      dz2     :     0.027622  d :     0.090057
      dxz     :     0.016490
      dyz     :     0.004386
      dx2y2   :     0.028785
      dxy     :     0.012775
      f0      :     0.000482  f :     0.005107
      f+1     :     0.001153
      f-1     :     0.000439
      f+2     :     0.000601
      f-2     :     0.000628
      f+3     :     0.000976
      f-3     :     0.000828

  2 C s       :     3.245545  s :     3.245545
      pz      :     1.005403  p :     3.083363
      px      :     0.987307
      py      :     1.090653
      dz2     :     0.023772  d :     0.070159
      dxz     :     0.009459
      dyz     :     0.005457
      dx2y2   :     0.019015
      dxy     :     0.012457
      f0      :     0.000419  f :     0.003649
      f+1     :     0.000761
      f-1     :     0.000399
      f+2     :     0.000466
      f-2     :     0.000424
      f+3     :     0.000583
      f-3     :     0.000597

  3 P s       :     5.303098  s :     5.303098
      pz      :     2.618921  p :     8.294075
      px      :     2.863420
      py      :     2.811734
      dz2     :     0.119600  d :     0.693846
      dxz     :     0.224669
      dyz     :     0.162671
      dx2y2   :     0.113269
      dxy     :     0.073637
      f0      :     0.010998  f :     0.065489
      f+1     :     0.015884
      f-1     :     0.014425
      f+2     :     0.006681
      f-2     :     0.007671
      f+3     :     0.006364
      f-3     :     0.003466

  4 O s       :     3.882471  s :     3.882471
      pz      :     1.385853  p :     4.700812
      px      :     1.659778
      py      :     1.655182
      dz2     :     0.009343  d :     0.024551
      dxz     :     0.006814
      dyz     :     0.007284
      dx2y2   :     0.000536
      dxy     :     0.000574
      f0      :     0.000470  f :     0.001249
      f+1     :     0.000310
      f-1     :     0.000354
      f+2     :     0.000054
      f-2     :     0.000055
      f+3     :     0.000003
      f-3     :     0.000003

  5 C s       :     3.244936  s :     3.244936
      pz      :     0.854403  p :     2.775862
      px      :     0.977924
      py      :     0.943534
      dz2     :     0.018183  d :     0.073004
      dxz     :     0.022075
      dyz     :     0.012294
      dx2y2   :     0.010985
      dxy     :     0.009468
      f0      :     0.001585  f :     0.007078
      f+1     :     0.001107
      f-1     :     0.001013
      f+2     :     0.001076
      f-2     :     0.000859
      f+3     :     0.000698
      f-3     :     0.000740

  6 C s       :     3.199857  s :     3.199857
      pz      :     1.014031  p :     2.860792
      px      :     0.921665
      py      :     0.925096
      dz2     :     0.012068  d :     0.062603
      dxz     :     0.007851
      dyz     :     0.018416
      dx2y2   :     0.005536
      dxy     :     0.018733
      f0      :     0.001181  f :     0.006460
      f+1     :     0.000480
      f-1     :     0.000987
      f+2     :     0.001227
      f-2     :     0.000492
      f+3     :     0.001296
      f-3     :     0.000797

  7 C s       :     3.227430  s :     3.227430
      pz      :     0.958335  p :     2.846733
      px      :     0.962988
      py      :     0.925409
      dz2     :     0.012165  d :     0.059622
      dxz     :     0.009956
      dyz     :     0.015182
      dx2y2   :     0.007304
      dxy     :     0.015016
      f0      :     0.001202  f :     0.006257
      f+1     :     0.000774
      f-1     :     0.000948
      f+2     :     0.001176
      f-2     :     0.000274
      f+3     :     0.001204
      f-3     :     0.000679

  8 C s       :     3.226937  s :     3.226937
      pz      :     0.882097  p :     2.839604
      px      :     0.950769
      py      :     1.006738
      dz2     :     0.012945  d :     0.061425
      dxz     :     0.020962
      dyz     :     0.014526
      dx2y2   :     0.007947
      dxy     :     0.005045
      f0      :     0.001436  f :     0.006279
      f+1     :     0.001012
      f-1     :     0.000995
      f+2     :     0.000853
      f-2     :     0.000869
      f+3     :     0.000376
      f-3     :     0.000738

  9 C s       :     3.237230  s :     3.237230
      pz      :     0.977129  p :     2.865387
      px      :     0.968980
      py      :     0.919278
      dz2     :     0.012530  d :     0.059724
      dxz     :     0.007864
      dyz     :     0.014779
      dx2y2   :     0.006752
      dxy     :     0.017799
      f0      :     0.001195  f :     0.006295
      f+1     :     0.000547
      f-1     :     0.000909
      f+2     :     0.001158
      f-2     :     0.000459
      f+3     :     0.001309
      f-3     :     0.000718

 10 C s       :     3.175834  s :     3.175834
      pz      :     0.929980  p :     2.904206
      px      :     0.960189
      py      :     1.014037
      dz2     :     0.012044  d :     0.066198
      dxz     :     0.010006
      dyz     :     0.020272
      dx2y2   :     0.006666
      dxy     :     0.017209
      f0      :     0.001233  f :     0.006531
      f+1     :     0.000735
      f-1     :     0.001001
      f+2     :     0.001230
      f-2     :     0.000302
      f+3     :     0.001281
      f-3     :     0.000749

 11 C s       :     3.222735  s :     3.222735
      pz      :     0.841403  p :     2.709215
      px      :     0.922017
      py      :     0.945796
      dz2     :     0.013646  d :     0.073530
      dxz     :     0.020101
      dyz     :     0.019643
      dx2y2   :     0.010267
      dxy     :     0.009873
      f0      :     0.000913  f :     0.007019
      f+1     :     0.001875
      f-1     :     0.001341
      f+2     :     0.000529
      f-2     :     0.000590
      f+3     :     0.000969
      f-3     :     0.000802

 12 C s       :     3.217206  s :     3.217206
      pz      :     1.055054  p :     2.874551
      px      :     0.902215
      py      :     0.917282
      dz2     :     0.016162  d :     0.062924
      dxz     :     0.011722
      dyz     :     0.006452
      dx2y2   :     0.015191
      dxy     :     0.013397
      f0      :     0.000803  f :     0.006483
      f+1     :     0.001402
      f-1     :     0.000344
      f+2     :     0.000870
      f-2     :     0.000863
      f+3     :     0.001270
      f-3     :     0.000930

 13 C s       :     3.224442  s :     3.224442
      pz      :     0.901779  p :     2.842680
      px      :     0.976575
      py      :     0.964325
      dz2     :     0.011570  d :     0.059708
      dxz     :     0.015531
      dyz     :     0.016061
      dx2y2   :     0.008513
      dxy     :     0.008033
      f0      :     0.000866  f :     0.006262
      f+1     :     0.001563
      f-1     :     0.001216
      f+2     :     0.000554
      f-2     :     0.000536
      f+3     :     0.000810
      f-3     :     0.000718

 14 C s       :     3.227991  s :     3.227991
      pz      :     0.914651  p :     2.842299
      px      :     0.971824
      py      :     0.955824
      dz2     :     0.012042  d :     0.061468
      dxz     :     0.015874
      dyz     :     0.017324
      dx2y2   :     0.007722
      dxy     :     0.008507
      f0      :     0.000870  f :     0.006275
      f+1     :     0.001583
      f-1     :     0.001183
      f+2     :     0.000518
      f-2     :     0.000593
      f+3     :     0.000761
      f-3     :     0.000767

 15 C s       :     3.238409  s :     3.238409
      pz      :     0.998383  p :     2.861567
      px      :     0.904808
      py      :     0.958376
      dz2     :     0.013505  d :     0.060551
      dxz     :     0.012982
      dyz     :     0.006267
      dx2y2   :     0.014469
      dxy     :     0.013328
      f0      :     0.000803  f :     0.006324
      f+1     :     0.001300
      f-1     :     0.000333
      f+2     :     0.000886
      f-2     :     0.000867
      f+3     :     0.001266
      f-3     :     0.000870

 16 C s       :     3.162921  s :     3.162921
      pz      :     0.894063  p :     2.951044
      px      :     1.052267
      py      :     1.004714
      dz2     :     0.013195  d :     0.066480
      dxz     :     0.018821
      dyz     :     0.018037
      dx2y2   :     0.008978
      dxy     :     0.007448
      f0      :     0.000879  f :     0.006515
      f+1     :     0.001679
      f-1     :     0.001243
      f+2     :     0.000584
      f-2     :     0.000527
      f+3     :     0.000860
      f-3     :     0.000743

 17 H s       :     0.841291  s :     0.841291
      pz      :     0.003503  p :     0.018303
      px      :     0.003431
      py      :     0.011370

 18 H s       :     0.847113  s :     0.847113
      pz      :     0.010402  p :     0.018213
      px      :     0.003766
      py      :     0.004046

 19 H s       :     0.833896  s :     0.833896
      pz      :     0.005617  p :     0.018596
      px      :     0.008843
      py      :     0.004137

 20 H s       :     0.807632  s :     0.807632
      pz      :     0.011794  p :     0.019151
      px      :     0.003532
      py      :     0.003825

 21 H s       :     0.830545  s :     0.830545
      pz      :     0.003469  p :     0.018679
      px      :     0.003236
      py      :     0.011975

 22 H s       :     0.800957  s :     0.800957
      pz      :     0.003530  p :     0.019625
      px      :     0.003925
      py      :     0.012170

 23 H s       :     0.818575  s :     0.818575
      pz      :     0.011346  p :     0.019600
      px      :     0.003998
      py      :     0.004256

 24 H s       :     0.781068  s :     0.781068
      pz      :     0.011344  p :     0.020834
      px      :     0.003546
      py      :     0.005945

 25 H s       :     0.830411  s :     0.830411
      pz      :     0.009850  p :     0.019721
      px      :     0.003801
      py      :     0.006070

 26 H s       :     0.832284  s :     0.832284
      pz      :     0.002730  p :     0.019632
      px      :     0.003742
      py      :     0.013161

 27 H s       :     0.833916  s :     0.833916
      pz      :     0.011204  p :     0.019700
      px      :     0.003880
      py      :     0.004615

 28 H s       :     0.838410  s :     0.838410
      pz      :     0.010001  p :     0.019896
      px      :     0.003844
      py      :     0.006050

 29 H s       :     0.786222  s :     0.786222
      pz      :     0.014371  p :     0.020712
      px      :     0.002936
      py      :     0.003405

 30 H s       :     0.830110  s :     0.830110
      pz      :     0.005378  p :     0.019735
      px      :     0.009629
      py      :     0.004729

 31 H s       :     0.831321  s :     0.831321
      pz      :     0.005258  p :     0.019641
      px      :     0.009387
      py      :     0.004996

 32 H s       :     0.833868  s :     0.833868
      pz      :     0.013176  p :     0.019705
      px      :     0.002840
      py      :     0.003689

 33 H s       :     0.817540  s :     0.817540
      pz      :     0.005514  p :     0.019865
      px      :     0.009735
      py      :     0.004617



                     *******************************
                     * LOEWDIN POPULATION ANALYSIS *
                     *******************************

----------------------
LOEWDIN ATOMIC CHARGES
----------------------
   0 C :   -0.322638
   1 C :   -0.316073
   2 C :   -0.364309
   3 P :    0.652431
   4 O :   -0.315853
   5 C :   -0.232353
   6 C :   -0.118580
   7 C :   -0.136562
   8 C :   -0.133349
   9 C :   -0.141294
  10 C :   -0.134991
  11 C :   -0.230944
  12 C :   -0.114532
  13 C :   -0.135253
  14 C :   -0.132362
  15 C :   -0.141331
  16 C :   -0.139239
  17 H :    0.123400
  18 H :    0.121215
  19 H :    0.124715
  20 H :    0.149320
  21 H :    0.142848
  22 H :    0.149281
  23 H :    0.138746
  24 H :    0.162413
  25 H :    0.149368
  26 H :    0.148441
  27 H :    0.148320
  28 H :    0.145831
  29 H :    0.161975
  30 H :    0.149732
  31 H :    0.148724
  32 H :    0.148503
  33 H :    0.144399

-------------------------------
LOEWDIN REDUCED ORBITAL CHARGES
-------------------------------
  0 C s       :     2.845322  s :     2.845322
      pz      :     1.071488  p :     3.191453
      px      :     1.048248
      py      :     1.071717
      dz2     :     0.061984  d :     0.261688
      dxz     :     0.062530
      dyz     :     0.016060
      dx2y2   :     0.081477
      dxy     :     0.039638
      f0      :     0.002529  f :     0.024175
      f+1     :     0.003164
      f-1     :     0.003142
      f+2     :     0.003002
      f-2     :     0.004169
      f+3     :     0.003615
      f-3     :     0.004554

  1 C s       :     2.790724  s :     2.790724
      pz      :     1.038913  p :     3.086769
      px      :     1.013257
      py      :     1.034599
      dz2     :     0.103880  d :     0.400334
      dxz     :     0.082633
      dyz     :     0.025713
      dx2y2   :     0.121004
      dxy     :     0.067103
      f0      :     0.003113  f :     0.038246
      f+1     :     0.007393
      f-1     :     0.003841
      f+2     :     0.004810
      f-2     :     0.006680
      f+3     :     0.006120
      f-3     :     0.006289

  2 C s       :     2.839927  s :     2.839927
      pz      :     1.053387  p :     3.179532
      px      :     1.068695
      py      :     1.057449
      dz2     :     0.088084  d :     0.318296
      dxz     :     0.059396
      dyz     :     0.027223
      dx2y2   :     0.090525
      dxy     :     0.053069
      f0      :     0.002569  f :     0.026555
      f+1     :     0.005019
      f-1     :     0.003337
      f+2     :     0.003369
      f-2     :     0.004401
      f+3     :     0.003367
      f-3     :     0.004493

  3 P s       :     4.652181  s :     4.652181
      pz      :     2.726584  p :     8.285045
      px      :     2.785620
      py      :     2.772841
      dz2     :     0.255811  d :     1.188351
      dxz     :     0.343450
      dyz     :     0.251601
      dx2y2   :     0.204132
      dxy     :     0.133357
      f0      :     0.044480  f :     0.221992
      f+1     :     0.050404
      f-1     :     0.047274
      f+2     :     0.023304
      f-2     :     0.023870
      f+3     :     0.019945
      f-3     :     0.012714

  4 O s       :     3.539249  s :     3.539249
      pz      :     1.532375  p :     4.732919
      px      :     1.599884
      py      :     1.600660
      dz2     :     0.022138  d :     0.041584
      dxz     :     0.008039
      dyz     :     0.010061
      dx2y2   :     0.000694
      dxy     :     0.000651
      f0      :     0.000940  f :     0.002101
      f+1     :     0.000431
      f-1     :     0.000552
      f+2     :     0.000108
      f-2     :     0.000060
      f+3     :     0.000004
      f-3     :     0.000005

  5 C s       :     2.772775  s :     2.772775
      pz      :     1.065105  p :     2.984388
      px      :     0.885327
      py      :     1.033956
      dz2     :     0.141249  d :     0.431502
      dxz     :     0.077873
      dyz     :     0.117418
      dx2y2   :     0.064311
      dxy     :     0.030651
      f0      :     0.012123  f :     0.043688
      f+1     :     0.003588
      f-1     :     0.008469
      f+2     :     0.008287
      f-2     :     0.006870
      f+3     :     0.001789
      f-3     :     0.002561

  6 C s       :     2.776887  s :     2.776887
      pz      :     1.013889  p :     2.921344
      px      :     0.857894
      py      :     1.049561
      dz2     :     0.091972  d :     0.379356
      dxz     :     0.024538
      dyz     :     0.140794
      dx2y2   :     0.057717
      dxy     :     0.064335
      f0      :     0.009378  f :     0.040993
      f+1     :     0.002919
      f-1     :     0.006969
      f+2     :     0.008501
      f-2     :     0.003784
      f+3     :     0.004609
      f-3     :     0.004834

  7 C s       :     2.778226  s :     2.778226
      pz      :     1.016881  p :     2.945495
      px      :     0.884746
      py      :     1.043867
      dz2     :     0.083342  d :     0.372430
      dxz     :     0.031464
      dyz     :     0.156273
      dx2y2   :     0.048915
      dxy     :     0.052435
      f0      :     0.010179  f :     0.040412
      f+1     :     0.004282
      f-1     :     0.006946
      f+2     :     0.007837
      f-2     :     0.002015
      f+3     :     0.004553
      f-3     :     0.004600

  8 C s       :     2.779459  s :     2.779459
      pz      :     1.068355  p :     2.939343
      px      :     0.876337
      py      :     0.994652
      dz2     :     0.134579  d :     0.374107
      dxz     :     0.074986
      dyz     :     0.101112
      dx2y2   :     0.050738
      dxy     :     0.012691
      f0      :     0.011365  f :     0.040440
      f+1     :     0.003628
      f-1     :     0.008089
      f+2     :     0.007209
      f-2     :     0.006938
      f+3     :     0.000585
      f-3     :     0.002626

  9 C s       :     2.777898  s :     2.777898
      pz      :     1.006922  p :     2.949159
      px      :     0.890511
      py      :     1.051726
      dz2     :     0.093796  d :     0.373667
      dxz     :     0.023821
      dyz     :     0.137041
      dx2y2   :     0.055574
      dxy     :     0.063435
      f0      :     0.009445  f :     0.040570
      f+1     :     0.002963
      f-1     :     0.006887
      f+2     :     0.008240
      f-2     :     0.003515
      f+3     :     0.004613
      f-3     :     0.004907

 10 C s       :     2.773857  s :     2.773857
      pz      :     1.008890  p :     2.937355
      px      :     0.884801
      py      :     1.043664
      dz2     :     0.084637  d :     0.382770
      dxz     :     0.033354
      dyz     :     0.158504
      dx2y2   :     0.049589
      dxy     :     0.056685
      f0      :     0.010197  f :     0.041009
      f+1     :     0.004455
      f-1     :     0.006970
      f+2     :     0.007896
      f-2     :     0.002135
      f+3     :     0.004762
      f-3     :     0.004593

 11 C s       :     2.772491  s :     2.772491
      pz      :     1.057908  p :     2.984550
      px      :     1.018727
      py      :     0.907915
      dz2     :     0.107081  d :     0.430281
      dxz     :     0.148119
      dyz     :     0.082076
      dx2y2   :     0.046434
      dxy     :     0.046572
      f0      :     0.006903  f :     0.043622
      f+1     :     0.014529
      f-1     :     0.006999
      f+2     :     0.003924
      f-2     :     0.003872
      f+3     :     0.003549
      f-3     :     0.003845

 12 C s       :     2.776491  s :     2.776491
      pz      :     1.007868  p :     2.918070
      px      :     1.022993
      py      :     0.887210
      dz2     :     0.119123  d :     0.378975
      dxz     :     0.087377
      dyz     :     0.026728
      dx2y2   :     0.072901
      dxy     :     0.072846
      f0      :     0.003829  f :     0.040995
      f+1     :     0.011839
      f-1     :     0.002321
      f+2     :     0.006730
      f-2     :     0.006704
      f+3     :     0.004184
      f-3     :     0.005389

 13 C s       :     2.778159  s :     2.778159
      pz      :     1.048267  p :     2.944485
      px      :     0.991343
      py      :     0.904875
      dz2     :     0.098120  d :     0.372181
      dxz     :     0.132595
      dyz     :     0.071302
      dx2y2   :     0.035880
      dxy     :     0.034285
      f0      :     0.006857  f :     0.040428
      f+1     :     0.012875
      f-1     :     0.006842
      f+2     :     0.003386
      f-2     :     0.003630
      f+3     :     0.003035
      f-3     :     0.003802

 14 C s       :     2.779456  s :     2.779456
      pz      :     1.051701  p :     2.938431
      px      :     0.991857
      py      :     0.894872
      dz2     :     0.096988  d :     0.374018
      dxz     :     0.133540
      dyz     :     0.072639
      dx2y2   :     0.033395
      dxy     :     0.037457
      f0      :     0.006818  f :     0.040457
      f+1     :     0.013043
      f-1     :     0.006553
      f+2     :     0.003604
      f-2     :     0.003579
      f+3     :     0.002988
      f-3     :     0.003872

 15 C s       :     2.777911  s :     2.777911
      pz      :     0.992871  p :     2.949393
      px      :     1.038793
      py      :     0.917728
      dz2     :     0.118582  d :     0.373461
      dxz     :     0.086396
      dyz     :     0.025786
      dx2y2   :     0.071635
      dxy     :     0.071062
      f0      :     0.003925  f :     0.040567
      f+1     :     0.011587
      f-1     :     0.002257
      f+2     :     0.006681
      f-2     :     0.006661
      f+3     :     0.004096
      f-3     :     0.005359

 16 C s       :     2.774314  s :     2.774314
      pz      :     1.037428  p :     2.940799
      px      :     0.994578
      py      :     0.908793
      dz2     :     0.096583  d :     0.383229
      dxz     :     0.137992
      dyz     :     0.075816
      dx2y2   :     0.038228
      dxy     :     0.034610
      f0      :     0.006763  f :     0.040896
      f+1     :     0.012908
      f-1     :     0.007031
      f+2     :     0.003489
      f-2     :     0.003654
      f+3     :     0.003281
      f-3     :     0.003771

 17 H s       :     0.819046  s :     0.819046
      pz      :     0.012048  p :     0.057554
      px      :     0.011575
      py      :     0.033931

 18 H s       :     0.821356  s :     0.821356
      pz      :     0.031389  p :     0.057429
      px      :     0.012086
      py      :     0.013953

 19 H s       :     0.817491  s :     0.817491
      pz      :     0.018685  p :     0.057793
      px      :     0.025003
      py      :     0.014106

 20 H s       :     0.793633  s :     0.793633
      pz      :     0.031844  p :     0.057047
      px      :     0.011531
      py      :     0.013672

 21 H s       :     0.800977  s :     0.800977
      pz      :     0.012012  p :     0.056176
      px      :     0.011148
      py      :     0.033015

 22 H s       :     0.791371  s :     0.791371
      pz      :     0.011950  p :     0.059348
      px      :     0.012732
      py      :     0.034667

 23 H s       :     0.801990  s :     0.801990
      pz      :     0.031574  p :     0.059263
      px      :     0.013265
      py      :     0.014424

 24 H s       :     0.778555  s :     0.778555
      pz      :     0.030717  p :     0.059033
      px      :     0.011345
      py      :     0.016971

 25 H s       :     0.794761  s :     0.794761
      pz      :     0.026356  p :     0.055871
      px      :     0.011915
      py      :     0.017600

 26 H s       :     0.795787  s :     0.795787
      pz      :     0.010039  p :     0.055771
      px      :     0.011726
      py      :     0.034007

 27 H s       :     0.795801  s :     0.795801
      pz      :     0.029468  p :     0.055879
      px      :     0.012166
      py      :     0.014245

 28 H s       :     0.797806  s :     0.797806
      pz      :     0.026530  p :     0.056363
      px      :     0.012272
      py      :     0.017561

 29 H s       :     0.779334  s :     0.779334
      pz      :     0.037654  p :     0.058692
      px      :     0.009981
      py      :     0.011056

 30 H s       :     0.794374  s :     0.794374
      pz      :     0.016093  p :     0.055894
      px      :     0.025724
      py      :     0.014077

 31 H s       :     0.795489  s :     0.795489
      pz      :     0.015850  p :     0.055787
      px      :     0.025244
      py      :     0.014692

 32 H s       :     0.795586  s :     0.795586
      pz      :     0.033964  p :     0.055911
      px      :     0.010158
      py      :     0.011789

 33 H s       :     0.799238  s :     0.799238
      pz      :     0.016359  p :     0.056362
      px      :     0.025716
      py      :     0.014288



                      *****************************
                      * MAYER POPULATION ANALYSIS *
                      *****************************

  NA   - Mulliken gross atomic population
  ZA   - Total nuclear charge
  QA   - Mulliken gross atomic charge
  VA   - Mayer's total valence
  BVA  - Mayer's bonded valence
  FA   - Mayer's free valence

  ATOM       NA         ZA         QA         VA         BVA        FA
  0 C      6.4234     6.0000    -0.4234     3.8344     3.8344    -0.0000
  1 C      6.2566     6.0000    -0.2566     3.7413     3.7413    -0.0000
  2 C      6.4027     6.0000    -0.4027     3.7191     3.7191    -0.0000
  3 P     14.3565    15.0000     0.6435     4.8908     4.8908    -0.0000
  4 O      8.6091     8.0000    -0.6091     1.9709     1.9709    -0.0000
  5 C      6.1009     6.0000    -0.1009     3.7159     3.7159    -0.0000
  6 C      6.1297     6.0000    -0.1297     3.9058     3.9058    -0.0000
  7 C      6.1400     6.0000    -0.1400     3.9136     3.9136     0.0000
  8 C      6.1342     6.0000    -0.1342     3.9371     3.9371    -0.0000
  9 C      6.1686     6.0000    -0.1686     4.0413     4.0413     0.0000
 10 C      6.1528     6.0000    -0.1528     3.9321     3.9321     0.0000
 11 C      6.0125     6.0000    -0.0125     3.6815     3.6815    -0.0000
 12 C      6.1612     6.0000    -0.1612     3.9689     3.9689    -0.0000
 13 C      6.1331     6.0000    -0.1331     3.9070     3.9070    -0.0000
 14 C      6.1380     6.0000    -0.1380     3.9516     3.9516    -0.0000
 15 C      6.1669     6.0000    -0.1669     4.0453     4.0453    -0.0000
 16 C      6.1870     6.0000    -0.1870     3.9512     3.9512    -0.0000
 17 H      0.8596     1.0000     0.1404     0.9561     0.9561    -0.0000
 18 H      0.8653     1.0000     0.1347     0.9551     0.9551    -0.0000
 19 H      0.8525     1.0000     0.1475     0.9587     0.9587    -0.0000
 20 H      0.8268     1.0000     0.1732     0.9604     0.9604    -0.0000
 21 H      0.8492     1.0000     0.1508     0.9523     0.9523    -0.0000
 22 H      0.8206     1.0000     0.1794     0.9555     0.9555    -0.0000
 23 H      0.8382     1.0000     0.1618     0.9488     0.9488    -0.0000
 24 H      0.8019     1.0000     0.1981     0.9721     0.9721    -0.0000
 25 H      0.8501     1.0000     0.1499     0.9654     0.9654     0.0000
 26 H      0.8519     1.0000     0.1481     0.9633     0.9633    -0.0000
 27 H      0.8536     1.0000     0.1464     0.9658     0.9658    -0.0000
 28 H      0.8583     1.0000     0.1417     0.9717     0.9717     0.0000
 29 H      0.8069     1.0000     0.1931     0.9739     0.9739    -0.0000
 30 H      0.8498     1.0000     0.1502     0.9656     0.9656     0.0000
 31 H      0.8510     1.0000     0.1490     0.9630     0.9630     0.0000
 32 H      0.8536     1.0000     0.1464     0.9666     0.9666    -0.0000
 33 H      0.8374     1.0000     0.1626     0.9558     0.9558    -0.0000

  Mayer bond orders larger than 0.100000
B(  0-C ,  1-C ) :   0.9347 B(  0-C , 17-H ) :   0.9733 B(  0-C , 18-H ) :   0.9742 
B(  0-C , 19-H ) :   0.9793 B(  1-C ,  2-C ) :   0.9200 B(  1-C , 20-H ) :   0.9687 
B(  1-C , 21-H ) :   0.9643 B(  2-C ,  3-P ) :   0.9293 B(  2-C , 22-H ) :   0.9395 
B(  2-C , 23-H ) :   0.9417 B(  3-P ,  4-O ) :   1.9335 B(  3-P ,  5-C ) :   0.9151 
B(  3-P , 11-C ) :   0.8913 B(  5-C ,  6-C ) :   1.3966 B(  5-C , 10-C ) :   1.3492 
B(  6-C ,  7-C ) :   1.4256 B(  6-C , 24-H ) :   0.9082 B(  7-C ,  8-C ) :   1.4402 
B(  7-C , 25-H ) :   0.9474 B(  8-C ,  9-C ) :   1.4361 B(  8-C , 26-H ) :   0.9459 
B(  9-C , 10-C ) :   1.5131 B(  9-C , 27-H ) :   0.9444 B( 10-C , 28-H ) :   0.9152 
B( 11-C , 12-C ) :   1.4235 B( 11-C , 16-C ) :   1.3513 B( 12-C , 13-C ) :   1.4310 
B( 12-C , 29-H ) :   0.9066 B( 13-C , 14-C ) :   1.4386 B( 13-C , 30-H ) :   0.9477 
B( 14-C , 15-C ) :   1.4457 B( 14-C , 31-H ) :   0.9452 B( 15-C , 16-C ) :   1.5140 
B( 15-C , 32-H ) :   0.9443 B( 16-C , 33-H ) :   0.9063 

-------
TIMINGS
-------

Total SCF time: 0 days 0 hours 1 min 23 sec 

Total time                  ....      83.738 sec
Sum of individual times     ....      83.782 sec  (100.1%)

SCF preparation             ....       0.287 sec  (  0.3%)
Fock matrix formation       ....      80.944 sec  ( 96.7%)
  Startup                   ....       0.081 sec  (  0.1% of F)
  Split-RI-J                ....       5.285 sec  (  6.5% of F)
  Chain of spheres X        ....      57.862 sec  ( 71.5% of F)
  XC integration            ....      17.500 sec  ( 21.6% of F)
    Basis function eval.    ....       2.397 sec  ( 13.7% of XC)
    Density eval.           ....       7.019 sec  ( 40.1% of XC)
    XC-Functional eval.     ....       0.329 sec  (  1.9% of XC)
    XC-Potential eval.      ....       6.894 sec  ( 39.4% of XC)
Diagonalization             ....       0.000 sec  (  0.0%)
Density matrix formation    ....       0.212 sec  (  0.3%)
Total Energy calculation    ....       0.076 sec  (  0.1%)
Population analysis         ....       0.162 sec  (  0.2%)
Orbital Transformation      ....       0.348 sec  (  0.4%)
Orbital Orthonormalization  ....       0.000 sec  (  0.0%)
DIIS solution               ....       1.367 sec  (  1.6%)
SOSCF solution              ....       0.386 sec  (  0.5%)
Finished LeanSCF after  83.8 sec

Maximum memory used throughout the entire LEANSCF-calculation: 85.0 MB


-------------------------------------------------------------------------------
                          DFT DISPERSION CORRECTION                            
                                                                               
                              DFTD3 V3.1  Rev 1                                
                              USING zero damping                               
-------------------------------------------------------------------------------
The M062X functional is recognized
Active option DFTDOPT                   ...         3   

molecular C6(AA) [au] = 14044.470492 


            DFT-D V3
 parameters
 s6 scaling factor         :     1.0000 
 rs6 scaling factor        :     1.6190 
 s8 scaling factor         :     0.0000 
 rs8 scaling factor        :     1.0000 
 Damping factor alpha6     :    14.0000 
 Damping factor alpha8     :    16.0000 
 ad hoc parameters k1-k3   :    16.0000     1.3333    -4.0000 

 Edisp/kcal,au: -1.247903281221  -0.001988660251 
 E6   /kcal   :  -1.247903281 
 E8   /kcal   :  -0.000000000 
 % E8         :   0.000000000 

-------------------------   ----------------
Dispersion correction           -0.001988660
-------------------------   ----------------


-------------------------   --------------------
FINAL SINGLE POINT ENERGY      -998.401970279781
-------------------------   --------------------



           ************************************************************
           *        Program running with 6 parallel MPI-processes     *
           *              working on a common directory               *
           ************************************************************

------------------------------------------------------------------------------
                              ORCA PROPERTY CALCULATIONS
------------------------------------------------------------------------------

GBWName                                 ... data/single_point_PO_M06-2x/82100/82100.gbw
Number of atoms                         ...     34
Number of basis functions               ...    635
Max core memory                         ...   1024 MB

Electric properties:
Dipole moment                           ... YES
Quadrupole moment                       ...  NO
Static polarizability (Dipole/Dipole)   ...  NO
Static polarizability (Dipole/Quad.)    ...  NO
Static polarizability (Quad./Quad.)     ...  NO
Static polarizability (Velocity)        ...  NO

Atomic electric properties:
Dipole moment                           ...  NO
Quadrupole moment                       ...  NO
Static polarizability                   ...  NO

Choice of electric origin               ... Center of mass
Position of electric origin             ...    -0.613278     0.022004    -0.321333

General magnetic properties:
Magnetizability                         ...  NO

EPR properties:
g-Tensor (aka g-matrix)                 ...  NO
Zero-Field splitting spin-orbit         ...  NO
Zero-field splitting spin-spin          ...  NO
Hyperfine couplings                     ...  NO (   0 nuclei)
Quadrupole couplings                    ...  NO (   0 nuclei)
Contact density                         ...  NO (   0 nuclei)

NMR properties:
Chemical shifts                         ...  NO (   0 nuclei)
Spin-rotation constants                 ...  NO (   0 nuclei)
Spin-spin couplings                     ...  NO (   0 nuclei,    0 pairs)

Choice of magnetic origin               ... GIAO
Position of magnetic origin             ...     0.000000     0.000000     0.000000

Properties with geometric perturbations:
SCF Hessian                             ...  NO
IR spectrum                             ...  NO
VCD spectrum                            ...  NO
X-ray spectroscopy properties:
SCF XES/XAS/RIXS spectra                ...  NO


-------------
DIPOLE MOMENT
-------------

Method             : SCF
Type of density    : Electron Density
Multiplicity       :   1
Irrep              :   0
Energy             :  -998.3999816195298536 Eh
Relativity type    : 
Basis              : AO
                                X                 Y                 Z
Electronic contribution:    -11.474604971       1.551622209      -3.199122378
Nuclear contribution   :     11.543294108      -1.099833631       4.698124674
                        -----------------------------------------
Total Dipole Moment    :      0.068689136       0.451788578       1.499002296
                        -----------------------------------------
Magnitude (a.u.)       :      1.567111674
Magnitude (Debye)      :      3.983281320



--------------------
Rotational spectrum 
--------------------
 
Rotational constants in cm-1:             0.016817             0.010737             0.008422 
Rotational constants in MHz :           504.147141           321.885867           252.488900 

Dipole components along the rotational axes: 
x,y,z [a.u.] :    -0.070724    -0.459223     1.496647 
x,y,z [Debye]:    -0.179767    -1.167252     3.804173 

 

Dipole moment calculation done in   0.0 sec 

Maximum memory used throughout the entire PROP-calculation: 44.9 MB

--------------------------------
SUGGESTED CITATIONS FOR THIS RUN
--------------------------------

Below you find a list of papers that are relevant to this ORCA run
We neither can nor want to force you to cite these papers, but we appreciate if you do
You receive ORCA, which is the product of decades of hard work by many enthusiastic individuals, for free
The only thing we kindly ask in return is that you cite our papers,
We deeply appreciate it, if you show your appreciation for ORCA by not just citing the generic ORCA reference.

Please note that relegating all ORCA citations to the supporting information does *not* help us.
SI sections are not indexed - citations you put there will not count into any citation statistics
But we need these citations in order to attract the funding resources that allow us to do what we are doing

Therefore, if you are a happy ORCA user, please consider citing a few of the papers listed below in the main body of your paper

In addition to the list printed below, the program has created the file data/single_point_PO_M06-2x/82100/82100.bibtex that contains the list in bibtex format
You can import this file easily into all common literature databanks and citation aid programs


List of essential papers. We consider these as the minimum necessary citations

  1. Neese,F.
     Software update: the ORCA program system, version 5.0
     WIRES Comput. Molec. Sci., 2022 12(1)e1606
     doi.org/10.1002/wcms.1606

List of papers to cite with high priority. The work reported in these papers was absolutely
necessary for this run to complete.
Our perspective: the developers of density functionals and basis sets usually get cited in chemistry papers
Good! But without the algorithms to do something with them, the functionals or basis sets would not do anything.
Hence, in our opinion, the algorithm design and method developments papers are equally worthy of getting cited

  1. Neese,F.
     An improvement of the resolution of the identity approximation for the formation of the Coulomb matrix
     J. Comp. Chem., 2003 24(14)1740-1747
     doi.org/10.1002/jcc.10318
  2. Neese,F.; Wennmohs,F.; Hansen,A.; Becker,U.
     Efficient, approximate and parallel Hartree-Fock and hybrid DFT calculations. A 'chain-of-spheres' algorithm for the Hartree-Fock exchange
     Chem. Phys., 2009 356(1-3)98-109
     doi.org/10.1016/j.chemphys.2008.10.036
  3. Helmich-Paris,B.; de Souza,B.; Neese,F.; Izsák,R.
     An improved chain of spheres for exchange algorithm
     J. Chem. Phys., 2021 155 104109
     doi.org/doi: 10.1063/5.0058766.
  4. Neese,F.
     The SHARK Integral Generation and Digestion System
     J. Comp. Chem., 2022  1-16
     doi.org/10.1002/jcc.26942
  5. Grimme,S.; Antony,J.; Ehrlich,S.; Krieg,H.
     A consistent and accurate ab initio parametrization of density functional dispersion correction (DFT-D) for the 94 elements H-Pu
     J. Chem. Phys., 2010 132 154104-XXXX
     doi.org/10.1063/1.3382344

List of suggested additional citations. These are papers that are important in the 'surrounding' of 
of this run, or papers that preceded the highly important papers. If you like your results we are grateful for a citation.

  1. Izsak,R.; Neese,F.
     An overlap fitted chain of spheres exchange method
     J. Chem. Phys., 2011 135 144105
     doi.org/10.1063/1.3646921
  2. Izsak,R.; Hansen,A.; Neese,F.
     The resolution of identity and chain of spheres approximations for the LPNO-CCSD singles Fock term
     Molec. Phys., 2012 110 2413-2417
     doi.org/10.1080/00268976.2012.687466
  3. Neese,F.
     The ORCA program system
     WIRES Comput. Molec. Sci., 2012 2(1)73-78
     doi.org/10.1002/wcms.81
  4. Izsak,R.; Neese,F.; Klopper,W.
     Robust fitting techniques in the chain of spheres approximation to the Fock exchange: The role of the complementary space
     J. Chem. Phys., 2013 139 
     doi.org/10.1063/1.4819264
  5. Neese,F.
     Software update: the ORCA program system, version 4.0
     WIRES Comput. Molec. Sci., 2018 8(1)1-6
     doi.org/10.1002/wcms.1327
  6. Neese,F.; Wennmohs,F.; Becker,U.; Riplinger,C.
     The ORCA quantum chemistry program package
     J. Chem. Phys., 2020 152 Art. No. L224108
     doi.org/10.1063/5.0004608

List of optional additional citations

  1. Neese,F.
     Approximate second-order SCF convergence for spin unrestricted wavefunctions
     Chem. Phys. Lett., 2000 325(1-3)93-98
     doi.org/10.1016/s0009-2614(00)00662-x

Timings for individual modules:

Sum of individual times          ...       89.123 sec (=   1.485 min)
Startup calculation              ...        3.473 sec (=   0.058 min)   3.9 %
SCF iterations                   ...       85.319 sec (=   1.422 min)  95.7 %
Property calculations            ...        0.331 sec (=   0.006 min)   0.4 %
                             ****ORCA TERMINATED NORMALLY****
TOTAL RUN TIME: 0 days 0 hours 1 minutes 29 seconds 400 msec
