
                                 *****************
                                 * O   R   C   A *
                                 *****************

                                            #,                                       
                                            ###                                      
                                            ####                                     
                                            #####                                    
                                            ######                                   
                                           ########,                                 
                                     ,,################,,,,,                         
                               ,,#################################,,                 
                          ,,##########################################,,             
                       ,#########################################, ''#####,          
                    ,#############################################,,   '####,        
                  ,##################################################,,,,####,       
                ,###########''''           ''''###############################       
              ,#####''   ,,,,##########,,,,          '''####'''          '####       
            ,##' ,,,,###########################,,,                        '##       
           ' ,,###''''                  '''############,,,                           
         ,,##''                                '''############,,,,        ,,,,,,###''
      ,#''                                            '''#######################'''  
     '                                                          ''''####''''         
             ,#######,   #######,   ,#######,      ##                                
            ,#'     '#,  ##    ##  ,#'     '#,    #''#        ,####,   ,####,        
            ##       ##  ##   ,#'  ##            #'  '#       #'       #'  '#        
            ##       ##  #######   ##           ,######,      #####,   #    #        
            '#,     ,#'  ##    ##  '#,     ,#' ,#      #,     #,   #   #,  ,#        
             '#######'   ##     ##  '#######'  #'      '#     '####' # '####'        



                #########################################################
                #                        -***-                          #
                #          Department of theory and spectroscopy        #
                #                                                       #
                #                      Frank Neese                      #
                #                                                       #
                #     Directorship, Architecture, Infrastructure        #
                #                    SHARK, DRIVERS                     #
                #        Core code/Algorithms in most modules           #
                #                                                       #
                #        Max Planck Institute fuer Kohlenforschung      #
                #                Kaiser Wilhelm Platz 1                 #
                #                 D-45470 Muelheim/Ruhr                 #
                #                      Germany                          #
                #                                                       #
                #                  All rights reserved                  #
                #                        -***-                          #
                #########################################################


                         Program Version 6.0.0  -   RELEASE   -


 With contributions from (in alphabetic order):
   Daniel Aravena         : Magnetic Suceptibility
   Michael Atanasov       : Ab Initio Ligand Field Theory (pilot matlab implementation)
   Alexander A. Auer      : GIAO ZORA, VPT2 properties, NMR spectrum
   Ute Becker             : All parallelization in ORCA, NUMFREQ, NUMCALC
   Giovanni Bistoni       : ED, misc. LED, open-shell LED, HFLD
   Martin Brehm           : Molecular dynamics
   Dmytro Bykov           : pre 5.0 version of the SCF Hessian
   Marcos Casanova-Páez   : Triplet and SCS-CIS(D). UHF-(DLPNO)-IP/EA/STEOM-CCSD. UHF-CVS-IP/STEOM-CCSD
   Vijay G. Chilkuri      : MRCI spin determinant printing, contributions to CSF-ICE
   Pauline Colinet        : FMM embedding
   Dipayan Datta          : RHF DLPNO-CCSD density
   Achintya Kumar Dutta   : EOM-CC, STEOM-CC
   Nicolas Foglia         : Exact transition moments, OPA infrastructure, MCD improvements
   Dmitry Ganyushin       : Spin-Orbit,Spin-Spin,Magnetic field MRCI
   Miquel Garcia          : C-PCM and meta-GGA Hessian, CCSD/C-PCM, Gaussian charge scheme
   Tiago L. C. Gouveia    : GS-ROHF, GS-ROCIS
   Yang Guo               : DLPNO-NEVPT2, F12-NEVPT2, CIM, IAO-localization
   Andreas Hansen         : Spin unrestricted coupled pair/coupled cluster methods
   Ingolf Harden          : AUTO-CI MPn and infrastructure 
   Benjamin Helmich-Paris : MC-RPA, TRAH-(SCF,CASSCF), AVAS, COSX integrals, SCF dyn. polar.
   Lee Huntington         : MR-EOM, pCC
   Robert Izsak           : Overlap fitted RIJCOSX, COSX-SCS-MP3, EOM
   Riya Kayal             : Wick's Theorem for AUTO-CI, AUTO-CI UHF-CCSDT
   Emily Kempfer          : AUTO-CI, RHF CISDT and CCSDT
   Christian Kollmar      : KDIIS, OOCD, Brueckner-CCSD(T), CCSD density, CASPT2, CASPT2-K, improved NEVPT2
   Axel Koslowski         : Symmetry handling
   Simone Kossmann        : Meta GGA functionals, TD-DFT gradient, OOMP2, (MP2 Hessian; deprecated post 5.0)
   Lucas Lang             : DCDCAS
   Marvin Lechner         : AUTO-CI (C++ implementation), FIC-MRCC
   Spencer Leger          : CASSCF response
   Dagmar Lenk            : GEPOL surface, SMD, ORCA-2-JSON
   Dimitrios Liakos       : Extrapolation schemes; Compound Job, initial MDCI parallelization
   Dimitrios Manganas     : Further ROCIS development; embedding schemes. LFT, Crystal Embedding
   Dimitrios Pantazis     : SARC Basis sets
   Anastasios Papadopoulos: AUTO-CI, single reference methods and gradients
   Taras Petrenko         : pre 6.0 DFT Hessian and TD-DFT gradient, (ASA, deprecated), ECA, 1-Electron XAS/XES, NRVS
   Peter Pinski           : DLPNO-MP2, DLPNO-MP2 Gradient
   Christoph Reimann      : Effective Core Potentials
   Marius Retegan         : Local ZFS, SOC
   Christoph Riplinger    : Optimizer, TS searches, QM/MM, DLPNO-CCSD(T), (RO)-DLPNO pert. Triples
   Michael Roemelt        : Original ROCIS implementation
   Masaaki Saitow         : Open-shell DLPNO-CCSD energy and density
   Barbara Sandhoefer     : DKH picture change effects
   Kantharuban Sivalingam : CASSCF convergence/infrastructure, NEVPT2 and variants, FIC-MRCI
   Bernardo de Souza      : ESD, SOC TD-DFT
   Georgi Stoychev        : AutoAux, RI-MP2 NMR, DLPNO-MP2 response, X2C
   Van Anh Tran           : RI-MP2 g-tensors
   Willem Van den Heuvel  : Paramagnetic NMR
   Zikuan Wang            : NOTCH, Electric field optimization 
   Frank Wennmohs         : Technical directorship and infrastructure
   Hang Xu                : AUTO-CI-Response properties 


 We gratefully acknowledge several colleagues who have allowed us to
 interface, adapt or use parts of their codes:
   Stefan Grimme, W. Hujo, H. Kruse, P. Pracht,  : VdW corrections, initial TS optimization,
                  C. Bannwarth, S. Ehlert,         DFT functionals, gCP, sTDA/sTD-DF
                  L. Wittmann, M. Mueller
   Ed Valeev, F. Pavosevic, A. Kumar             : LibInt (2-el integral package), F12 methods
   Garnet Chan, S. Sharma, J. Yang, R. Olivares  : DMRG
   Ulf Ekstrom                                   : XCFun DFT Library
   Mihaly Kallay                                 : mrcc  (arbitrary order and MRCC methods)
   Frank Weinhold                                : gennbo (NPA and NBO analysis)
   Simon Mueller                                 : openCOSMO-RS
   Christopher J. Cramer and Donald G. Truhlar   : smd solvation model
   Lars Goerigk                                  : TD-DFT with DH, B97 family of functionals
   V. Asgeirsson, H. Jonsson                     : NEB implementation
   FAccTs GmbH                                   : IRC, NEB, NEB-TS, DLPNO-Multilevel, CI-OPT
                                                   MM, QMMM, 2- and 3-layer-ONIOM, Crystal-QMMM,
                                                   LR-CPCM, SF, NACMEs, symmetry and pop. for TD-DFT,
                                                   nearIR, NL-DFT gradient (VV10), updates on ESD,
                                                   ML-optimized integration grids, MBIS, APM,
                                                   GOAT, DOCKER, SOLVATOR, interface openCOSMO-RS
   S Lehtola, MJT Oliveira, MAL Marques          : LibXC Library
   Liviu Ungur et al                             : ANISO software


 Your calculation uses the libint2 library for the computation of 2-el integrals
 For citations please refer to: http://libint.valeyev.net

 Your ORCA version has been built with support for libXC version: 6.2.2
 For citations please refer to: https://libxc.gitlab.io

 This ORCA versions uses:
   CBLAS   interface :  Fast vector & matrix operations
   LAPACKE interface :  Fast linear algebra routines
   Shared memory     :  Shared parallel matrices


Your calculation utilizes the atom-pairwise dispersion correction
with the Becke-Johnson damping scheme (D3BJ)


Warning: RI is on but no J-basis has been assigned. Assigning Def2/J (nothing to worry about!)
================================================================================

----- Orbital basis set information -----
Your calculation utilizes the basis: def2-SVP
   F. Weigend and R. Ahlrichs, Phys. Chem. Chem. Phys. 7, 3297 (2005).

----- AuxJ basis set information -----
Your calculation utilizes the auxiliary basis: def2/J
   F. Weigend, Phys. Chem. Chem. Phys. 8, 1057 (2006).

================================================================================
                                        WARNINGS
                       Please study these warnings very carefully!
================================================================================


WARNING: Geometry Optimization
  ===> : Switching off AutoStart
         For restart on a previous wavefunction, please use MOREAD

================================================================================
                                       INPUT FILE
================================================================================
NAME = data/geom_opt_P_BP86/627824/627824.inp
|  1> ! RI BP86 def2-SVP D3BJ TIGHTSCF Opt
|  2> %pal
|  3> nprocs 6
|  4> end
|  5> 
|  6> * xyz 0 1
|  7> C     -2.923798   -3.507115    0.172678
|  8> C     -1.784779   -3.103210    0.863259
|  9> C     -1.023132   -2.026815    0.396558
| 10> C     -1.387953   -1.335052   -0.768095
| 11> C     -2.541489   -1.760369   -1.451289
| 12> C     -3.303197   -2.835626   -0.985283
| 13> P     -0.462648    0.076216   -1.455781
| 14> C     -1.274802    1.539507   -0.734402
| 15> C     -2.235571    1.487916    0.286084
| 16> C     -2.816136    2.657146    0.788979
| 17> C     -2.448646    3.898417    0.277664
| 18> C     -1.501566    3.972816   -0.738566
| 19> C     -0.922256    2.804165   -1.240777
| 20> C      1.148527   -0.002552   -0.605913
| 21> C      2.116775   -0.887768   -1.114398
| 22> C      3.378665   -1.004603   -0.519906
| 23> C      3.698510   -0.232290    0.599299
| 24> C      2.748262    0.653207    1.115595
| 25> C      1.487153    0.766366    0.517406
| 26> C      5.019414   -0.317986    1.267105
| 27> O      5.366561    0.316451    2.246014
| 28> O      5.847402   -1.197950    0.676632
| 29> H     -3.514164   -4.343840    0.536471
| 30> H     -1.484753   -3.624643    1.768745
| 31> H     -0.145712   -1.740240    0.970122
| 32> H     -2.862895   -1.252198   -2.359072
| 33> H     -4.191610   -3.146091   -1.529000
| 34> H     -2.551618    0.541060    0.716027
| 35> H     -3.557888    2.593565    1.581194
| 36> H     -2.901556    4.805355    0.669190
| 37> H     -1.211950    4.938790   -1.143903
| 38> H     -0.184010    2.892730   -2.036262
| 39> H      1.895676   -1.504110   -1.985085
| 40> H      4.099789   -1.701022   -0.940749
| 41> H      2.981658    1.262129    1.987240
| 42> H      0.778776    1.464471    0.957390
| 43> H      6.664962   -1.146827    1.214830
| 44> **                         ****END OF INPUT****
================================================================================

                       *****************************
                       * Geometry Optimization Run *
                       *****************************

Geometry optimization settings:
Update method            Update   .... BFGS
Choice of coordinates    CoordSys .... (2022) Redundant Internals
Initial Hessian          InHess   .... Almloef's Model
Max. no of cycles        MaxIter  .... 111

Convergence Tolerances:
Energy Change            TolE     ....  5.0000e-06 Eh
Max. Gradient            TolMAXG  ....  3.0000e-04 Eh/bohr
RMS Gradient             TolRMSG  ....  1.0000e-04 Eh/bohr
Max. Displacement        TolMAXD  ....  4.0000e-03 bohr
RMS Displacement         TolRMSD  ....  2.0000e-03 bohr
Strict Convergence                .... False

------------------------------------------------------------------------------
                        ORCA OPTIMIZATION COORDINATE SETUP
------------------------------------------------------------------------------

The optimization will be done in redundant internal coordinates (2022)
Making redundant internal coordinates   ...  (2022 redundants) done
Evaluating the initial hessian          ...  (Almloef) done
Evaluating the coordinates              ...  done
Calculating the B-matrix                .... done
Calculating the G-matrix                .... done
Diagonalizing the G-matrix              .... done
Small eigenvalue found = 3.706e-03
Small eigenvalue found = 5.169e-03
Small eigenvalue found = 8.225e-03
Small eigenvalue found = 2.510e-02
Small eigenvalue found = 2.593e-02
The first mode is                       ....   85
The number of degrees of freedom        ....  105

    -----------------------------------------------------------------
                    Redundant Internal Coordinates


    -----------------------------------------------------------------
         Definition                    Initial Value    Approx d2E/dq
    -----------------------------------------------------------------
      1. B(C   1,C   0)                  1.3919         0.620434   
      2. B(C   2,C   1)                  1.3988         0.605000   
      3. B(C   3,C   2)                  1.4029         0.595942   
      4. B(C   4,C   3)                  1.4065         0.588010   
      5. B(C   5,C   4)                  1.3977         0.607392   
      6. B(C   5,C   0)                  1.3913         0.621820   
      7. B(P   6,C   3)                  1.8223         0.429067   
      8. B(C   7,P   6)                  1.8224         0.428884   
      9. B(C   8,C   7)                  1.4025         0.596657   
     10. B(C   9,C   8)                  1.3989         0.604590   
     11. B(C  10,C   9)                  1.3918         0.620565   
     12. B(C  11,C  10)                  1.3911         0.622227   
     13. B(C  12,C  11)                  1.3977         0.607374   
     14. B(C  12,C   7)                  1.4071         0.586652   
     15. B(C  13,P   6)                  1.8233         0.427519   
     16. B(C  14,C  13)                  1.4070         0.586955   
     17. B(C  15,C  14)                  1.3998         0.602705   
     18. B(C  16,C  15)                  1.3969         0.609111   
     19. B(C  17,C  16)                  1.3977         0.607313   
     20. B(C  18,C  17)                  1.4004         0.601446   
     21. B(C  18,C  13)                  1.4028         0.596175   
     22. B(C  19,C  16)                  1.4826         0.444636   
     23. B(O  20,C  19)                  1.2171         1.056229   
     24. B(O  21,C  19)                  1.3448         0.660612   
     25. B(H  22,C   0)                  1.0867         0.364449   
     26. B(H  23,C   1)                  1.0871         0.363941   
     27. B(H  24,C   2)                  1.0867         0.364461   
     28. B(H  25,C   4)                  1.0889         0.361615   
     29. B(H  26,C   5)                  1.0869         0.364260   
     30. B(H  27,C   8)                  1.0869         0.364273   
     31. B(H  28,C   9)                  1.0871         0.363922   
     32. B(H  29,C  10)                  1.0867         0.364468   
     33. B(H  30,C  11)                  1.0869         0.364268   
     34. B(H  31,C  12)                  1.0889         0.361592   
     35. B(H  32,C  14)                  1.0894         0.360855   
     36. B(H  33,C  15)                  1.0873         0.363747   
     37. B(H  34,C  17)                  1.0886         0.361972   
     38. B(H  35,C  18)                  1.0875         0.363374   
     39. B(H  36,O  21)                  0.9801         0.482874   
     40. A(C   5,C   0,H  22)          120.1375         0.353803   
     41. A(C   1,C   0,H  22)          120.1248         0.353669   
     42. A(C   1,C   0,C   5)          119.7377         0.434350   
     43. A(C   2,C   1,H  23)          119.7844         0.352081   
     44. A(C   0,C   1,C   2)          120.2219         0.432213   
     45. A(C   0,C   1,H  23)          119.9938         0.353585   
     46. A(C   3,C   2,H  24)          121.2050         0.351269   
     47. A(C   1,C   2,C   3)          120.9877         0.429098   
     48. A(C   1,C   2,H  24)          117.8055         0.352166   
     49. A(C   2,C   3,P   6)          124.2723         0.430384   
     50. A(C   2,C   3,C   4)          117.8671         0.426913   
     51. A(C   4,C   3,P   6)          117.8604         0.429350   
     52. A(C   3,C   4,C   5)          121.1739         0.428371   
     53. A(C   5,C   4,H  25)          118.4336         0.351934   
     54. A(C   3,C   4,H  25)          120.3923         0.350011   
     55. A(C   0,C   5,C   4)          120.0118         0.432693   
     56. A(C   4,C   5,H  26)          119.8959         0.352368   
     57. A(C   0,C   5,H  26)          120.0923         0.353772   
     58. A(C   7,P   6,C  13)          104.1218         0.432532   
     59. A(C   3,P   6,C  13)          103.8476         0.432565   
     60. A(C   3,P   6,C   7)          104.2509         0.432813   
     61. A(C   8,C   7,C  12)          117.8083         0.426828   
     62. A(P   6,C   7,C  12)          117.8745         0.429139   
     63. A(P   6,C   7,C   8)          124.3156         0.430443   
     64. A(C   7,C   8,C   9)          121.0039         0.429139   
     65. A(C   9,C   8,H  27)          117.7261         0.352095   
     66. A(C   7,C   8,H  27)          121.2695         0.351310   
     67. A(C  10,C   9,H  28)          120.0009         0.353595   
     68. A(C   8,C   9,H  28)          119.7514         0.352038   
     69. A(C   8,C   9,C  10)          120.2476         0.432177   
     70. A(C   9,C  10,C  11)          119.7232         0.434417   
     71. A(C  11,C  10,H  29)          120.1519         0.353845   
     72. A(C   9,C  10,H  29)          120.1247         0.353685   
     73. A(C  12,C  11,H  30)          119.9124         0.352368   
     74. A(C  10,C  11,H  30)          120.0915         0.353812   
     75. A(C  10,C  11,C  12)          119.9961         0.432742   
     76. A(C   7,C  12,H  31)          120.3885         0.349871   
     77. A(C  11,C  12,H  31)          118.3920         0.351929   
     78. A(C   7,C  12,C  11)          121.2192         0.428192   
     79. A(C  14,C  13,C  18)          117.9139         0.426805   
     80. A(P   6,C  13,C  18)          124.2565         0.430135   
     81. A(P   6,C  13,C  14)          117.8289         0.428934   
     82. A(C  15,C  14,H  32)          118.3697         0.351349   
     83. A(C  13,C  14,H  32)          120.3386         0.349781   
     84. A(C  13,C  14,C  15)          121.2915         0.427639   
     85. A(C  14,C  15,H  33)          119.1424         0.351823   
     86. A(C  16,C  15,H  33)          120.8228         0.352453   
     87. A(C  14,C  15,C  16)          120.0349         0.430491   
     88. A(C  15,C  16,C  19)          122.2029         0.407772   
     89. A(C  17,C  16,C  19)          118.4209         0.407559   
     90. A(C  15,C  16,C  17)          119.3762         0.431080   
     91. A(C  18,C  17,H  34)          119.3351         0.351408   
     92. A(C  16,C  17,H  34)          120.2903         0.351985   
     93. A(C  16,C  17,C  18)          120.3746         0.430101   
     94. A(C  17,C  18,H  35)          117.7515         0.351638   
     95. A(C  13,C  18,H  35)          121.2384         0.351115   
     96. A(C  13,C  18,C  17)          121.0088         0.428675   
     97. A(C  16,C  19,O  21)          112.8667         0.411011   
     98. A(C  16,C  19,O  20)          125.8932         0.447097   
     99. A(O  20,C  19,O  21)          121.2401         0.477444   
    100. A(C  19,O  21,H  36)          103.7882         0.369446   
    101. D(H  23,C   1,C   0,C   5)    179.9733         0.026639   
    102. D(C   2,C   1,C   0,C   5)     -0.0058         0.026639   
    103. D(C   2,C   1,C   0,H  22)    179.9764         0.026639   
    104. D(H  23,C   1,C   0,H  22)     -0.0445         0.026639   
    105. D(C   3,C   2,C   1,H  23)   -179.9249         0.025256   
    106. D(C   3,C   2,C   1,C   0)      0.0543         0.025256   
    107. D(H  24,C   2,C   1,C   0)    179.5672         0.025256   
    108. D(H  24,C   2,C   1,H  23)     -0.4120         0.025256   
    109. D(P   6,C   3,C   2,H  24)      0.5371         0.024465   
    110. D(C   4,C   3,C   2,C   1)     -0.1165         0.024465   
    111. D(P   6,C   3,C   2,C   1)   -179.9667         0.024465   
    112. D(C   4,C   3,C   2,H  24)   -179.6127         0.024465   
    113. D(H  25,C   4,C   3,C   2)    179.9329         0.023786   
    114. D(C   5,C   4,C   3,C   2)      0.1344         0.023786   
    115. D(C   5,C   4,C   3,P   6)    179.9944         0.023786   
    116. D(H  25,C   4,C   3,P   6)     -0.2071         0.023786   
    117. D(H  26,C   5,C   4,H  25)      0.1249         0.025467   
    118. D(C   0,C   5,C   4,H  25)   -179.8922         0.025467   
    119. D(H  26,C   5,C   0,H  22)      0.0240         0.026765   
    120. D(H  26,C   5,C   0,C   1)   -179.9938         0.026765   
    121. D(C   4,C   5,C   0,H  22)   -179.9589         0.026765   
    122. D(H  26,C   5,C   4,C   3)    179.9273         0.025467   
    123. D(C   4,C   5,C   0,C   1)      0.0233         0.026765   
    124. D(C   0,C   5,C   4,C   3)     -0.0898         0.025467   
    125. D(C  13,P   6,C   3,C   4)   -164.2647         0.003792   
    126. D(C  13,P   6,C   3,C   2)     15.5855         0.003792   
    127. D(C   7,P   6,C   3,C   4)     86.9590         0.003792   
    128. D(C   7,P   6,C   3,C   2)    -93.1908         0.003792   
    129. D(C  12,C   7,P   6,C   3)   -170.0738         0.003790   
    130. D(C   8,C   7,P   6,C  13)    -99.1264         0.003790   
    131. D(C   8,C   7,P   6,C   3)      9.4479         0.003790   
    132. D(C  12,C   7,P   6,C  13)     81.3520         0.003790   
    133. D(H  27,C   8,C   7,C  12)    179.8216         0.024527   
    134. D(H  27,C   8,C   7,P   6)      0.2997         0.024527   
    135. D(C   9,C   8,C   7,C  12)     -0.4377         0.024527   
    136. D(C   9,C   8,C   7,P   6)   -179.9597         0.024527   
    137. D(H  28,C   9,C   8,H  27)     -0.1627         0.025220   
    138. D(H  28,C   9,C   8,C   7)   -179.9122         0.025220   
    139. D(C  10,C   9,C   8,H  27)    179.9203         0.025220   
    140. D(C  10,C   9,C   8,C   7)      0.1708         0.025220   
    141. D(H  29,C  10,C   9,H  28)      0.0291         0.026651   
    142. D(H  29,C  10,C   9,C   8)    179.9459         0.026651   
    143. D(C  11,C  10,C   9,H  28)   -179.8251         0.026651   
    144. D(C  11,C  10,C   9,C   8)      0.0917         0.026651   
    145. D(H  30,C  11,C  10,H  29)     -0.0021         0.026803   
    146. D(H  30,C  11,C  10,C   9)    179.8520         0.026803   
    147. D(C  12,C  11,C  10,H  29)   -179.9264         0.026803   
    148. D(C  12,C  11,C  10,C   9)     -0.0722         0.026803   
    149. D(H  31,C  12,C  11,H  30)      0.0621         0.025466   
    150. D(C   7,C  12,C  11,H  30)    179.8660         0.025466   
    151. D(C   7,C  12,C  11,C  10)     -0.2097         0.025466   
    152. D(H  31,C  12,C   7,C   8)   -179.7419         0.023671   
    153. D(H  31,C  12,C   7,P   6)     -0.1886         0.023671   
    154. D(H  31,C  12,C  11,C  10)    179.9865         0.025466   
    155. D(C  11,C  12,C   7,C   8)      0.4582         0.023671   
    156. D(C  11,C  12,C   7,P   6)   -179.9885         0.023671   
    157. D(C  18,C  13,P   6,C   7)     10.9820         0.003775   
    158. D(C  18,C  13,P   6,C   3)    -97.8900         0.003775   
    159. D(C  14,C  13,P   6,C   7)   -168.7013         0.003775   
    160. D(C  14,C  13,P   6,C   3)     82.4267         0.003775   
    161. D(H  32,C  14,C  13,P   6)     -0.3199         0.023697   
    162. D(C  15,C  14,C  13,C  18)      0.1806         0.023697   
    163. D(C  15,C  14,C  13,P   6)    179.8844         0.023697   
    164. D(H  32,C  14,C  13,C  18)    179.9763         0.023697   
    165. D(H  33,C  15,C  14,H  32)      0.0964         0.025054   
    166. D(H  33,C  15,C  14,C  13)    179.8960         0.025054   
    167. D(C  16,C  15,C  14,H  32)   -179.9077         0.025054   
    168. D(C  16,C  15,C  14,C  13)     -0.1081         0.025054   
    169. D(C  19,C  16,C  15,H  33)     -0.0398         0.025620   
    170. D(C  19,C  16,C  15,C  14)    179.9644         0.025620   
    171. D(C  17,C  16,C  15,H  33)   -179.9824         0.025620   
    172. D(C  17,C  16,C  15,C  14)      0.0218         0.025620   
    173. D(H  34,C  17,C  16,C  19)      0.0495         0.025460   
    174. D(H  34,C  17,C  16,C  15)    179.9943         0.025460   
    175. D(C  18,C  17,C  16,C  19)   -179.9584         0.025460   
    176. D(C  18,C  17,C  16,C  15)     -0.0137         0.025460   
    177. D(H  35,C  18,C  17,H  34)     -0.3346         0.024944   
    178. D(H  35,C  18,C  17,C  16)    179.6732         0.024944   
    179. D(C  13,C  18,C  17,H  34)   -179.9163         0.024944   
    180. D(C  13,C  18,C  17,C  16)      0.0915         0.024944   
    181. D(H  35,C  18,C  13,C  14)   -179.7389         0.024485   
    182. D(H  35,C  18,C  13,P   6)      0.5781         0.024485   
    183. D(C  17,C  18,C  13,C  14)     -0.1718         0.024485   
    184. D(C  17,C  18,C  13,P   6)   -179.8549         0.024485   
    185. D(O  21,C  19,C  16,C  17)   -179.7387         0.013483   
    186. D(O  21,C  19,C  16,C  15)      0.3182         0.013483   
    187. D(O  20,C  19,C  16,C  17)      0.2984         0.013483   
    188. D(O  20,C  19,C  16,C  15)   -179.6448         0.013483   
    189. D(H  36,O  21,C  19,O  20)     -0.1190         0.032340   
    190. D(H  36,O  21,C  19,C  16)    179.9161         0.032340   
    -----------------------------------------------------------------

Number of atoms                         .... 37
Number of degrees of freedom            .... 190


         *************************************************************
         *                GEOMETRY OPTIMIZATION CYCLE   1            *
         *************************************************************
---------------------------------
CARTESIAN COORDINATES (ANGSTROEM)
---------------------------------
  C     -2.923798   -3.507115    0.172678
  C     -1.784779   -3.103210    0.863259
  C     -1.023132   -2.026815    0.396558
  C     -1.387953   -1.335052   -0.768095
  C     -2.541489   -1.760369   -1.451289
  C     -3.303197   -2.835626   -0.985283
  P     -0.462648    0.076216   -1.455781
  C     -1.274802    1.539507   -0.734402
  C     -2.235571    1.487916    0.286084
  C     -2.816136    2.657146    0.788979
  C     -2.448646    3.898417    0.277664
  C     -1.501566    3.972816   -0.738566
  C     -0.922256    2.804165   -1.240777
  C      1.148527   -0.002552   -0.605913
  C      2.116775   -0.887768   -1.114398
  C      3.378665   -1.004603   -0.519906
  C      3.698510   -0.232290    0.599299
  C      2.748262    0.653207    1.115595
  C      1.487153    0.766366    0.517406
  C      5.019414   -0.317986    1.267105
  O      5.366561    0.316451    2.246014
  O      5.847402   -1.197950    0.676632
  H     -3.514164   -4.343840    0.536471
  H     -1.484753   -3.624643    1.768745
  H     -0.145712   -1.740240    0.970122
  H     -2.862895   -1.252198   -2.359072
  H     -4.191610   -3.146091   -1.529000
  H     -2.551618    0.541060    0.716027
  H     -3.557888    2.593565    1.581194
  H     -2.901556    4.805355    0.669190
  H     -1.211950    4.938790   -1.143903
  H     -0.184010    2.892730   -2.036262
  H      1.895676   -1.504110   -1.985085
  H      4.099789   -1.701022   -0.940749
  H      2.981658    1.262129    1.987240
  H      0.778776    1.464471    0.957390
  H      6.664962   -1.146827    1.214830

----------------------------
CARTESIAN COORDINATES (A.U.)
----------------------------
  NO LB      ZA    FRAG     MASS         X           Y           Z
   0 C     6.0000    0    12.011   -5.525177   -6.627487    0.326314
   1 C     6.0000    0    12.011   -3.372744   -5.864217    1.631323
   2 C     6.0000    0    12.011   -1.933439   -3.830125    0.749386
   3 C     6.0000    0    12.011   -2.622851   -2.522883   -1.451489
   4 C     6.0000    0    12.011   -4.802718   -3.326615   -2.742539
   5 C     6.0000    0    12.011   -6.242138   -5.358557   -1.861915
   6 P    15.0000    0    30.974   -0.874278    0.144027   -2.751027
   7 C     6.0000    0    12.011   -2.409027    2.909247   -1.387819
   8 C     6.0000    0    12.011   -4.224617    2.811754    0.540620
   9 C     6.0000    0    12.011   -5.321726    5.021278    1.490954
  10 C     6.0000    0    12.011   -4.627270    7.366940    0.524709
  11 C     6.0000    0    12.011   -2.837549    7.507534   -1.395687
  12 C     6.0000    0    12.011   -1.742811    5.299104   -2.344729
  13 C     6.0000    0    12.011    2.170401   -0.004823   -1.145010
  14 C     6.0000    0    12.011    4.000125   -1.677638   -2.105907
  15 C     6.0000    0    12.011    6.384752   -1.898425   -0.982480
  16 C     6.0000    0    12.011    6.989171   -0.438964    1.132511
  17 C     6.0000    0    12.011    5.193463    1.234382    2.108169
  18 C     6.0000    0    12.011    2.810312    1.448222    0.977756
  19 C     6.0000    0    12.011    9.485318   -0.600906    2.394481
  20 O     8.0000    0    15.999   10.141331    0.598006    4.244351
  21 O     8.0000    0    15.999   11.049988   -2.263797    1.278649
  22 H     1.0000    0     1.008   -6.640808   -8.208668    1.013783
  23 H     1.0000    0     1.008   -2.805777   -6.849583    3.342444
  24 H     1.0000    0     1.008   -0.275356   -3.288577    1.833265
  25 H     1.0000    0     1.008   -5.410088   -2.366311   -4.458000
  26 H     1.0000    0     1.008   -7.920995   -5.945250   -2.889391
  27 H     1.0000    0     1.008   -4.821859    1.022455    1.353095
  28 H     1.0000    0     1.008   -6.723434    4.901128    2.988024
  29 H     1.0000    0     1.008   -5.483146    9.080805    1.264586
  30 H     1.0000    0     1.008   -2.290254    9.332961   -2.161663
  31 H     1.0000    0     1.008   -0.347729    5.466467   -3.847978
  32 H     1.0000    0     1.008    3.582308   -2.842356   -3.751267
  33 H     1.0000    0     1.008    7.747478   -3.214466   -1.777758
  34 H     1.0000    0     1.008    5.634517    2.385078    3.755339
  35 H     1.0000    0     1.008    1.471673    2.767449    1.809205
  36 H     1.0000    0     1.008   12.594953   -2.167189    2.295696

--------------------------------
INTERNAL COORDINATES (ANGSTROEM)
--------------------------------
 C      0   0   0     0.000000000000     0.00000000     0.00000000
 C      1   0   0     1.391907198396     0.00000000     0.00000000
 C      2   1   0     1.398764516291   120.22186239     0.00000000
 C      3   2   1     1.402870992151   120.98767120     0.05429508
 C      4   3   2     1.406518359433   117.86706174   359.88354138
 C      1   2   3     1.391299664286   119.73765534     0.00000000
 P      4   3   2     1.822300399343   124.27234123   180.03334068
 C      7   4   3     1.822416618679   104.25090090   266.80922178
 C      8   7   4     1.402544252007   124.31555200     9.44786826
 C      9   8   7     1.398948852943   121.00390280   180.04034010
 C     10   9   8     1.391849713427   120.24761593     0.17076855
 C     11  10   9     1.391121544115   119.72324991     0.09166422
 C     12  11  10     1.397698509845   119.99605573   359.92779162
 C      7   4   3     1.823284096314   103.84757173    15.58551436
 C     14   7   4     1.407006947881   117.82885416    82.42669712
 C     15  14   7     1.399799102510   121.29147060   179.88438113
 C     16  15  14     1.396920909006   120.03485927   359.89188082
 C     17  16  15     1.397725923824   119.37622595     0.00000000
 C     18  17  16     1.400368147625   120.37455515     0.00000000
 C     17  16  15     1.482597732113   122.20285110   179.96437769
 O     20  17  16     1.217080185057   125.89320036   180.35523443
 O     20  17  16     1.344826804153   112.86665184     0.31816705
 H      1   2   3     1.086731837405   120.12482101   179.97637586
 H      2   1   3     1.087112170091   119.99377926   179.97915523
 H      3   2   1     1.086722940368   117.80550607   179.56715815
 H      5   4   3     1.088856995737   120.39228621   179.93293299
 H      6   1   2     1.086873659117   120.09230484   180.00624647
 H      9   8   7     1.086863825046   121.26949783     0.29970994
 H     10   9   8     1.087126110113   119.75141274   180.08777271
 H     11  10   9     1.086718276565   120.12467576   179.94586017
 H     12  11  10     1.086867645899   120.09150112   179.85201157
 H     13  12  11     1.088874327444   118.39195323   179.98650049
 H     15  14   7     1.089430163312   120.33855589   359.68007727
 H     16  15  14     1.087257134990   119.14238083   179.89602517
 H     18  17  16     1.088588398305   120.29032855   179.99425960
 H     19  18  17     1.087535969709   117.75152660   179.67321001
 H     22  20  17     0.980140297066   103.78821113   179.91609670

---------------------------
INTERNAL COORDINATES (A.U.)
---------------------------
 C      0   0   0     0.000000000000     0.00000000     0.00000000
 C      1   0   0     2.630323408802     0.00000000     0.00000000
 C      2   1   0     2.643281861637   120.22186239     0.00000000
 C      3   2   1     2.651041976388   120.98767120     0.05429508
 C      4   3   2     2.657934501660   117.86706174   359.88354138
 C      1   2   3     2.629175335718   119.73765534     0.00000000
 P      4   3   2     3.443648688493   124.27234123   180.03334068
 C      7   4   3     3.443868311210   104.25090090   266.80922178
 C      8   7   4     2.650424526999   124.31555200     9.44786826
 C      9   8   7     2.643630207425   121.00390280   180.04034010
 C     10   9   8     2.630214777953   120.24761593     0.17076855
 C     11  10   9     2.628838737375   119.72324991     0.09166422
 C     12  11  10     2.641267401396   119.99605573   359.92779162
 C      7   4   3     3.445507606368   103.84757173    15.58551436
 C     14   7   4     2.658857800019   117.82885416    82.42669712
 C     15  14   7     2.645236946253   121.29147060   179.88438113
 C     16  15  14     2.639797948770   120.03485927   359.89188082
 C     17  16  15     2.641319206309   119.37622595     0.00000000
 C     18  17  16     2.646312285678   120.37455515     0.00000000
 C     17  16  15     2.801703680467   122.20285110   179.96437769
 O     20  17  16     2.299948232780   125.89320036   180.35523443
 O     20  17  16     2.541354357406   112.86665184     0.31816705
 H      1   2   3     2.053625553709   120.12482101   179.97637586
 H      2   1   3     2.054344278326   119.99377926   179.97915523
 H      3   2   1     2.053608740744   117.80550607   179.56715815
 H      5   4   3     2.057641520948   120.39228621   179.93293299
 H      6   1   2     2.053893557905   120.09230484   180.00624647
 H      9   8   7     2.053874974203   121.26949783     0.29970994
 H     10   9   8     2.054370621149   119.75141274   180.08777271
 H     11  10   9     2.053599927434   120.12467576   179.94586017
 H     12  11  10     2.053882194568   120.09150112   179.85201157
 H     13  12  11     2.057674273126   118.39195323   179.98650049
 H     15  14   7     2.058724650693   120.33855589   359.68007727
 H     16  15  14     2.054618222282   119.14238083   179.89602517
 H     18  17  16     2.057133945361   120.29032855   179.99425960
 H     19  18  17     2.055145143538   117.75152660   179.67321001
 H     22  20  17     1.852196734275   103.78821113   179.91609670

---------------------
BASIS SET INFORMATION
---------------------
There are 4 groups of distinct atoms

 Group   1 Type C   : 7s4p1d contracted to 3s2p1d pattern {511/31/1}
 Group   2 Type P   : 10s7p1d contracted to 4s3p1d pattern {5311/511/1}
 Group   3 Type O   : 7s4p1d contracted to 3s2p1d pattern {511/31/1}
 Group   4 Type H   : 4s1p contracted to 2s1p pattern {31/1}

Atom   0C    basis set group =>   1
Atom   1C    basis set group =>   1
Atom   2C    basis set group =>   1
Atom   3C    basis set group =>   1
Atom   4C    basis set group =>   1
Atom   5C    basis set group =>   1
Atom   6P    basis set group =>   2
Atom   7C    basis set group =>   1
Atom   8C    basis set group =>   1
Atom   9C    basis set group =>   1
Atom  10C    basis set group =>   1
Atom  11C    basis set group =>   1
Atom  12C    basis set group =>   1
Atom  13C    basis set group =>   1
Atom  14C    basis set group =>   1
Atom  15C    basis set group =>   1
Atom  16C    basis set group =>   1
Atom  17C    basis set group =>   1
Atom  18C    basis set group =>   1
Atom  19C    basis set group =>   1
Atom  20O    basis set group =>   3
Atom  21O    basis set group =>   3
Atom  22H    basis set group =>   4
Atom  23H    basis set group =>   4
Atom  24H    basis set group =>   4
Atom  25H    basis set group =>   4
Atom  26H    basis set group =>   4
Atom  27H    basis set group =>   4
Atom  28H    basis set group =>   4
Atom  29H    basis set group =>   4
Atom  30H    basis set group =>   4
Atom  31H    basis set group =>   4
Atom  32H    basis set group =>   4
Atom  33H    basis set group =>   4
Atom  34H    basis set group =>   4
Atom  35H    basis set group =>   4
Atom  36H    basis set group =>   4
---------------------------------
AUXILIARY/J BASIS SET INFORMATION
---------------------------------
There are 4 groups of distinct atoms

 Group   1 Type C   : 12s5p4d2f1g contracted to 6s4p3d1f1g pattern {711111/2111/211/2/1}
 Group   2 Type P   : 14s5p5d2f1g contracted to 8s4p3d1f1g pattern {71111111/2111/311/2/1}
 Group   3 Type O   : 12s5p4d2f1g contracted to 6s4p3d1f1g pattern {711111/2111/211/2/1}
 Group   4 Type H   : 5s2p1d contracted to 3s1p1d pattern {311/2/1}

Atom   0C    basis set group =>   1
Atom   1C    basis set group =>   1
Atom   2C    basis set group =>   1
Atom   3C    basis set group =>   1
Atom   4C    basis set group =>   1
Atom   5C    basis set group =>   1
Atom   6P    basis set group =>   2
Atom   7C    basis set group =>   1
Atom   8C    basis set group =>   1
Atom   9C    basis set group =>   1
Atom  10C    basis set group =>   1
Atom  11C    basis set group =>   1
Atom  12C    basis set group =>   1
Atom  13C    basis set group =>   1
Atom  14C    basis set group =>   1
Atom  15C    basis set group =>   1
Atom  16C    basis set group =>   1
Atom  17C    basis set group =>   1
Atom  18C    basis set group =>   1
Atom  19C    basis set group =>   1
Atom  20O    basis set group =>   3
Atom  21O    basis set group =>   3
Atom  22H    basis set group =>   4
Atom  23H    basis set group =>   4
Atom  24H    basis set group =>   4
Atom  25H    basis set group =>   4
Atom  26H    basis set group =>   4
Atom  27H    basis set group =>   4
Atom  28H    basis set group =>   4
Atom  29H    basis set group =>   4
Atom  30H    basis set group =>   4
Atom  31H    basis set group =>   4
Atom  32H    basis set group =>   4
Atom  33H    basis set group =>   4
Atom  34H    basis set group =>   4
Atom  35H    basis set group =>   4
Atom  36H    basis set group =>   4


           ************************************************************
           *        Program running with 6 parallel MPI-processes     *
           *              working on a common directory               *
           ************************************************************
------------------------------------------------------------------------------
                             ORCA STARTUP CALCULATIONS
                           -- RI-GTO INTEGRALS CHOSEN --
------------------------------------------------------------------------------
------------------------------------------------------------------------------
                   ___                                                        
                  /   \      - P O W E R E D   B Y -                         
                 /     \                                                     
                 |  |  |   _    _      __       _____    __    __             
                 |  |  |  | |  | |    /  \     |  _  \  |  |  /  |          
                  \  \/   | |  | |   /    \    | | | |  |  | /  /          
                 / \  \   | |__| |  /  /\  \   | |_| |  |  |/  /          
                |  |  |   |  __  | /  /__\  \  |    /   |      \           
                |  |  |   | |  | | |   __   |  |    \   |  |\   \          
                \     /   | |  | | |  |  |  |  | |\  \  |  | \   \       
                 \___/    |_|  |_| |__|  |__|  |_| \__\ |__|  \__/        
                                                                              
                      - O R C A' S   B I G   F R I E N D -                    
                                      &                                       
                       - I N T E G R A L  F E E D E R -                       
                                                                              
 v1 FN, 2020, v2 2021, v3 2022-2024                                           
------------------------------------------------------------------------------


----------------------
SHARK INTEGRAL PACKAGE
----------------------

Number of atoms                             ...     37
Number of basis functions                   ...    387
Number of shells                            ...    179
Maximum angular momentum                    ...      2
Integral batch strategy                     ... SHARK/LIBINT Hybrid
RI-J (if used) integral strategy            ... SPLIT-RIJ (Revised 2003 algorithm where possible)
Printlevel                                  ...      1
Contraction scheme used                     ... SEGMENTED contraction
Prescreening option                         ... SCHWARTZ
   Thresh                                   ... 2.500e-11
   Tcut                                     ... 2.500e-12
   Tpresel                                  ... 2.500e-12 
Coulomb Range Separation                    ... NOT USED
Exchange Range Separation                   ... NOT USED
Multipole approximations                    ... NOT USED
Finite Nucleus Model                        ... NOT USED
CABS basis                                  ... NOT available
Auxiliary Coulomb fitting basis             ... AVAILABLE
   # of basis functions in Aux-J            ...   1245
   # of shells in Aux-J                     ...    407
   Maximum angular momentum in Aux-J        ...      4
Auxiliary J/K fitting basis                 ... NOT available
Auxiliary Correlation fitting basis         ... NOT available
Auxiliary 'external' fitting basis          ... NOT available

Checking pre-screening integrals            ... done (  0.0 sec) Dimension = 179
Check shell pair data                       ... done (  0.0 sec)
Shell pair information
Shell pair cut-off parameter TPreSel        ...   2.5e-12
Total number of shell pairs                 ...     16110
Shell pairs after pre-screening             ...     11603
Total number of primitive shell pairs       ...     60026
Primitive shell pairs kept                  ...     27461
          la=0 lb=0:   3506 shell pairs
          la=1 lb=0:   4325 shell pairs
          la=1 lb=1:   1367 shell pairs
          la=2 lb=0:   1394 shell pairs
          la=2 lb=1:    875 shell pairs
          la=2 lb=2:    136 shell pairs

Calculating one electron integrals          ... done (  0.0 sec)
Calculating RI/J V-Matrix + Cholesky decomp.... done (  0.1 sec)
Calculating Nuclear repulsion               ... done (  0.0 sec) ENN=   1745.403439861384 Eh

Diagonalization of the overlap matrix:
Smallest eigenvalue                        ... 2.638e-04
Time for diagonalization                   ...    0.020 sec
Threshold for overlap eigenvalues          ... 1.000e-07
Number of eigenvalues below threshold      ... 0
Time for construction of square roots      ...    0.011 sec
Total time needed                          ...    0.034 sec

-------------------
DFT GRID GENERATION
-------------------

General Integration Accuracy     IntAcc      ... 4.388
Radial Grid Type                 RadialGrid  ... OptM3 with GC (2021)
Angular Grid (max. ang.)         AngularGrid ... 4 (Lebedev-302)
Angular grid pruning method      GridPruning ... 4 (adaptive)
Weight generation scheme         WeightScheme... mBecke (2022)
Basis function cutoff            BFCut       ... 1.0000e-11
Integration weight cutoff        WCut        ... 1.0000e-14
Partially contracted basis set               ... off
Rotationally invariant grid construction     ... off
Angular grids for H and He will be reduced by one unit

Total number of grid points                  ...   180816
Total number of batches                      ...     2845
Average number of points per batch           ...       63
Average number of grid points per atom       ...     4887
Initializing property integral containers    ... done (  0.0 sec)

SHARK setup successfully completed in   1.4 seconds

Maximum memory used throughout the entire STARTUP-calculation: 48.4 MB


           ************************************************************
           *        Program running with 6 parallel MPI-processes     *
           *              working on a common directory               *
           ************************************************************
-------------------------------------------------------------------------------
                                 ORCA GUESS
                   Start orbitals & Density for SCF / CASSCF
-------------------------------------------------------------------------------

------------
SCF SETTINGS
------------
Hamiltonian:
 Density Functional     Method          .... DFT(GTOs)
 Exchange Functional    Exchange        .... B88
   X-Alpha parameter    XAlpha          ....  0.666667
   Becke's b parameter  XBeta           ....  0.004200
 Correlation Functional Correlation     .... P86
 LDA part of GGA corr.  LDAOpt          .... PW91-LDA
 Gradients option       PostSCFGGA      .... off
   NL short-range parameter             ....  4.400000
 RI-approximation to the Coulomb term is turned on
   Number of AuxJ basis functions       .... 1245


General Settings:
 Integral files         IntName         .... data/geom_opt_P_BP86/627824/627824
 Hartree-Fock type      HFTyp           .... RHF
 Total Charge           Charge          ....    0
 Multiplicity           Mult            ....    1
 Number of Electrons    NEL             ....  160
 Basis Dimension        Dim             ....  387
 Nuclear Repulsion      ENuc            ....   1745.4034398614 Eh

Convergence Acceleration:
 AO-DIIS                CNVDIIS         .... on
   Start iteration      DIISMaxIt       ....    12
   Startup error        DIISStart       ....  0.200000
   # of expansion vecs  DIISMaxEq       ....     5
   Bias factor          DIISBfac        ....   1.050
   Max. coefficient     DIISMaxC        ....  10.000
 MO-DIIS                CNVKDIIS        .... off
 Trust-Rad. Augm. Hess. CNVTRAH         .... auto
   Auto Start mean grad. ratio tolernc. ....  1.125000
   Auto Start start iteration           ....    50
   Auto Start num. interpolation iter.  ....    10
   Max. Number of Micro iterations      ....    24
   Max. Number of Macro iterations      .... Maxiter - #DIIS iter
   Number of Davidson start vectors     ....     2
   Converg. threshold    (grad. norm)   ....   1.000e-05
   Grad. Scal. Fac. for Micro threshold ....   0.100
   Minimum threshold for Micro iter.    ....   1.000e-02
   NR start threshold (gradient norm)   ....   1.000e-04
   Initial trust radius                 ....   0.400
   Minimum AH scaling param. (alpha)    ....   1.000
   Maximum AH scaling param. (alpha)    .... 1000.000
   Quad. conv. algorithm                .... NR
   White noise on init. David. guess    .... on
   Maximum white noise                  ....   0.010
   Pseudo random numbers                .... off
   Inactive MOs                         .... canonical
   Orbital update algorithm             .... Taylor
   Preconditioner                       .... Diag
   Full preconditioner red. dimension   ....   250
 SOSCF                  CNVSOSCF        .... on
   Start iteration      SOSCFMaxIt      ....   150
   Startup grad/error   SOSCFStart      ....  0.003300
   Hessian update       SOSCFHessUp     .... L-BFGS
 Level Shifting         CNVShift        .... on
   Level shift para.    LevelShift      ....    0.2500
   Turn off err/grad.   ShiftErr        ....    0.0010
 Zerner damping         CNVZerner       .... off
 Static damping         CNVDamp         .... on
   Fraction old density DampFac         ....    0.7000
   Max. Damping (<1)    DampMax         ....    0.9800
   Min. Damping (>=0)   DampMin         ....    0.0000
   Turn off err/grad.   DampErr         ....    0.1000

SCF Procedure:
 Maximum # iterations   MaxIter         ....   125
 SCF integral mode      SCFMode         .... Direct
   Integral package                     .... SHARK and LIBINT hybrid scheme
 Reset frequency        DirectResetFreq ....    20
 Integral Threshold     Thresh          ....  2.500e-11 Eh
 Primitive CutOff       TCut            ....  2.500e-12 Eh

Convergence Tolerance:
 Convergence Check Mode ConvCheckMode   .... Total+1el-Energy
 Convergence forced     ConvForced      .... 0
 Energy Change          TolE            ....  1.000e-08 Eh
 1-El. energy change                    ....  1.000e-05 Eh
 Orbital Gradient       TolG            ....  1.000e-05
 Orbital Rotation angle TolX            ....  1.000e-05
 DIIS Error             TolErr          ....  5.000e-07

------------------------------
INITIAL GUESS: MODEL POTENTIAL
------------------------------
Loading Hartree-Fock densities                     ... done
Calculating cut-offs                               ... done
Initializing the effective Hamiltonian             ... done
Setting up the integral package (SHARK)            ... done
Starting the Coulomb interaction                   ... done (   0.2 sec)
Making the grid                                    ... done (   0.3 sec)
Mapping shells                                     ... done
Starting the XC term evaluation                    ... done (   0.2 sec)
  promolecular density results
     # of electrons  =    159.979751656
     EX              =   -141.164475804
     EC              =     -5.943599364
     EX+EC           =   -147.108075168
Transforming the Hamiltonian                       ... done (   0.0 sec)
Diagonalizing the Hamiltonian                      ... done (   0.0 sec)
Back transforming the eigenvectors                 ... done (   0.0 sec)
Now organizing SCF variables                       ... done
                      ------------------
                      INITIAL GUESS DONE (   0.8 sec)
                      ------------------
             **** ENERGY FILE WAS UPDATED (data/geom_opt_P_BP86/627824/627824.en.tmp) ****
Finished Guess after   0.9 sec
Maximum memory used throughout the entire GUESS-calculation: 27.7 MB


           ************************************************************
           *        Program running with 6 parallel MPI-processes     *
           *              working on a common directory               *
           ************************************************************

-------------------------------------------------------------------------------------------
                                      ORCA LEAN-SCF
                              memory conserving SCF solver
-------------------------------------------------------------------------------------------

----------------------------------------D-I-I-S--------------------------------------------
Iteration    Energy (Eh)           Delta-E    RMSDP     MaxDP     DIISErr   Damp  Time(sec)
-------------------------------------------------------------------------------------------
               ***  Starting incremental Fock matrix formation  ***
    1    -1223.7648145091009155     0.00e+00  2.42e-03  1.14e-01  2.44e-01  0.700   1.0
    2    -1223.9662504445848299    -2.01e-01  1.57e-03  6.81e-02  7.54e-02  0.700   1.1
                               ***Turning on AO-DIIS***
    3    -1224.0340764950603898    -6.78e-02  6.37e-04  3.59e-02  2.56e-02  0.700   0.9
    4    -1224.0771055715774764    -4.30e-02  1.14e-03  6.98e-02  1.05e-02  0.000   0.9
    5    -1224.1739088713140973    -9.68e-02  2.69e-04  1.85e-02  6.02e-03  0.000   1.0
    6    -1224.1747064278781636    -7.98e-04  9.80e-05  5.47e-03  4.56e-03  0.000   0.9
                              *** Initializing SOSCF ***
---------------------------------------S-O-S-C-F--------------------------------------
Iteration    Energy (Eh)           Delta-E    RMSDP     MaxDP     MaxGrad    Time(sec)
--------------------------------------------------------------------------------------
    7    -1224.1747956393739969    -8.92e-05  3.48e-05  1.65e-03  1.49e-03     0.9
               *** Restarting incremental Fock matrix formation ***
    8    -1224.1748025592112299    -6.92e-06  2.85e-05  1.52e-03  1.81e-04     1.0
    9    -1224.1748008661008953     1.69e-06  1.39e-05  7.73e-04  3.61e-04     0.8
   10    -1224.1748037989725617    -2.93e-06  1.01e-05  5.63e-04  5.57e-05     0.8
   11    -1224.1748032064090239     5.93e-07  6.06e-06  2.56e-04  1.69e-04     0.8
   12    -1224.1748039842930211    -7.78e-07  4.06e-06  2.75e-04  1.72e-05     0.8
   13    -1224.1748039009110016     8.34e-08  2.52e-06  1.49e-04  3.95e-05     0.8
   14    -1224.1748039969654656    -9.61e-08  1.24e-06  7.95e-05  8.33e-06     0.8
   15    -1224.1748039815331595     1.54e-08  7.99e-07  5.00e-05  1.66e-05     0.8
   16    -1224.1748039985075138    -1.70e-08  3.02e-07  1.75e-05  1.73e-06     0.7
                  *** Gradient check signals convergence ***

               *****************************************************
               *                     SUCCESS                       *
               *           SCF CONVERGED AFTER  16 CYCLES          *
               *****************************************************

             **** ENERGY FILE WAS UPDATED (data/geom_opt_P_BP86/627824/627824.en.tmp) ****

----------------
TOTAL SCF ENERGY
----------------

Total Energy       :      -1224.17480399850751 Eh          -33311.48994 eV

Components:
Nuclear Repulsion  :       1745.40343986138419 Eh           47494.84219 eV
Electronic Energy  :      -2969.57824385989170 Eh          -80806.33213 eV
One Electron Energy:      -5137.52715449490188 Eh         -139799.22113 eV
Two Electron Energy:       2167.94891063501018 Eh           58992.88900 eV

Virial components:
Potential Energy   :      -2437.84477930774301 Eh          -66337.12896 eV
Kinetic Energy     :       1213.66997530923550 Eh           33025.63902 eV
Virial Ratio       :          2.00865542437646

DFT components:
N(Alpha)           :       80.000042532219 electrons
N(Beta)            :       80.000042532219 electrons
N(Total)           :      160.000085064438 electrons
E(X)               :     -143.077881786488 Eh       
E(C)               :       -5.955413102306 Eh       
E(XC)              :     -149.033294888794 Eh       

---------------
SCF CONVERGENCE
---------------

  Last Energy change         ...    1.6974e-08  Tolerance :   1.0000e-08
  Last MAX-Density change    ...    1.7457e-05  Tolerance :   1.0000e-07
  Last RMS-Density change    ...    3.0183e-07  Tolerance :   5.0000e-09
  Last DIIS Error            ...    1.4906e-03  Tolerance :   5.0000e-07
  Last Orbital Gradient      ...    1.7297e-06  Tolerance :   1.0000e-05
  Last Orbital Rotation      ...    9.2654e-06  Tolerance :   1.0000e-05


----------------
ORBITAL ENERGIES
----------------

  NO   OCC          E(Eh)            E(eV) 
   0   2.0000     -76.348790     -2077.5562 
   1   2.0000     -18.826413      -512.2927 
   2   2.0000     -18.764689      -510.6131 
   3   2.0000     -10.033781      -273.0331 
   4   2.0000      -9.935803      -270.3669 
   5   2.0000      -9.933804      -270.3125 
   6   2.0000      -9.930492      -270.2224 
   7   2.0000      -9.930392      -270.2197 
   8   2.0000      -9.929966      -270.2081 
   9   2.0000      -9.929166      -270.1863 
  10   2.0000      -9.928257      -270.1616 
  11   2.0000      -9.927683      -270.1460 
  12   2.0000      -9.926176      -270.1050 
  13   2.0000      -9.925137      -270.0767 
  14   2.0000      -9.924837      -270.0685 
  15   2.0000      -9.923570      -270.0341 
  16   2.0000      -9.923323      -270.0273 
  17   2.0000      -9.923296      -270.0266 
  18   2.0000      -9.923053      -270.0200 
  19   2.0000      -9.922415      -270.0026 
  20   2.0000      -9.921944      -269.9898 
  21   2.0000      -9.921731      -269.9840 
  22   2.0000      -6.318275      -171.9290 
  23   2.0000      -4.539646      -123.5300 
  24   2.0000      -4.539597      -123.5287 
  25   2.0000      -4.535948      -123.4294 
  26   2.0000      -1.011037       -27.5117 
  27   2.0000      -0.914268       -24.8785 
  28   2.0000      -0.791523       -21.5384 
  29   2.0000      -0.783157       -21.3108 
  30   2.0000      -0.779350       -21.2072 
  31   2.0000      -0.714527       -19.4433 
  32   2.0000      -0.689229       -18.7549 
  33   2.0000      -0.682077       -18.5603 
  34   2.0000      -0.677446       -18.4342 
  35   2.0000      -0.677120       -18.4254 
  36   2.0000      -0.674478       -18.3535 
  37   2.0000      -0.614635       -16.7251 
  38   2.0000      -0.578833       -15.7508 
  39   2.0000      -0.558426       -15.1955 
  40   2.0000      -0.549955       -14.9650 
  41   2.0000      -0.549258       -14.9461 
  42   2.0000      -0.541494       -14.7348 
  43   2.0000      -0.531278       -14.4568 
  44   2.0000      -0.510732       -13.8977 
  45   2.0000      -0.480673       -13.0798 
  46   2.0000      -0.474271       -12.9056 
  47   2.0000      -0.457969       -12.4620 
  48   2.0000      -0.431927       -11.7533 
  49   2.0000      -0.418387       -11.3849 
  50   2.0000      -0.415431       -11.3044 
  51   2.0000      -0.414265       -11.2727 
  52   2.0000      -0.407897       -11.0994 
  53   2.0000      -0.406733       -11.0678 
  54   2.0000      -0.406682       -11.0664 
  55   2.0000      -0.398758       -10.8507 
  56   2.0000      -0.392252       -10.6737 
  57   2.0000      -0.384243       -10.4558 
  58   2.0000      -0.381769       -10.3885 
  59   2.0000      -0.380193       -10.3456 
  60   2.0000      -0.372945       -10.1484 
  61   2.0000      -0.354936        -9.6583 
  62   2.0000      -0.342277        -9.3138 
  63   2.0000      -0.340042        -9.2530 
  64   2.0000      -0.338458        -9.2099 
  65   2.0000      -0.332180        -9.0391 
  66   2.0000      -0.314204        -8.5499 
  67   2.0000      -0.312344        -8.4993 
  68   2.0000      -0.310563        -8.4508 
  69   2.0000      -0.299990        -8.1631 
  70   2.0000      -0.295217        -8.0333 
  71   2.0000      -0.279973        -7.6184 
  72   2.0000      -0.258017        -7.0210 
  73   2.0000      -0.247785        -6.7426 
  74   2.0000      -0.245112        -6.6698 
  75   2.0000      -0.243163        -6.6168 
  76   2.0000      -0.237747        -6.4694 
  77   2.0000      -0.236156        -6.4261 
  78   2.0000      -0.233472        -6.3531 
  79   2.0000      -0.193102        -5.2546 
  80   0.0000      -0.089796        -2.4435 
  81   0.0000      -0.063156        -1.7186 
  82   0.0000      -0.060082        -1.6349 
  83   0.0000      -0.050017        -1.3610 
  84   0.0000      -0.046290        -1.2596 
  85   0.0000      -0.043410        -1.1812 
  86   0.0000       0.000176         0.0048 
  87   0.0000       0.030657         0.8342 
  88   0.0000       0.033593         0.9141 
  89   0.0000       0.036718         0.9992 
  90   0.0000       0.045627         1.2416 
*Only the first 10 virtual orbitals were printed.

                    ********************************
                    * MULLIKEN POPULATION ANALYSIS *
                    ********************************

-----------------------
MULLIKEN ATOMIC CHARGES
-----------------------
   0 C :    0.010992
   1 C :    0.013105
   2 C :    0.002997
   3 C :   -0.129855
   4 C :    0.012776
   5 C :    0.009708
   6 P :    0.292790
   7 C :   -0.127400
   8 C :   -0.001223
   9 C :    0.013730
  10 C :    0.010648
  11 C :    0.010200
  12 C :    0.008422
  13 C :   -0.117589
  14 C :    0.015828
  15 C :    0.009383
  16 C :   -0.018818
  17 C :    0.003249
  18 C :    0.002649
  19 C :    0.104631
  20 O :   -0.186755
  21 O :   -0.140914
  22 H :   -0.001588
  23 H :   -0.002781
  24 H :    0.004835
  25 H :   -0.001423
  26 H :   -0.000952
  27 H :    0.006401
  28 H :   -0.003941
  29 H :   -0.002117
  30 H :   -0.001040
  31 H :   -0.002025
  32 H :    0.000740
  33 H :    0.005887
  34 H :    0.007662
  35 H :    0.011776
  36 H :    0.180012
Sum of atomic charges:   -0.0000000

--------------------------------
MULLIKEN REDUCED ORBITAL CHARGES
--------------------------------
  0 C s       :     3.169234  s :     3.169234
      pz      :     0.951755  p :     2.786611
      px      :     0.937335
      py      :     0.897521
      dz2     :     0.007657  d :     0.033164
      dxz     :     0.007615
      dyz     :     0.006110
      dx2y2   :     0.005152
      dxy     :     0.006632

  1 C s       :     3.169049  s :     3.169049
      pz      :     0.879122  p :     2.784998
      px      :     0.958752
      py      :     0.947125
      dz2     :     0.006000  d :     0.032848
      dxz     :     0.006351
      dyz     :     0.006228
      dx2y2   :     0.007301
      dxy     :     0.006969

  2 C s       :     3.233340  s :     3.233340
      pz      :     0.927601  p :     2.730977
      px      :     0.874253
      py      :     0.929123
      dz2     :     0.006577  d :     0.032686
      dxz     :     0.007244
      dyz     :     0.006896
      dx2y2   :     0.006467
      dxy     :     0.005502

  3 C s       :     3.075121  s :     3.075121
      pz      :     0.996589  p :     3.019768
      px      :     1.018380
      py      :     1.004799
      dz2     :     0.008046  d :     0.034966
      dxz     :     0.007868
      dyz     :     0.007179
      dx2y2   :     0.005401
      dxy     :     0.006473

  4 C s       :     3.219754  s :     3.219754
      pz      :     0.883529  p :     2.734931
      px      :     0.942010
      py      :     0.909393
      dz2     :     0.005754  d :     0.032539
      dxz     :     0.006412
      dyz     :     0.006206
      dx2y2   :     0.007178
      dxy     :     0.006988

  5 C s       :     3.169112  s :     3.169112
      pz      :     0.938931  p :     2.788338
      px      :     0.886254
      py      :     0.963153
      dz2     :     0.006695  d :     0.032841
      dxz     :     0.007160
      dyz     :     0.006995
      dx2y2   :     0.006357
      dxy     :     0.005634

  6 P s       :     5.651035  s :     5.651035
      pz      :     3.342557  p :     8.880802
      px      :     2.768366
      py      :     2.769879
      dz2     :     0.015434  d :     0.175372
      dxz     :     0.036479
      dyz     :     0.033184
      dx2y2   :     0.043769
      dxy     :     0.046506

  7 C s       :     3.073165  s :     3.073165
      pz      :     0.995994  p :     3.019340
      px      :     1.020840
      py      :     1.002506
      dz2     :     0.006952  d :     0.034895
      dxz     :     0.004817
      dyz     :     0.008777
      dx2y2   :     0.006852
      dxy     :     0.007497

  8 C s       :     3.234398  s :     3.234398
      pz      :     0.940715  p :     2.734174
      px      :     0.962721
      py      :     0.830738
      dz2     :     0.005962  d :     0.032651
      dxz     :     0.004633
      dyz     :     0.007717
      dx2y2   :     0.007299
      dxy     :     0.007040

  9 C s       :     3.168411  s :     3.168411
      pz      :     0.903859  p :     2.784979
      px      :     0.917530
      py      :     0.963590
      dz2     :     0.004487  d :     0.032880
      dxz     :     0.004365
      dyz     :     0.007898
      dx2y2   :     0.008287
      dxy     :     0.007842

 10 C s       :     3.169012  s :     3.169012
      pz      :     0.952136  p :     2.787180
      px      :     0.950798
      py      :     0.884246
      dz2     :     0.006208  d :     0.033160
      dxz     :     0.004457
      dyz     :     0.007949
      dx2y2   :     0.006859
      dxy     :     0.007686

 11 C s       :     3.168783  s :     3.168783
      pz      :     0.955844  p :     2.788129
      px      :     0.968574
      py      :     0.863712
      dz2     :     0.006130  d :     0.032887
      dxz     :     0.004697
      dyz     :     0.007701
      dx2y2   :     0.007507
      dxy     :     0.006853

 12 C s       :     3.219922  s :     3.219922
      pz      :     0.904539  p :     2.739142
      px      :     0.909210
      py      :     0.925393
      dz2     :     0.004343  d :     0.032514
      dxz     :     0.004362
      dyz     :     0.007947
      dx2y2   :     0.008117
      dxy     :     0.007745

 13 C s       :     3.078657  s :     3.078657
      pz      :     0.986586  p :     3.003691
      px      :     1.000968
      py      :     1.016138
      dz2     :     0.007736  d :     0.035241
      dxz     :     0.008884
      dyz     :     0.005510
      dx2y2   :     0.007252
      dxy     :     0.005858

 14 C s       :     3.223368  s :     3.223368
      pz      :     0.887392  p :     2.728580
      px      :     0.910249
      py      :     0.930938
      dz2     :     0.005261  d :     0.032225
      dxz     :     0.007374
      dyz     :     0.005023
      dx2y2   :     0.007380
      dxy     :     0.007188

 15 C s       :     3.241668  s :     3.241668
      pz      :     0.946314  p :     2.716752
      px      :     0.862092
      py      :     0.908346
      dz2     :     0.007046  d :     0.032197
      dxz     :     0.007764
      dyz     :     0.005058
      dx2y2   :     0.005149
      dxy     :     0.007180

 16 C s       :     3.098383  s :     3.098383
      pz      :     0.942025  p :     2.883186
      px      :     0.954311
      py      :     0.986851
      dz2     :     0.007307  d :     0.037249
      dxz     :     0.009185
      dyz     :     0.006103
      dx2y2   :     0.008476
      dxy     :     0.006178

 17 C s       :     3.256226  s :     3.256226
      pz      :     0.856797  p :     2.708342
      px      :     0.935233
      py      :     0.916313
      dz2     :     0.005216  d :     0.032183
      dxz     :     0.007544
      dyz     :     0.004729
      dx2y2   :     0.007139
      dxy     :     0.007555

 18 C s       :     3.240842  s :     3.240842
      pz      :     0.929557  p :     2.724119
      px      :     0.863090
      py      :     0.931472
      dz2     :     0.006620  d :     0.032390
      dxz     :     0.008293
      dyz     :     0.004954
      dx2y2   :     0.005312
      dxy     :     0.007211

 19 C s       :     3.031326  s :     3.031326
      pz      :     0.910306  p :     2.735292
      px      :     0.964712
      py      :     0.860273
      dz2     :     0.026387  d :     0.128752
      dxz     :     0.033625
      dyz     :     0.022287
      dx2y2   :     0.022860
      dxy     :     0.023593

 20 O s       :     3.722935  s :     3.722935
      pz      :     1.345835  p :     4.446419
      px      :     1.655829
      py      :     1.444754
      dz2     :     0.005506  d :     0.017401
      dxz     :     0.003288
      dyz     :     0.005140
      dx2y2   :     0.001620
      dxy     :     0.001847

 21 O s       :     3.679469  s :     3.679469
      pz      :     1.590941  p :     4.447930
      px      :     1.253733
      py      :     1.603257
      dz2     :     0.001890  d :     0.013515
      dxz     :     0.004348
      dyz     :     0.002734
      dx2y2   :     0.002382
      dxy     :     0.002161

 22 H s       :     0.979233  s :     0.979233
      pz      :     0.005202  p :     0.022355
      px      :     0.007030
      py      :     0.010123

 23 H s       :     0.980428  s :     0.980428
      pz      :     0.010984  p :     0.022353
      px      :     0.004858
      py      :     0.006511

 24 H s       :     0.972042  s :     0.972042
      pz      :     0.006752  p :     0.023124
      px      :     0.011219
      py      :     0.005153

 25 H s       :     0.978929  s :     0.978929
      pz      :     0.011110  p :     0.022495
      px      :     0.004819
      py      :     0.006565

 26 H s       :     0.978557  s :     0.978557
      pz      :     0.006613  p :     0.022395
      px      :     0.010751
      py      :     0.005032

 27 H s       :     0.970406  s :     0.970406
      pz      :     0.005786  p :     0.023193
      px      :     0.005172
      py      :     0.012234

 28 H s       :     0.981594  s :     0.981594
      pz      :     0.009585  p :     0.022347
      px      :     0.009033
      py      :     0.003730

 29 H s       :     0.979751  s :     0.979751
      pz      :     0.005598  p :     0.022366
      px      :     0.006124
      py      :     0.010644

 30 H s       :     0.978643  s :     0.978643
      pz      :     0.005728  p :     0.022398
      px      :     0.005107
      py      :     0.011563

 31 H s       :     0.979531  s :     0.979531
      pz      :     0.009704  p :     0.022495
      px      :     0.009023
      py      :     0.003768

 32 H s       :     0.976792  s :     0.976792
      pz      :     0.010655  p :     0.022468
      px      :     0.004377
      py      :     0.007436

 33 H s       :     0.971436  s :     0.971436
      pz      :     0.005486  p :     0.022677
      px      :     0.008804
      py      :     0.008387

 34 H s       :     0.969694  s :     0.969694
      pz      :     0.010850  p :     0.022644
      px      :     0.004548
      py      :     0.007246

 35 H s       :     0.965107  s :     0.965107
      pz      :     0.005646  p :     0.023117
      px      :     0.008813
      py      :     0.008657

 36 H s       :     0.754893  s :     0.754893
      pz      :     0.020582  p :     0.065094
      px      :     0.029817
      py      :     0.014694



                     *******************************
                     * LOEWDIN POPULATION ANALYSIS *
                     *******************************

----------------------
LOEWDIN ATOMIC CHARGES
----------------------
   0 C :   -0.024095
   1 C :   -0.026983
   2 C :   -0.030505
   3 C :   -0.177112
   4 C :   -0.027050
   5 C :   -0.027500
   6 P :    0.513905
   7 C :   -0.178543
   8 C :   -0.031726
   9 C :   -0.026945
  10 C :   -0.025147
  11 C :   -0.027286
  12 C :   -0.028432
  13 C :   -0.163045
  14 C :   -0.026489
  15 C :   -0.003441
  16 C :   -0.074876
  17 C :    0.008752
  18 C :   -0.031024
  19 C :    0.051787
  20 O :   -0.171500
  21 O :   -0.021321
  22 H :    0.031003
  23 H :    0.031720
  24 H :    0.031345
  25 H :    0.029341
  26 H :    0.032115
  27 H :    0.031524
  28 H :    0.031312
  29 H :    0.030805
  30 H :    0.032125
  31 H :    0.028953
  32 H :    0.031199
  33 H :    0.036459
  34 H :    0.039199
  35 H :    0.034367
  36 H :    0.097111

-------------------------------
LOEWDIN REDUCED ORBITAL CHARGES
-------------------------------
  0 C s       :     2.863370  s :     2.863370
      pz      :     1.034062  p :     3.070905
      px      :     1.027743
      py      :     1.009100
      dz2     :     0.019903  d :     0.089821
      dxz     :     0.021947
      dyz     :     0.017097
      dx2y2   :     0.013341
      dxy     :     0.017533

  1 C s       :     2.864348  s :     2.864348
      pz      :     1.018647  p :     3.073605
      px      :     1.035082
      py      :     1.019877
      dz2     :     0.015531  d :     0.089030
      dxz     :     0.018069
      dyz     :     0.016536
      dx2y2   :     0.018673
      dxy     :     0.020220

  2 C s       :     2.868589  s :     2.868589
      pz      :     1.022622  p :     3.072454
      px      :     1.023965
      py      :     1.025867
      dz2     :     0.017425  d :     0.089462
      dxz     :     0.019443
      dyz     :     0.020740
      dx2y2   :     0.016321
      dxy     :     0.015533

  3 C s       :     2.913902  s :     2.913902
      pz      :     1.066064  p :     3.171984
      px      :     1.052547
      py      :     1.053372
      dz2     :     0.019799  d :     0.091226
      dxz     :     0.021942
      dyz     :     0.019775
      dx2y2   :     0.013575
      dxy     :     0.016134

  4 C s       :     2.869654  s :     2.869654
      pz      :     1.019184  p :     3.068436
      px      :     1.031215
      py      :     1.018037
      dz2     :     0.015399  d :     0.088959
      dxz     :     0.017893
      dyz     :     0.016641
      dx2y2   :     0.018222
      dxy     :     0.020804

  5 C s       :     2.863750  s :     2.863750
      pz      :     1.031872  p :     3.074718
      px      :     1.017618
      py      :     1.025227
      dz2     :     0.017665  d :     0.089033
      dxz     :     0.019219
      dyz     :     0.020259
      dx2y2   :     0.015909
      dxy     :     0.015980

  6 P s       :     5.233803  s :     5.233803
      pz      :     3.402018  p :     9.008393
      px      :     2.802760
      py      :     2.803616
      dz2     :     0.021953  d :     0.243899
      dxz     :     0.049825
      dyz     :     0.044426
      dx2y2   :     0.061661
      dxy     :     0.066034

  7 C s       :     2.914475  s :     2.914475
      pz      :     1.048511  p :     3.173036
      px      :     1.047185
      py      :     1.077340
      dz2     :     0.015837  d :     0.091032
      dxz     :     0.014326
      dyz     :     0.023046
      dx2y2   :     0.018729
      dxy     :     0.019095

  8 C s       :     2.868232  s :     2.868232
      pz      :     1.007108  p :     3.074130
      px      :     1.014530
      py      :     1.052492
      dz2     :     0.014598  d :     0.089364
      dxz     :     0.014101
      dyz     :     0.021263
      dx2y2   :     0.019965
      dxy     :     0.019437

  9 C s       :     2.864287  s :     2.864287
      pz      :     1.005512  p :     3.073559
      px      :     1.000168
      py      :     1.067878
      dz2     :     0.011205  d :     0.089099
      dxz     :     0.010958
      dyz     :     0.021859
      dx2y2   :     0.023697
      dxy     :     0.021381

 10 C s       :     2.863219  s :     2.863219
      pz      :     1.014960  p :     3.072096
      px      :     1.007342
      py      :     1.049794
      dz2     :     0.015149  d :     0.089832
      dxz     :     0.013272
      dyz     :     0.021717
      dx2y2   :     0.019391
      dxy     :     0.020304

 11 C s       :     2.863658  s :     2.863658
      pz      :     1.017653  p :     3.074485
      px      :     1.012603
      py      :     1.044229
      dz2     :     0.014944  d :     0.089143
      dxz     :     0.014017
      dyz     :     0.020962
      dx2y2   :     0.020463
      dxy     :     0.018757

 12 C s       :     2.869225  s :     2.869225
      pz      :     1.006877  p :     3.070300
      px      :     0.999640
      py      :     1.063783
      dz2     :     0.011225  d :     0.088907
      dxz     :     0.011072
      dyz     :     0.021708
      dx2y2   :     0.023987
      dxy     :     0.020914

 13 C s       :     2.917448  s :     2.917448
      pz      :     1.050811  p :     3.154136
      px      :     1.074180
      py      :     1.029145
      dz2     :     0.018550  d :     0.091461
      dxz     :     0.023430
      dyz     :     0.015998
      dx2y2   :     0.017329
      dxy     :     0.016155

 14 C s       :     2.869330  s :     2.869330
      pz      :     1.016117  p :     3.068720
      px      :     1.048880
      py      :     1.003724
      dz2     :     0.013901  d :     0.088439
      dxz     :     0.020724
      dyz     :     0.012984
      dx2y2   :     0.020484
      dxy     :     0.020346

 15 C s       :     2.865107  s :     2.865107
      pz      :     1.014078  p :     3.050055
      px      :     1.042862
      py      :     0.993116
      dz2     :     0.017926  d :     0.088279
      dxz     :     0.023150
      dyz     :     0.013975
      dx2y2   :     0.014663
[...]
      dxz     :     0.019090
      dyz     :     0.013669
      dx2y2   :     0.020528
      dxy     :     0.021361

 15 C s       :     2.872341  s :     2.872341
      pz      :     1.007519  p :     3.047041
      px      :     1.037151
      py      :     1.002372
      dz2     :     0.016914  d :     0.086151
      dxz     :     0.020335
      dyz     :     0.013982
      dx2y2   :     0.015045
      dxy     :     0.019876

 16 C s       :     2.870560  s :     2.870560
      pz      :     1.031660  p :     3.103782
      px      :     1.026445
      py      :     1.045677
      dz2     :     0.016286  d :     0.100921
      dxz     :     0.024003
      dyz     :     0.018105
      dx2y2   :     0.023290
      dxy     :     0.019237

 17 C s       :     2.872775  s :     2.872775
      pz      :     1.000991  p :     3.034539
      px      :     1.034157
      py      :     0.999390
      dz2     :     0.012064  d :     0.085860
      dxz     :     0.019245
      dyz     :     0.012872
      dx2y2   :     0.019760
      dxy     :     0.021919

 18 C s       :     2.874414  s :     2.874414
      pz      :     1.014847  p :     3.073776
      px      :     1.041292
      py      :     1.017636
      dz2     :     0.015913  d :     0.087095
      dxz     :     0.021463
      dyz     :     0.014123
      dx2y2   :     0.015576
      dxy     :     0.020019

 19 C s       :     2.851071  s :     2.851071
      pz      :     0.951840  p :     2.807469
      px      :     0.960250
      py      :     0.895380
      dz2     :     0.049733  d :     0.279338
      dxz     :     0.066980
      dyz     :     0.052310
      dx2y2   :     0.055039
      dxy     :     0.055275

 20 O s       :     3.555298  s :     3.555298
      pz      :     1.429767  p :     4.585093
      px      :     1.659376
      py      :     1.495950
      dz2     :     0.007324  d :     0.030292
      dxz     :     0.005124
      dyz     :     0.011217
      dx2y2   :     0.003166
      dxy     :     0.003461

 21 O s       :     3.447159  s :     3.447159
      pz      :     1.635532  p :     4.561881
      px      :     1.332800
      py      :     1.593548
      dz2     :     0.002210  d :     0.025791
      dxz     :     0.008377
      dyz     :     0.004069
      dx2y2   :     0.005452
      dxy     :     0.005683

 22 H s       :     0.900002  s :     0.900002
      pz      :     0.015912  p :     0.065951
      px      :     0.020631
      py      :     0.029408

 23 H s       :     0.899467  s :     0.899467
      pz      :     0.032925  p :     0.065924
      px      :     0.014355
      py      :     0.018644

 24 H s       :     0.895610  s :     0.895610
      pz      :     0.018448  p :     0.068829
      px      :     0.034944
      py      :     0.015437

 25 H s       :     0.901410  s :     0.901410
      pz      :     0.033710  p :     0.066712
      px      :     0.013987
      py      :     0.019016

 26 H s       :     0.899362  s :     0.899362
      pz      :     0.018338  p :     0.065876
      px      :     0.032968
      py      :     0.014569

 27 H s       :     0.894965  s :     0.894965
      pz      :     0.016081  p :     0.069124
      px      :     0.013965
      py      :     0.039079

 28 H s       :     0.899756  s :     0.899756
      pz      :     0.030511  p :     0.065890
      px      :     0.024252
      py      :     0.011127

 29 H s       :     0.899950  s :     0.899950
      pz      :     0.017237  p :     0.065949
      px      :     0.017714
      py      :     0.030998

 30 H s       :     0.899257  s :     0.899257
      pz      :     0.016112  p :     0.065885
      px      :     0.013960
      py      :     0.035813

 31 H s       :     0.901540  s :     0.901540
      pz      :     0.031351  p :     0.066739
      px      :     0.024481
      py      :     0.010908

 32 H s       :     0.899403  s :     0.899403
      pz      :     0.030194  p :     0.066729
      px      :     0.012903
      py      :     0.023632

 33 H s       :     0.892796  s :     0.892796
      pz      :     0.014620  p :     0.068568
      px      :     0.026460
      py      :     0.027487

 34 H s       :     0.889367  s :     0.889367
      pz      :     0.031501  p :     0.069116
      px      :     0.014455
      py      :     0.023160

 35 H s       :     0.892290  s :     0.892290
      pz      :     0.014882  p :     0.069385
      px      :     0.026733
      py      :     0.027770

 36 H s       :     0.731934  s :     0.731934
      pz      :     0.058872  p :     0.169408
      px      :     0.073610
      py      :     0.036927



                      *****************************
                      * MAYER POPULATION ANALYSIS *
                      *****************************

  NA   - Mulliken gross atomic population
  ZA   - Total nuclear charge
  QA   - Mulliken gross atomic charge
  VA   - Mayer's total valence
  BVA  - Mayer's bonded valence
  FA   - Mayer's free valence

  ATOM       NA         ZA         QA         VA         BVA        FA
  0 C      5.9956     6.0000     0.0044     3.8262     3.8262    -0.0000
  1 C      5.9969     6.0000     0.0031     3.8381     3.8381    -0.0000
  2 C      5.9929     6.0000     0.0071     3.8761     3.8761    -0.0000
  3 C      6.1649     6.0000    -0.1649     3.8507     3.8507    -0.0000
  4 C      5.9815     6.0000     0.0185     3.8628     3.8628    -0.0000
  5 C      6.0002     6.0000    -0.0002     3.8572     3.8572    -0.0000
  6 P     14.6912    15.0000     0.3088     2.9968     2.9968    -0.0000
  7 C      6.1662     6.0000    -0.1662     3.8414     3.8414    -0.0000
  8 C      5.9905     6.0000     0.0095     3.8798     3.8798    -0.0000
  9 C      5.9953     6.0000     0.0047     3.8370     3.8370    -0.0000
 10 C      5.9953     6.0000     0.0047     3.8258     3.8258    -0.0000
 11 C      5.9998     6.0000     0.0002     3.8577     3.8577    -0.0000
 12 C      5.9878     6.0000     0.0122     3.8656     3.8656    -0.0000
 13 C      6.1479     6.0000    -0.1479     3.8105     3.8105    -0.0000
 14 C      5.9830     6.0000     0.0170     3.8438     3.8438    -0.0000
 15 C      5.9930     6.0000     0.0070     3.8397     3.8397    -0.0000
 16 C      6.0353     6.0000    -0.0353     3.7122     3.7122    -0.0000
 17 C      5.9984     6.0000     0.0016     3.8519     3.8519    -0.0000
 18 C      5.9899     6.0000     0.0101     3.8424     3.8424    -0.0000
 19 C      5.8822     6.0000     0.1178     4.3288     4.3288    -0.0000
 20 O      8.1866     8.0000    -0.1866     2.3319     2.3319    -0.0000
 21 O      8.1586     8.0000    -0.1586     2.3025     2.3025    -0.0000
 22 H      0.9926     1.0000     0.0074     0.9790     0.9790    -0.0000
 23 H      0.9940     1.0000     0.0060     0.9790     0.9790    -0.0000
 24 H      0.9818     1.0000     0.0182     0.9899     0.9899     0.0000
 25 H      0.9939     1.0000     0.0061     0.9904     0.9904     0.0000
 26 H      0.9924     1.0000     0.0076     0.9792     0.9792    -0.0000
 27 H      0.9831     1.0000     0.0169     0.9918     0.9918    -0.0000
 28 H      0.9948     1.0000     0.0052     0.9790     0.9790     0.0000
 29 H      0.9925     1.0000     0.0075     0.9790     0.9790    -0.0000
 30 H      0.9922     1.0000     0.0078     0.9791     0.9791    -0.0000
 31 H      0.9936     1.0000     0.0064     0.9904     0.9904     0.0000
 32 H      0.9919     1.0000     0.0081     0.9912     0.9912    -0.0000
 33 H      0.9868     1.0000     0.0132     1.0030     1.0030    -0.0000
 34 H      0.9843     1.0000     0.0157     1.0064     1.0064     0.0000
 35 H      0.9769     1.0000     0.0231     0.9912     0.9912    -0.0000
 36 H      0.8164     1.0000     0.1836     1.0345     1.0345    -0.0000

  Mayer bond orders larger than 0.100000
B(  0-C ,  1-C ) :   1.3781 B(  0-C ,  5-C ) :   1.3762 B(  0-C , 22-H ) :   0.9758 
B(  1-C ,  2-C ) :   1.3843 B(  1-C , 23-H ) :   0.9750 B(  2-C ,  3-C ) :   1.3770 
B(  2-C , 24-H ) :   0.9670 B(  3-C ,  4-C ) :   1.3640 B(  3-C ,  6-P ) :   0.9424 
B(  4-C ,  5-C ) :   1.4016 B(  4-C , 25-H ) :   0.9717 B(  5-C , 26-H ) :   0.9759 
B(  6-P ,  7-C ) :   0.9368 B(  6-P , 13-C ) :   0.9327 B(  7-C ,  8-C ) :   1.3813 
B(  7-C , 12-C ) :   1.3611 B(  8-C ,  9-C ) :   1.3849 B(  8-C , 27-H ) :   0.9670 
B(  9-C , 10-C ) :   1.3779 B(  9-C , 28-H ) :   0.9747 B( 10-C , 11-C ) :   1.3764 
B( 10-C , 29-H ) :   0.9757 B( 11-C , 12-C ) :   1.4016 B( 11-C , 30-H ) :   0.9760 
B( 12-C , 31-H ) :   0.9719 B( 13-C , 14-C ) :   1.3401 B( 13-C , 18-C ) :   1.3675 
B( 14-C , 15-C ) :   1.3947 B( 14-C , 32-H ) :   0.9718 B( 15-C , 16-C ) :   1.3348 
B( 15-C , 33-H ) :   0.9755 B( 16-C , 17-C ) :   1.3720 B( 16-C , 19-C ) :   0.9367 
B( 17-C , 18-C ) :   1.3582 B( 17-C , 34-H ) :   0.9754 B( 18-C , 35-H ) :   0.9692 
B( 19-C , 20-O ) :   2.0986 B( 19-C , 21-O ) :   1.2590 B( 21-O , 36-H ) :   0.9380 


-------
TIMINGS
-------

Total SCF time: 0 days 0 hours 0 min 8 sec 

Total time                  ....       8.003 sec
Sum of individual times     ....       7.902 sec  ( 98.7%)

SCF preparation             ....       0.118 sec  (  1.5%)
Fock matrix formation       ....       7.106 sec  ( 88.8%)
  Startup                   ....       0.036 sec  (  0.5% of F)
  Split-RI-J                ....       2.600 sec  ( 36.6% of F)
  XC integration            ....       4.335 sec  ( 61.0% of F)
    Basis function eval.    ....       1.360 sec  ( 31.4% of XC)
    Density eval.           ....       1.328 sec  ( 30.6% of XC)
    XC-Functional eval.     ....       0.123 sec  (  2.8% of XC)
    XC-Potential eval.      ....       0.833 sec  ( 19.2% of XC)
Diagonalization             ....       0.000 sec  (  0.0%)
Density matrix formation    ....       0.087 sec  (  1.1%)
Total Energy calculation    ....       0.032 sec  (  0.4%)
Population analysis         ....       0.092 sec  (  1.1%)
Orbital Transformation      ....       0.061 sec  (  0.8%)
Orbital Orthonormalization  ....       0.000 sec  (  0.0%)
DIIS solution               ....       0.054 sec  (  0.7%)
SOSCF solution              ....       0.352 sec  (  4.4%)
Finished LeanSCF after   8.1 sec

Maximum memory used throughout the entire LEANSCF-calculation: 40.0 MB


-------------------------------------------------------------------------------
                          DFT DISPERSION CORRECTION                            
                                                                               
                              DFTD3 V3.1  Rev 1                                
                          USING Becke-Johnson damping                          
-------------------------------------------------------------------------------
The BP86 functional is recognized
Active option DFTDOPT                   ...         4   

molecular C6(AA) [au] = 19739.864055 


            DFT-D V3
 parameters
 s6 scaling factor         :     1.0000 
 a1 scaling factor         :     0.3946 
 s8 scaling factor         :     3.2822 
 a2 scaling factor         :     4.8516 
 ad hoc parameters k1-k3   :    16.0000     1.3333    -4.0000 

 Edisp/kcal,au: -55.758433448309  -0.088856710225 
 E6   /kcal   : -20.156977069 
 E8   /kcal   : -35.601456380 
 % E8         :  63.849455908 

-------------------------   ----------------
Dispersion correction           -0.088856710
-------------------------   ----------------


-------------------------   --------------------
FINAL SINGLE POINT ENERGY     -1224.269240452638
-------------------------   --------------------

                                *** OPTIMIZATION RUN DONE ***



           ************************************************************
           *        Program running with 6 parallel MPI-processes     *
           *              working on a common directory               *
           ************************************************************

------------------------------------------------------------------------------
                              ORCA PROPERTY CALCULATIONS
------------------------------------------------------------------------------

GBWName                                 ... data/geom_opt_P_BP86/627824/627824.gbw
Number of atoms                         ...     37
Number of basis functions               ...    387
Max core memory                         ...   1024 MB

Electric properties:
Dipole moment                           ... YES
Quadrupole moment                       ...  NO
Static polarizability (Dipole/Dipole)   ...  NO
Static polarizability (Dipole/Quad.)    ...  NO
Static polarizability (Quad./Quad.)     ...  NO
Static polarizability (Velocity)        ...  NO

Atomic electric properties:
Dipole moment                           ...  NO
Quadrupole moment                       ...  NO
Static polarizability                   ...  NO

Choice of electric origin               ... Center of mass
Position of electric origin             ...     0.631567    -0.007154    -0.150190

General magnetic properties:
Magnetizability                         ...  NO

EPR properties:
g-Tensor (aka g-matrix)                 ...  NO
Zero-Field splitting spin-orbit         ...  NO
Zero-field splitting spin-spin          ...  NO
Hyperfine couplings                     ...  NO (   0 nuclei)
Quadrupole couplings                    ...  NO (   0 nuclei)
Contact density                         ...  NO (   0 nuclei)

NMR properties:
Chemical shifts                         ...  NO (   0 nuclei)
Spin-rotation constants                 ...  NO (   0 nuclei)
Spin-spin couplings                     ...  NO (   0 nuclei,    0 pairs)

Choice of magnetic origin               ... GIAO
Position of magnetic origin             ...     0.000000     0.000000     0.000000

Properties with geometric perturbations:
SCF Hessian                             ...  NO
IR spectrum                             ...  NO
VCD spectrum                            ...  NO
X-ray spectroscopy properties:
SCF XES/XAS/RIXS spectra                ...  NO


-------------
DIPOLE MOMENT
-------------

Method             : SCF
Type of density    : Electron Density
Multiplicity       :   1
Irrep              :   0
Energy             : -1224.1803837424129142 Eh
Relativity type    : 
Basis              : AO
                                X                 Y                 Z
Electronic contribution:      9.001297542      -0.260806274      -3.072264247
Nuclear contribution   :     -9.550327826      -0.097168544       3.064924602
                        -----------------------------------------
Total Dipole Moment    :     -0.549030284      -0.357974818      -0.007339645
                        -----------------------------------------
Magnitude (a.u.)       :      0.655464792
Magnitude (Debye)      :      1.666059097



--------------------
Rotational spectrum 
--------------------
 
Rotational constants in cm-1:             0.011204             0.005822             0.004378 
Rotational constants in MHz :           335.889925           174.531766           131.257430 

Dipole components along the rotational axes: 
x,y,z [a.u.] :    -0.507338     0.397970     0.117737 
x,y,z [Debye]:    -1.289551     1.011560     0.299263 

 

Dipole moment calculation done in   0.0 sec 

Maximum memory used throughout the entire PROP-calculation: 20.4 MB

--------------------------------
SUGGESTED CITATIONS FOR THIS RUN
--------------------------------

Below you find a list of papers that are relevant to this ORCA run
We neither can nor want to force you to cite these papers, but we appreciate if you do
You receive ORCA, which is the product of decades of hard work by many enthusiastic individuals, for free
The only thing we kindly ask in return is that you cite our papers,
We deeply appreciate it, if you show your appreciation for ORCA by not just citing the generic ORCA reference.

Please note that relegating all ORCA citations to the supporting information does *not* help us.
SI sections are not indexed - citations you put there will not count into any citation statistics
But we need these citations in order to attract the funding resources that allow us to do what we are doing

Therefore, if you are a happy ORCA user, please consider citing a few of the papers listed below in the main body of your paper

In addition to the list printed below, the program has created the file data/geom_opt_P_BP86/627824/627824.bibtex that contains the list in bibtex format
You can import this file easily into all common literature databanks and citation aid programs


List of essential papers. We consider these as the minimum necessary citations

  1. Neese,F.
     Software update: the ORCA program system, version 5.0
     WIRES Comput. Molec. Sci., 2022 12(1)e1606
     doi.org/10.1002/wcms.1606

List of papers to cite with high priority. The work reported in these papers was absolutely
necessary for this run to complete.
Our perspective: the developers of density functionals and basis sets usually get cited in chemistry papers
Good! But without the algorithms to do something with them, the functionals or basis sets would not do anything.
Hence, in our opinion, the algorithm design and method developments papers are equally worthy of getting cited

  1. Neese,F.
     An improvement of the resolution of the identity approximation for the formation of the Coulomb matrix
     J. Comp. Chem., 2003 24(14)1740-1747
     doi.org/10.1002/jcc.10318
  2. Neese,F.
     The SHARK Integral Generation and Digestion System
     J. Comp. Chem., 2022  1-16
     doi.org/10.1002/jcc.26942
  3. Grimme,S.; Antony,J.; Ehrlich,S.; Krieg,H.
     A consistent and accurate ab initio parametrization of density functional dispersion correction (DFT-D) for the 94 elements H-Pu
     J. Chem. Phys., 2010 132 154104-XXXX
     doi.org/10.1063/1.3382344
  4. Grimme,S.; Ehrlich,S.; Goerigk,L.
     Effect of the damping function in dispersion corrected density functional theory
     J. Comput. Chem., 2011 32(7)1456-1465
     doi.org/10.1002/jcc.21759

List of suggested additional citations. These are papers that are important in the 'surrounding' of 
of this run, or papers that preceded the highly important papers. If you like your results we are grateful for a citation.

  1. Neese,F.
     The ORCA program system
     WIRES Comput. Molec. Sci., 2012 2(1)73-78
     doi.org/10.1002/wcms.81
  2. Neese,F.
     Software update: the ORCA program system, version 4.0
     WIRES Comput. Molec. Sci., 2018 8(1)1-6
     doi.org/10.1002/wcms.1327
  3. Neese,F.; Wennmohs,F.; Becker,U.; Riplinger,C.
     The ORCA quantum chemistry program package
     J. Chem. Phys., 2020 152 Art. No. L224108
     doi.org/10.1063/5.0004608

List of optional additional citations

  1. Neese,F.
     Approximate second-order SCF convergence for spin unrestricted wavefunctions
     Chem. Phys. Lett., 2000 325(1-3)93-98
     doi.org/10.1016/s0009-2614(00)00662-x

Timings for individual modules:

Sum of individual times          ...      155.268 sec (=   2.588 min)
Startup calculation              ...       13.332 sec (=   0.222 min)   8.6 %
SCF iterations                   ...       94.534 sec (=   1.576 min)  60.9 %
Property calculations            ...        0.169 sec (=   0.003 min)   0.1 %
SCF Gradient evaluation          ...       47.086 sec (=   0.785 min)  30.3 %
Geometry relaxation              ...        0.147 sec (=   0.002 min)   0.1 %
                             ****ORCA TERMINATED NORMALLY****
TOTAL RUN TIME: 0 days 0 hours 2 minutes 36 seconds 944 msec
