
                                 *****************
                                 * O   R   C   A *
                                 *****************

                                            #,                                       
                                            ###                                      
                                            ####                                     
                                            #####                                    
                                            ######                                   
                                           ########,                                 
                                     ,,################,,,,,                         
                               ,,#################################,,                 
                          ,,##########################################,,             
                       ,#########################################, ''#####,          
                    ,#############################################,,   '####,        
                  ,##################################################,,,,####,       
                ,###########''''           ''''###############################       
              ,#####''   ,,,,##########,,,,          '''####'''          '####       
            ,##' ,,,,###########################,,,                        '##       
           ' ,,###''''                  '''############,,,                           
         ,,##''                                '''############,,,,        ,,,,,,###''
      ,#''                                            '''#######################'''  
     '                                                          ''''####''''         
             ,#######,   #######,   ,#######,      ##                                
            ,#'     '#,  ##    ##  ,#'     '#,    #''#        ,####,   ,####,        
            ##       ##  ##   ,#'  ##            #'  '#       #'       #'  '#        
            ##       ##  #######   ##           ,######,      #####,   #    #        
            '#,     ,#'  ##    ##  '#,     ,#' ,#      #,     #,   #   #,  ,#        
             '#######'   ##     ##  '#######'  #'      '#     '####' # '####'        



                #########################################################
                #                        -***-                          #
                #          Department of theory and spectroscopy        #
                #                                                       #
                #                      Frank Neese                      #
                #                                                       #
                #     Directorship, Architecture, Infrastructure        #
                #                    SHARK, DRIVERS                     #
                #        Core code/Algorithms in most modules           #
                #                                                       #
                #        Max Planck Institute fuer Kohlenforschung      #
                #                Kaiser Wilhelm Platz 1                 #
                #                 D-45470 Muelheim/Ruhr                 #
                #                      Germany                          #
                #                                                       #
                #                  All rights reserved                  #
                #                        -***-                          #
                #########################################################


                         Program Version 6.0.0  -   RELEASE   -


 With contributions from (in alphabetic order):
   Daniel Aravena         : Magnetic Suceptibility
   Michael Atanasov       : Ab Initio Ligand Field Theory (pilot matlab implementation)
   Alexander A. Auer      : GIAO ZORA, VPT2 properties, NMR spectrum
   Ute Becker             : All parallelization in ORCA, NUMFREQ, NUMCALC
   Giovanni Bistoni       : ED, misc. LED, open-shell LED, HFLD
   Martin Brehm           : Molecular dynamics
   Dmytro Bykov           : pre 5.0 version of the SCF Hessian
   Marcos Casanova-Páez   : Triplet and SCS-CIS(D). UHF-(DLPNO)-IP/EA/STEOM-CCSD. UHF-CVS-IP/STEOM-CCSD
   Vijay G. Chilkuri      : MRCI spin determinant printing, contributions to CSF-ICE
   Pauline Colinet        : FMM embedding
   Dipayan Datta          : RHF DLPNO-CCSD density
   Achintya Kumar Dutta   : EOM-CC, STEOM-CC
   Nicolas Foglia         : Exact transition moments, OPA infrastructure, MCD improvements
   Dmitry Ganyushin       : Spin-Orbit,Spin-Spin,Magnetic field MRCI
   Miquel Garcia          : C-PCM and meta-GGA Hessian, CCSD/C-PCM, Gaussian charge scheme
   Tiago L. C. Gouveia    : GS-ROHF, GS-ROCIS
   Yang Guo               : DLPNO-NEVPT2, F12-NEVPT2, CIM, IAO-localization
   Andreas Hansen         : Spin unrestricted coupled pair/coupled cluster methods
   Ingolf Harden          : AUTO-CI MPn and infrastructure 
   Benjamin Helmich-Paris : MC-RPA, TRAH-(SCF,CASSCF), AVAS, COSX integrals, SCF dyn. polar.
   Lee Huntington         : MR-EOM, pCC
   Robert Izsak           : Overlap fitted RIJCOSX, COSX-SCS-MP3, EOM
   Riya Kayal             : Wick's Theorem for AUTO-CI, AUTO-CI UHF-CCSDT
   Emily Kempfer          : AUTO-CI, RHF CISDT and CCSDT
   Christian Kollmar      : KDIIS, OOCD, Brueckner-CCSD(T), CCSD density, CASPT2, CASPT2-K, improved NEVPT2
   Axel Koslowski         : Symmetry handling
   Simone Kossmann        : Meta GGA functionals, TD-DFT gradient, OOMP2, (MP2 Hessian; deprecated post 5.0)
   Lucas Lang             : DCDCAS
   Marvin Lechner         : AUTO-CI (C++ implementation), FIC-MRCC
   Spencer Leger          : CASSCF response
   Dagmar Lenk            : GEPOL surface, SMD, ORCA-2-JSON
   Dimitrios Liakos       : Extrapolation schemes; Compound Job, initial MDCI parallelization
   Dimitrios Manganas     : Further ROCIS development; embedding schemes. LFT, Crystal Embedding
   Dimitrios Pantazis     : SARC Basis sets
   Anastasios Papadopoulos: AUTO-CI, single reference methods and gradients
   Taras Petrenko         : pre 6.0 DFT Hessian and TD-DFT gradient, (ASA, deprecated), ECA, 1-Electron XAS/XES, NRVS
   Peter Pinski           : DLPNO-MP2, DLPNO-MP2 Gradient
   Christoph Reimann      : Effective Core Potentials
   Marius Retegan         : Local ZFS, SOC
   Christoph Riplinger    : Optimizer, TS searches, QM/MM, DLPNO-CCSD(T), (RO)-DLPNO pert. Triples
   Michael Roemelt        : Original ROCIS implementation
   Masaaki Saitow         : Open-shell DLPNO-CCSD energy and density
   Barbara Sandhoefer     : DKH picture change effects
   Kantharuban Sivalingam : CASSCF convergence/infrastructure, NEVPT2 and variants, FIC-MRCI
   Bernardo de Souza      : ESD, SOC TD-DFT
   Georgi Stoychev        : AutoAux, RI-MP2 NMR, DLPNO-MP2 response, X2C
   Van Anh Tran           : RI-MP2 g-tensors
   Willem Van den Heuvel  : Paramagnetic NMR
   Zikuan Wang            : NOTCH, Electric field optimization 
   Frank Wennmohs         : Technical directorship and infrastructure
   Hang Xu                : AUTO-CI-Response properties 


 We gratefully acknowledge several colleagues who have allowed us to
 interface, adapt or use parts of their codes:
   Stefan Grimme, W. Hujo, H. Kruse, P. Pracht,  : VdW corrections, initial TS optimization,
                  C. Bannwarth, S. Ehlert,         DFT functionals, gCP, sTDA/sTD-DF
                  L. Wittmann, M. Mueller
   Ed Valeev, F. Pavosevic, A. Kumar             : LibInt (2-el integral package), F12 methods
   Garnet Chan, S. Sharma, J. Yang, R. Olivares  : DMRG
   Ulf Ekstrom                                   : XCFun DFT Library
   Mihaly Kallay                                 : mrcc  (arbitrary order and MRCC methods)
   Frank Weinhold                                : gennbo (NPA and NBO analysis)
   Simon Mueller                                 : openCOSMO-RS
   Christopher J. Cramer and Donald G. Truhlar   : smd solvation model
   Lars Goerigk                                  : TD-DFT with DH, B97 family of functionals
   V. Asgeirsson, H. Jonsson                     : NEB implementation
   FAccTs GmbH                                   : IRC, NEB, NEB-TS, DLPNO-Multilevel, CI-OPT
                                                   MM, QMMM, 2- and 3-layer-ONIOM, Crystal-QMMM,
                                                   LR-CPCM, SF, NACMEs, symmetry and pop. for TD-DFT,
                                                   nearIR, NL-DFT gradient (VV10), updates on ESD,
                                                   ML-optimized integration grids, MBIS, APM,
                                                   GOAT, DOCKER, SOLVATOR, interface openCOSMO-RS
   S Lehtola, MJT Oliveira, MAL Marques          : LibXC Library
   Liviu Ungur et al                             : ANISO software


 Your calculation uses the libint2 library for the computation of 2-el integrals
 For citations please refer to: http://libint.valeyev.net

 Your ORCA version has been built with support for libXC version: 6.2.2
 For citations please refer to: https://libxc.gitlab.io

 This ORCA versions uses:
   CBLAS   interface :  Fast vector & matrix operations
   LAPACKE interface :  Fast linear algebra routines
   Shared memory     :  Shared parallel matrices


Your calculation utilizes the atom-pairwise dispersion correction
with the zero-damping scheme (D30)


XCFun DFT library Copyright 2009-2010 Ulf Ekstrom and contributors.
See http://admol.org/xcfun for more information.
This is free software; see the source code for copying conditions.
There is ABSOLUTELY NO WARRANTY; not even for MERCHANTABILITY or FITNESS FOR A PARTICULAR PURPOSE.
For details see the documentation.
Scientific users of this library should cite U. Ekstrom, L. Visscher, R. Bast, A. J. Thorvaldsen and K. Ruud;
J.Chem.Theor.Comp. 2010, DOI: 10.1021/ct100117s
XCFun Version 0.99 

Warning: RI is on but no J-basis has been assigned. Assigning Def2/J (nothing to worry about!)
================================================================================

----- Orbital basis set information -----
Your calculation utilizes the basis: def2-TZVP
   F. Weigend and R. Ahlrichs, Phys. Chem. Chem. Phys. 7, 3297 (2005).

----- AuxJ basis set information -----
Your calculation utilizes the auxiliary basis: def2/J
   F. Weigend, Phys. Chem. Chem. Phys. 8, 1057 (2006).

================================================================================
                                        WARNINGS
                       Please study these warnings very carefully!
================================================================================

WARNING: Functional chosen is sensitive to the integration grid.
         DEFGRID3 seems to be a minimum grid for robust results!

================================================================================
                                       INPUT FILE
================================================================================
NAME = data/single_point_P_M06-2x/70575/70575.inp
|  1> ! RIJCOSX M062X def2-TZVP D3ZERO NormalSCF
|  2> %pal
|  3> nprocs 6
|  4> end
|  5> 
|  6> * xyz 0 1
|  7>   C           5.15790867531643      0.11140747154382      0.81935859132204
|  8>   C           3.75311993899555      0.05404128485437      0.26959176685121
|  9>   C           2.74823113776444     -0.69586775684740      0.91609166997898
| 10>   C           1.44858371136046     -0.77774279971717      0.39390599722118
| 11>   C           1.11506616120361     -0.10971891096028     -0.80228170154958
| 12>   C           2.11884594886528      0.63356454762405     -1.46052223107985
| 13>   C           3.41148526508437      0.72174862763981     -0.92632425482168
| 14>   P          -0.56938375036071     -0.12836698395207     -1.56810278517351
| 15>   C          -1.38677677328259     -1.46337111115207     -0.57690627452385
| 16>   C          -1.17964087389182     -2.79540433246702     -1.00034749790315
| 17>   C          -1.74891537454825     -3.86584597569995     -0.29470408480292
| 18>   C          -2.55106820713000     -3.61831734951429      0.83329136408441
| 19>   C          -2.77388162911167     -2.29640850603399      1.25265901348236
| 20>   C          -2.19312406377263     -1.22371022241817      0.55531617500739
| 21>   C          -1.32295373511109      1.38365206514178     -0.80750067630733
| 22>   C          -2.57494644116854      1.80235078561180     -1.31109080197120
| 23>   C          -3.21957130244105      2.92786479601769     -0.77635411813569
| 24>   C          -2.61085203409485      3.66352551656541      0.25569398689162
| 25>   C          -1.35900602121167      3.26311748968660      0.75146324659073
| 26>   C          -0.71836226602657      2.12814735770923      0.22664863465039
| 27>   H           5.16950438389564      0.00831493031011      1.92276243717117
| 28>   H           5.66271302543998      1.06178986238826      0.55448060995836
| 29>   H           5.77978003884803     -0.71367142769901      0.40830471503036
| 30>   H           2.98733420946790     -1.22332878057279      1.85394806746445
| 31>   H           0.68169066754920     -1.36107136247768      0.92530268293710
| 32>   H           1.87881289318288      1.15595072235714     -2.40100222888292
| 33>   H           4.17666385755721      1.31562601328687     -1.45196859123704
| 34>   H          -0.56092122720826     -2.99053436806223     -1.89142179387956
| 35>   H          -1.57372841947434     -4.89912348890133     -0.63231694074554
| 36>   H          -3.00606643454375     -4.45693698285648      1.38247421149227
| 37>   H          -3.40218409188145     -2.09603710426865      2.13455883430171
| 38>   H          -2.36256200684034     -0.19087942553208      0.89452209195507
| 39>   H          -3.04747869491850      1.23407152282254     -2.12888287633540
| 40>   H          -4.19819813150227      3.23865154485693     -1.17387022051735
| 41>   H          -3.11131021680162      4.55237683191438      0.66969683632609
| 42>   H          -0.87651533355560      3.83668355247087      1.55826109528900
| 43>   H           0.25770711434657      1.81345096633099      0.62526304986067
| 44> **                         ****END OF INPUT****
================================================================================

                       ****************************
                       * Single Point Calculation *
                       ****************************

---------------------------------
CARTESIAN COORDINATES (ANGSTROEM)
---------------------------------
  C      5.157909    0.111407    0.819359
  C      3.753120    0.054041    0.269592
  C      2.748231   -0.695868    0.916092
  C      1.448584   -0.777743    0.393906
  C      1.115066   -0.109719   -0.802282
  C      2.118846    0.633565   -1.460522
  C      3.411485    0.721749   -0.926324
  P     -0.569384   -0.128367   -1.568103
  C     -1.386777   -1.463371   -0.576906
  C     -1.179641   -2.795404   -1.000347
  C     -1.748915   -3.865846   -0.294704
  C     -2.551068   -3.618317    0.833291
  C     -2.773882   -2.296409    1.252659
  C     -2.193124   -1.223710    0.555316
  C     -1.322954    1.383652   -0.807501
  C     -2.574946    1.802351   -1.311091
  C     -3.219571    2.927865   -0.776354
  C     -2.610852    3.663526    0.255694
  C     -1.359006    3.263117    0.751463
  C     -0.718362    2.128147    0.226649
  H      5.169504    0.008315    1.922762
  H      5.662713    1.061790    0.554481
  H      5.779780   -0.713671    0.408305
  H      2.987334   -1.223329    1.853948
  H      0.681691   -1.361071    0.925303
  H      1.878813    1.155951   -2.401002
  H      4.176664    1.315626   -1.451969
  H     -0.560921   -2.990534   -1.891422
  H     -1.573728   -4.899123   -0.632317
  H     -3.006066   -4.456937    1.382474
  H     -3.402184   -2.096037    2.134559
  H     -2.362562   -0.190879    0.894522
  H     -3.047479    1.234072   -2.128883
  H     -4.198198    3.238652   -1.173870
  H     -3.111310    4.552377    0.669697
  H     -0.876515    3.836684    1.558261
  H      0.257707    1.813451    0.625263

----------------------------
CARTESIAN COORDINATES (A.U.)
----------------------------
  NO LB      ZA    FRAG     MASS         X           Y           Z
   0 C     6.0000    0    12.011    9.747035    0.210530    1.548363
   1 C     6.0000    0    12.011    7.092369    0.102123    0.509455
   2 C     6.0000    0    12.011    5.193404   -1.314999    1.731162
   3 C     6.0000    0    12.011    2.737426   -1.469721    0.744374
   4 C     6.0000    0    12.011    2.107170   -0.207339   -1.516093
   5 C     6.0000    0    12.011    4.004039    1.197263   -2.759987
   6 C     6.0000    0    12.011    6.446773    1.363907   -1.750499
   7 P    15.0000    0    30.974   -1.075979   -0.242578   -2.963285
   8 C     6.0000    0    12.011   -2.620628   -2.765371   -1.090195
   9 C     6.0000    0    12.011   -2.229198   -5.282549   -1.890383
  10 C     6.0000    0    12.011   -3.304971   -7.305390   -0.556910
  11 C     6.0000    0    12.011   -4.820820   -6.837629    1.574692
  12 C     6.0000    0    12.011   -5.241877   -4.339583    2.367182
  13 C     6.0000    0    12.011   -4.144404   -2.312477    1.049395
  14 C     6.0000    0    12.011   -2.500020    2.614723   -1.525955
  15 C     6.0000    0    12.011   -4.865944    3.405949   -2.477603
  16 C     6.0000    0    12.011   -6.084108    5.532863   -1.467097
  17 C     6.0000    0    12.011   -4.933795    6.923060    0.483192
  18 C     6.0000    0    12.011   -2.568149    6.166398    1.420060
  19 C     6.0000    0    12.011   -1.357508    4.021616    0.428304
  20 H     1.0000    0     1.008    9.768948    0.015713    3.633494
  21 H     1.0000    0     1.008   10.700977    2.006492    1.047816
  22 H     1.0000    0     1.008   10.922201   -1.348644    0.771584
  23 H     1.0000    0     1.008    5.645244   -2.311756    3.503454
  24 H     1.0000    0     1.008    1.288209   -2.572052    1.748569
  25 H     1.0000    0     1.008    3.550442    2.184430   -4.537237
  26 H     1.0000    0     1.008    7.892751    2.486173   -2.743823
  27 H     1.0000    0     1.008   -1.059988   -5.651291   -3.574269
  28 H     1.0000    0     1.008   -2.973916   -9.258002   -1.194906
  29 H     1.0000    0     1.008   -5.680642   -8.422390    2.612498
  30 H     1.0000    0     1.008   -6.429196   -3.960936    4.033732
  31 H     1.0000    0     1.008   -4.464595   -0.360710    1.690402
  32 H     1.0000    0     1.008   -5.758900    2.332057   -4.023006
  33 H     1.0000    0     1.008   -7.933445    6.120164   -2.218293
  34 H     1.0000    0     1.008   -5.879524    8.602745    1.265544
  35 H     1.0000    0     1.008   -1.656374    7.250281    2.944687
  36 H     1.0000    0     1.008    0.486996    3.426926    1.181576

--------------------------------
INTERNAL COORDINATES (ANGSTROEM)
--------------------------------
 C      0   0   0     0.000000000000     0.00000000     0.00000000
 C      1   0   0     1.509624401750     0.00000000     0.00000000
 C      2   1   0     1.410718681527   121.07529865     0.00000000
 C      3   2   1     1.403019897377   121.35219723   181.45726817
 C      4   3   2     1.410090381111   120.47602449     0.20433908
 C      5   4   3     1.411851534914   118.47335397     0.32055203
 C      6   5   4     1.401449361069   120.74245537   359.04912513
 P      5   4   3     1.850459723236   124.16679808   180.90043247
 C      8   5   4     1.852791919317   100.80397567   348.38577000
 C      9   8   5     1.412982750482   117.01755409   275.57885966
 C     10   9   8     1.402801267150   120.60536804   179.17125441
 C     11  10   9     1.406091504956   120.04728094     0.98230301
 C     12  11  10     1.404620246489   119.71477753   359.70764199
 C     13  12  11     1.405079354251   120.31441088   359.62949211
 C      8   5   4     1.852723642304   101.07665253    91.88262232
 C     15   8   5     1.412939265931   117.12443615   171.35769262
 C     16  15   8     1.402949151049   120.59883073   179.16962267
 C     17  16  15     1.406008227040   120.04011620     1.01800758
 C     18  17  16     1.404717831745   119.71880358   359.72989779
 C     19  18  17     1.404995373104   120.31697097   359.60902616
 H      1   2   3     1.108270084208   111.64021189   329.87745886
 H      1   2   3     1.108248377279   111.67941533   208.54267922
 H      1   2   3     1.111955247288   110.95297461    89.19532957
 H      3   2   1     1.102252254591   119.32644847     1.83251750
 H      4   3   2     1.100354302199   119.78824159   180.66981158
 H      6   5   4     1.102273019556   119.50298650   179.52228569
 H      7   6   5     1.102039289666   119.50629330   180.59758373
 H     10   9   8     1.102226443583   119.43588212   359.42497410
 H     11  10   9     1.101061001495   119.82088738   180.39562673
 H     12  11  10     1.100866965743   120.12452514   179.43284551
 H     13  12  11     1.101208416845   120.05636375   179.92339199
 H     14  13  12     1.100231487297   120.00061477   180.63540345
 H     16  15   8     1.102275795000   119.43985728   359.41121565
 H     17  16  15     1.101053098386   119.81663777   180.42081958
 H     18  17  16     1.100869389517   120.11160613   179.42784068
 H     19  18  17     1.101225708344   120.03736407   179.87250820
 H     20  19  18     1.100290282635   120.01428271   180.58157282

---------------------------
INTERNAL COORDINATES (A.U.)
---------------------------
 C      0   0   0     0.000000000000     0.00000000     0.00000000
 C      1   0   0     2.852776684392     0.00000000     0.00000000
 C      2   1   0     2.665871960093   121.07529865     0.00000000
 C      3   2   1     2.651323366486   121.35219723   181.45726817
 C      4   3   2     2.664684644377   120.47602449     0.20433908
 C      5   4   3     2.668012742744   118.47335397     0.32055203
 C      6   5   4     2.648355482980   120.74245537   359.04912513
 P      5   4   3     3.496862098768   124.16679808   180.90043247
 C      8   5   4     3.501269310651   100.80397567   348.38577000
 C      9   8   5     2.670150430366   117.01755409   275.57885966
 C     10   9   8     2.650910215230   120.60536804   179.17125441
 C     11  10   9     2.657127863601   120.04728094     0.98230301
 C     12  11  10     2.654347588026   119.71477753   359.70764199
 C     13  12  11     2.655215175962   120.31441088   359.62949211
 C      8   5   4     3.501140285795   101.07665253    91.88262232
 C     15   8   5     2.670068256474   117.12443615   171.35769262
 C     16  15   8     2.651189675300   120.59883073   179.16962267
 C     17  16  15     2.656970491145   120.04011620     1.01800758
 C     18  17  16     2.654531997434   119.71880358   359.72989779
 C     19  18  17     2.655056474594   120.31697097   359.60902616
 H      1   2   3     2.094326941571   111.64021189   329.87745886
 H      1   2   3     2.094285921420   111.67941533   208.54267922
 H      1   2   3     2.101290890551   110.95297461    89.19532957
 H      3   2   1     2.082954891675   119.32644847     1.83251750
 H      4   3   2     2.079368281438   119.78824159   180.66981158
 H      6   5   4     2.082994131770   119.50298650   179.52228569
 H      7   6   5     2.082552446290   119.50629330   180.59758373
 H     10   9   8     2.082906115938   119.43588212   359.42497410
 H     11  10   9     2.080703749567   119.82088738   180.39562673
 H     12  11  10     2.080337075135   120.12452514   179.43284551
 H     13  12  11     2.080982324205   120.05636375   179.92339199
 H     14  13  12     2.079136194908   120.00061477   180.63540345
 H     16  15   8     2.082999376601   119.43985728   359.41121565
 H     17  16  15     2.080688814855   119.81663777   180.42081958
 H     18  17  16     2.080341655404   120.11160613   179.42784068
 H     19  18  17     2.081015000403   120.03736407   179.87250820
 H     20  19  18     2.079247301996   120.01428271   180.58157282

---------------------
BASIS SET INFORMATION
---------------------
There are 3 groups of distinct atoms

 Group   1 Type C   : 11s6p2d1f contracted to 5s3p2d1f pattern {62111/411/11/1}
 Group   2 Type P   : 14s9p3d1f contracted to 5s5p2d1f pattern {73211/51111/21/1}
 Group   3 Type H   : 5s1p contracted to 3s1p pattern {311/1}

Atom   0C    basis set group =>   1
Atom   1C    basis set group =>   1
Atom   2C    basis set group =>   1
Atom   3C    basis set group =>   1
Atom   4C    basis set group =>   1
Atom   5C    basis set group =>   1
Atom   6C    basis set group =>   1
Atom   7P    basis set group =>   2
Atom   8C    basis set group =>   1
Atom   9C    basis set group =>   1
Atom  10C    basis set group =>   1
Atom  11C    basis set group =>   1
Atom  12C    basis set group =>   1
Atom  13C    basis set group =>   1
Atom  14C    basis set group =>   1
Atom  15C    basis set group =>   1
Atom  16C    basis set group =>   1
Atom  17C    basis set group =>   1
Atom  18C    basis set group =>   1
Atom  19C    basis set group =>   1
Atom  20H    basis set group =>   3
Atom  21H    basis set group =>   3
Atom  22H    basis set group =>   3
Atom  23H    basis set group =>   3
Atom  24H    basis set group =>   3
Atom  25H    basis set group =>   3
Atom  26H    basis set group =>   3
Atom  27H    basis set group =>   3
Atom  28H    basis set group =>   3
Atom  29H    basis set group =>   3
Atom  30H    basis set group =>   3
Atom  31H    basis set group =>   3
Atom  32H    basis set group =>   3
Atom  33H    basis set group =>   3
Atom  34H    basis set group =>   3
Atom  35H    basis set group =>   3
Atom  36H    basis set group =>   3
---------------------------------
AUXILIARY/J BASIS SET INFORMATION
---------------------------------
There are 3 groups of distinct atoms

 Group   1 Type C   : 12s5p4d2f1g contracted to 6s4p3d1f1g pattern {711111/2111/211/2/1}
 Group   2 Type P   : 14s5p5d2f1g contracted to 8s4p3d1f1g pattern {71111111/2111/311/2/1}
 Group   3 Type H   : 5s2p1d contracted to 3s1p1d pattern {311/2/1}

Atom   0C    basis set group =>   1
Atom   1C    basis set group =>   1
Atom   2C    basis set group =>   1
Atom   3C    basis set group =>   1
Atom   4C    basis set group =>   1
Atom   5C    basis set group =>   1
Atom   6C    basis set group =>   1
Atom   7P    basis set group =>   2
Atom   8C    basis set group =>   1
Atom   9C    basis set group =>   1
Atom  10C    basis set group =>   1
Atom  11C    basis set group =>   1
Atom  12C    basis set group =>   1
Atom  13C    basis set group =>   1
Atom  14C    basis set group =>   1
Atom  15C    basis set group =>   1
Atom  16C    basis set group =>   1
Atom  17C    basis set group =>   1
Atom  18C    basis set group =>   1
Atom  19C    basis set group =>   1
Atom  20H    basis set group =>   3
Atom  21H    basis set group =>   3
Atom  22H    basis set group =>   3
Atom  23H    basis set group =>   3
Atom  24H    basis set group =>   3
Atom  25H    basis set group =>   3
Atom  26H    basis set group =>   3
Atom  27H    basis set group =>   3
Atom  28H    basis set group =>   3
Atom  29H    basis set group =>   3
Atom  30H    basis set group =>   3
Atom  31H    basis set group =>   3
Atom  32H    basis set group =>   3
Atom  33H    basis set group =>   3
Atom  34H    basis set group =>   3
Atom  35H    basis set group =>   3
Atom  36H    basis set group =>   3


           ************************************************************
           *        Program running with 6 parallel MPI-processes     *
           *              working on a common directory               *
           ************************************************************
------------------------------------------------------------------------------
                             ORCA STARTUP CALCULATIONS
                           -- RI-GTO INTEGRALS CHOSEN --
------------------------------------------------------------------------------
------------------------------------------------------------------------------
                   ___                                                        
                  /   \      - P O W E R E D   B Y -                         
                 /     \                                                     
                 |  |  |   _    _      __       _____    __    __             
                 |  |  |  | |  | |    /  \     |  _  \  |  |  /  |          
                  \  \/   | |  | |   /    \    | | | |  |  | /  /          
                 / \  \   | |__| |  /  /\  \   | |_| |  |  |/  /          
                |  |  |   |  __  | /  /__\  \  |    /   |      \           
                |  |  |   | |  | | |   __   |  |    \   |  |\   \          
                \     /   | |  | | |  |  |  |  | |\  \  |  | \   \       
                 \___/    |_|  |_| |__|  |__|  |_| \__\ |__|  \__/        
                                                                              
                      - O R C A' S   B I G   F R I E N D -                    
                                      &                                       
                       - I N T E G R A L  F E E D E R -                       
                                                                              
 v1 FN, 2020, v2 2021, v3 2022-2024                                           
------------------------------------------------------------------------------


----------------------
SHARK INTEGRAL PACKAGE
----------------------

Number of atoms                             ...     37
Number of basis functions                   ...    728
Number of shells                            ...    290
Maximum angular momentum                    ...      3
Integral batch strategy                     ... SHARK/LIBINT Hybrid
RI-J (if used) integral strategy            ... SPLIT-RIJ (Revised 2003 algorithm where possible)
Printlevel                                  ...      1
Contraction scheme used                     ... SEGMENTED contraction
Prescreening option                         ... SCHWARTZ
   Thresh                                   ... 1.000e-10
   Tcut                                     ... 1.000e-11
   Tpresel                                  ... 1.000e-11 
Coulomb Range Separation                    ... NOT USED
Exchange Range Separation                   ... NOT USED
Multipole approximations                    ... NOT USED
Finite Nucleus Model                        ... NOT USED
CABS basis                                  ... NOT available
Auxiliary Coulomb fitting basis             ... AVAILABLE
   # of basis functions in Aux-J            ...   1169
   # of shells in Aux-J                     ...    387
   Maximum angular momentum in Aux-J        ...      4
Auxiliary J/K fitting basis                 ... NOT available
Auxiliary Correlation fitting basis         ... NOT available
Auxiliary 'external' fitting basis          ... NOT available

Checking pre-screening integrals            ... done (  0.0 sec) Dimension = 290
Check shell pair data                       ... done (  0.0 sec)
Shell pair information
Shell pair cut-off parameter TPreSel        ...   1.0e-11
Total number of shell pairs                 ...     42195
Shell pairs after pre-screening             ...     30198
Total number of primitive shell pairs       ...    130300
Primitive shell pairs kept                  ...     61869
          la=0 lb=0:   7814 shell pairs
          la=1 lb=0:   8831 shell pairs
          la=1 lb=1:   2504 shell pairs
          la=2 lb=0:   4233 shell pairs
          la=2 lb=1:   2406 shell pairs
          la=2 lb=2:    608 shell pairs
          la=3 lb=0:   1987 shell pairs
          la=3 lb=1:   1128 shell pairs
          la=3 lb=2:    550 shell pairs
          la=3 lb=3:    137 shell pairs

Calculating one electron integrals          ... done (  0.1 sec)
Calculating RI/J V-Matrix + Cholesky decomp.... done (  0.1 sec)
Calculating Nuclear repulsion               ... done (  0.0 sec) ENN=   1522.217535045162 Eh

Diagonalization of the overlap matrix:
Smallest eigenvalue                        ... 7.083e-06
Time for diagonalization                   ...    0.098 sec
Threshold for overlap eigenvalues          ... 1.000e-07
Number of eigenvalues below threshold      ... 0
Time for construction of square roots      ...    0.047 sec
Total time needed                          ...    0.149 sec

-------------------
DFT GRID GENERATION
-------------------

General Integration Accuracy     IntAcc      ... 4.388
Radial Grid Type                 RadialGrid  ... OptM3 with GC (2021)
Angular Grid (max. ang.)         AngularGrid ... 4 (Lebedev-302)
Angular grid pruning method      GridPruning ... 4 (adaptive)
Weight generation scheme         WeightScheme... mBecke (2022)
Basis function cutoff            BFCut       ... 1.0000e-10
Integration weight cutoff        WCut        ... 1.0000e-14
Partially contracted basis set               ... off
Rotationally invariant grid construction     ... off
Angular grids for H and He will be reduced by one unit

Total number of grid points                  ...   175071
Total number of batches                      ...     2756
Average number of points per batch           ...       63
Average number of grid points per atom       ...     4732

--------------------
COSX GRID GENERATION
--------------------

GRIDX 1
-------
General Integration Accuracy     IntAcc      ... 3.816
Radial Grid Type                 RadialGrid  ... OptM3 with GC (2021)
Angular Grid (max. ang.)         AngularGrid ... 1 (Lebedev-50)
Angular grid pruning method      GridPruning ... 4 (adaptive)
Weight generation scheme         WeightScheme... mBecke (2022)
Basis function cutoff            BFCut       ... 1.0000e-10
Integration weight cutoff        WCut        ... 1.0000e-14
Partially contracted basis set               ... on
Rotationally invariant grid construction     ... off
Angular grids for H and He will be reduced by one unit

Total number of grid points                  ...    23243
Total number of batches                      ...      195
Average number of points per batch           ...      119
Average number of grid points per atom       ...      628
UseSFitting                                  ... on

GRIDX 2
-------
General Integration Accuracy     IntAcc      ... 4.020
Radial Grid Type                 RadialGrid  ... OptM3 with GC (2021)
Angular Grid (max. ang.)         AngularGrid ... 2 (Lebedev-110)
Angular grid pruning method      GridPruning ... 4 (adaptive)
Weight generation scheme         WeightScheme... mBecke (2022)
Basis function cutoff            BFCut       ... 1.0000e-10
Integration weight cutoff        WCut        ... 1.0000e-14
Partially contracted basis set               ... on
Rotationally invariant grid construction     ... off
Angular grids for H and He will be reduced by one unit

Total number of grid points                  ...    48004
Total number of batches                      ...      394
Average number of points per batch           ...      121
Average number of grid points per atom       ...     1297
UseSFitting                                  ... on

GRIDX 3
-------
General Integration Accuracy     IntAcc      ... 4.338
Radial Grid Type                 RadialGrid  ... OptM3 with GC (2021)
Angular Grid (max. ang.)         AngularGrid ... 3 (Lebedev-194)
Angular grid pruning method      GridPruning ... 4 (adaptive)
Weight generation scheme         WeightScheme... mBecke (2022)
Basis function cutoff            BFCut       ... 1.0000e-10
Integration weight cutoff        WCut        ... 1.0000e-14
Partially contracted basis set               ... on
Rotationally invariant grid construction     ... off
Angular grids for H and He will be reduced by one unit

Total number of grid points                  ...   105261
Total number of batches                      ...      841
Average number of points per batch           ...      125
Average number of grid points per atom       ...     2845
UseSFitting                                  ... on
Initializing property integral containers    ... done (  0.0 sec)

SHARK setup successfully completed in   3.8 seconds

Maximum memory used throughout the entire STARTUP-calculation: 70.1 MB


           ************************************************************
           *        Program running with 6 parallel MPI-processes     *
           *              working on a common directory               *
           ************************************************************
-------------------------------------------------------------------------------
                                 ORCA GUESS
                   Start orbitals & Density for SCF / CASSCF
-------------------------------------------------------------------------------

------------
SCF SETTINGS
------------
Hamiltonian:
 Density Functional     Method          .... DFT(GTOs)
 Exchange Functional    Exchange        .... M062X
 Correlation Functional Correlation     .... M062X
 Gradients option       PostSCFGGA      .... off
 Hybrid DFT is turned on
   Fraction HF Exchange ScalHFX         ....  0.540000
   Scaling of DF-GGA-X  ScalDFX         ....  0.460000
   Scaling of DF-GGA-C  ScalDFC         ....  1.000000
   Scaling of DF-LDA-C  ScalLDAC        ....  1.000000
   Perturbative correction              ....  0.000000
 RI-approximation to the Coulomb term is turned on
   Number of AuxJ basis functions       .... 1169
   RIJ-COSX (HFX calculated with COS-X)).... on


General Settings:
 Integral files         IntName         .... data/single_point_P_M06-2x/70575/70575
 Hartree-Fock type      HFTyp           .... RHF
 Total Charge           Charge          ....    0
 Multiplicity           Mult            ....    1
 Number of Electrons    NEL             ....  146
 Basis Dimension        Dim             ....  728
 Nuclear Repulsion      ENuc            ....   1522.2175350452 Eh

Convergence Acceleration:
 AO-DIIS                CNVDIIS         .... on
   Start iteration      DIISMaxIt       ....    12
   Startup error        DIISStart       ....  0.200000
   # of expansion vecs  DIISMaxEq       ....     5
   Bias factor          DIISBfac        ....   1.050
   Max. coefficient     DIISMaxC        ....  10.000
 MO-DIIS                CNVKDIIS        .... off
 Trust-Rad. Augm. Hess. CNVTRAH         .... auto
   Auto Start mean grad. ratio tolernc. ....  1.125000
   Auto Start start iteration           ....    50
   Auto Start num. interpolation iter.  ....    10
   Max. Number of Micro iterations      ....    24
   Max. Number of Macro iterations      .... Maxiter - #DIIS iter
   Number of Davidson start vectors     ....     2
   Converg. threshold    (grad. norm)   ....   5.000e-05
   Grad. Scal. Fac. for Micro threshold ....   0.100
   Minimum threshold for Micro iter.    ....   1.000e-02
   NR start threshold (gradient norm)   ....   1.000e-04
   Initial trust radius                 ....   0.400
   Minimum AH scaling param. (alpha)    ....   1.000
   Maximum AH scaling param. (alpha)    .... 1000.000
   Quad. conv. algorithm                .... NR
   White noise on init. David. guess    .... on
   Maximum white noise                  ....   0.010
   Pseudo random numbers                .... off
   Inactive MOs                         .... canonical
   Orbital update algorithm             .... Taylor
   Preconditioner                       .... Diag
   Full preconditioner red. dimension   ....   250
 SOSCF                  CNVSOSCF        .... on
   Start iteration      SOSCFMaxIt      ....   150
   Startup grad/error   SOSCFStart      ....  0.003300
   Hessian update       SOSCFHessUp     .... L-BFGS
 Level Shifting         CNVShift        .... on
   Level shift para.    LevelShift      ....    0.2500
   Turn off err/grad.   ShiftErr        ....    0.0010
 Zerner damping         CNVZerner       .... off
 Static damping         CNVDamp         .... on
   Fraction old density DampFac         ....    0.7000
   Max. Damping (<1)    DampMax         ....    0.9800
   Min. Damping (>=0)   DampMin         ....    0.0000
   Turn off err/grad.   DampErr         ....    0.1000

SCF Procedure:
 Maximum # iterations   MaxIter         ....   125
 SCF integral mode      SCFMode         .... Direct
   Integral package                     .... SHARK and LIBINT hybrid scheme
 Reset frequency        DirectResetFreq ....    20
 Integral Threshold     Thresh          ....  1.000e-10 Eh
 Primitive CutOff       TCut            ....  1.000e-11 Eh

Convergence Tolerance:
 Convergence Check Mode ConvCheckMode   .... Total+1el-Energy
 Convergence forced     ConvForced      .... 0
 Energy Change          TolE            ....  1.000e-06 Eh
 1-El. energy change                    ....  1.000e-03 Eh
 Orbital Gradient       TolG            ....  5.000e-05
 Orbital Rotation angle TolX            ....  5.000e-05
 DIIS Error             TolErr          ....  1.000e-05

------------------------------
INITIAL GUESS: MODEL POTENTIAL
------------------------------
Loading Hartree-Fock densities                     ... done
Calculating cut-offs                               ... done
Initializing the effective Hamiltonian             ... done
Setting up the integral package (SHARK)            ... done
Starting the Coulomb interaction                   ... done (   0.5 sec)
Making the grid                                    ... done (   0.3 sec)
Mapping shells                                     ... done
Starting the XC term evaluation                    ... done (   0.5 sec)
  promolecular density results
     # of electrons  =    145.992878551
     EX              =   -124.579065879
     EC              =     -4.906067676
     EX+EC           =   -129.485133555
Transforming the Hamiltonian                       ... done (   0.0 sec)
Diagonalizing the Hamiltonian                      ... done (   0.1 sec)
Back transforming the eigenvectors                 ... done (   0.0 sec)
Now organizing SCF variables                       ... done
                      ------------------
                      INITIAL GUESS DONE (   1.5 sec)
                      ------------------
             **** ENERGY FILE WAS UPDATED (data/single_point_P_M06-2x/70575/70575.en.tmp) ****
Finished Guess after   1.7 sec
Maximum memory used throughout the entire GUESS-calculation: 53.6 MB


           ************************************************************
           *        Program running with 6 parallel MPI-processes     *
           *              working on a common directory               *
           ************************************************************

-------------------------------------------------------------------------------------------
                                      ORCA LEAN-SCF
                              memory conserving SCF solver
-------------------------------------------------------------------------------------------

----------------------------------------D-I-I-S--------------------------------------------
Iteration    Energy (Eh)           Delta-E    RMSDP     MaxDP     DIISErr   Damp  Time(sec)
-------------------------------------------------------------------------------------------
               ***  Starting incremental Fock matrix formation  ***
    1    -1075.0794132404653283     0.00e+00  1.23e-03  4.47e-02  1.76e-01  0.700  14.8
    2    -1075.2755585369350229    -1.96e-01  9.83e-04  3.26e-02  1.02e-01  0.700   8.5
                               ***Turning on AO-DIIS***
    3    -1075.3724210846062306    -9.69e-02  7.02e-04  2.50e-02  4.92e-02  0.700   8.1
    4    -1075.4292020647872050    -5.68e-02  1.65e-03  6.36e-02  2.93e-02  0.000   8.0
    5    -1075.5496034009474897    -1.20e-01  1.25e-04  1.48e-02  3.58e-03  0.000   8.2
                              *** Initializing SOSCF ***
---------------------------------------S-O-S-C-F--------------------------------------
Iteration    Energy (Eh)           Delta-E    RMSDP     MaxDP     MaxGrad    Time(sec)
--------------------------------------------------------------------------------------
    6    -1075.5498684626795693    -2.65e-04  5.13e-05  6.16e-03  8.20e-04     7.3
               *** Restarting incremental Fock matrix formation ***
    7    -1075.5498972033569771    -2.87e-05  1.15e-04  4.54e-03  5.98e-04    14.4
    8    -1075.5499022385201897    -5.04e-06  5.16e-05  1.98e-03  1.83e-04    10.5
    9    -1075.5499042159185592    -1.98e-06  4.35e-05  1.69e-03  8.58e-05     9.9
   10    -1075.5499045945302896    -3.79e-07  8.35e-06  3.31e-04  2.63e-05     9.5
                 **** Energy Check signals convergence ****

               *****************************************************
               *                     SUCCESS                       *
               *           SCF CONVERGED AFTER  10 CYCLES          *
               *****************************************************

Recomputing exchange energy using gridx3       ... done (   21.268 sec)
Old exchange energy                            :    -68.590235278 Eh
New exchange energy                            :    -68.590239117 Eh
Exchange energy change after final integration :     -0.000003839 Eh
Total energy after final integration           :  -1075.549908434 Eh
             **** ENERGY FILE WAS UPDATED (data/single_point_P_M06-2x/70575/70575.en.tmp) ****

----------------
TOTAL SCF ENERGY
----------------

Total Energy       :      -1075.54990843387463 Eh          -29267.20092 eV

Components:
Nuclear Repulsion  :       1522.21753504516209 Eh           41421.64496 eV
Electronic Energy  :      -2597.76743963969238 Eh          -70688.84578 eV
One Electron Energy:      -4487.95356817601350 Eh         -122123.42523 eV
Two Electron Energy:       1890.18612853632135 Eh           51434.57944 eV

Virial components:
Potential Energy   :      -2145.62998026616788 Eh          -58385.56003 eV
Kinetic Energy     :       1070.08007183229302 Eh           29118.35910 eV
Virial Ratio       :          2.00511161430398

DFT components:
N(Alpha)           :       72.999997305912 electrons
N(Beta)            :       72.999997305912 electrons
N(Total)           :      145.999994611825 electrons
E(XC)              :      -63.681050907323 Eh       

---------------
SCF CONVERGENCE
---------------

  Last Energy change         ...    3.7861e-07  Tolerance :   1.0000e-06
  Last MAX-Density change    ...    3.3122e-04  Tolerance :   1.0000e-05
  Last RMS-Density change    ...    8.3490e-06  Tolerance :   1.0000e-06
  Last DIIS Error            ...    8.1987e-04  Tolerance :   1.0000e-05
  Last Orbital Gradient      ...    2.6332e-05  Tolerance :   5.0000e-05
  Last Orbital Rotation      ...    7.6219e-05  Tolerance :   5.0000e-05


----------------
ORBITAL ENERGIES
----------------

  NO   OCC          E(Eh)            E(eV) 
   0   2.0000     -78.029670     -2123.2953 
   1   2.0000     -10.558702      -287.3169 
   2   2.0000     -10.553497      -287.1752 
   3   2.0000     -10.553260      -287.1688 
   4   2.0000     -10.551118      -287.1105 
   5   2.0000     -10.551001      -287.1073 
   6   2.0000     -10.550856      -287.1034 
   7   2.0000     -10.550758      -287.1007 
   8   2.0000     -10.550735      -287.1001 
   9   2.0000     -10.550010      -287.0804 
  10   2.0000     -10.549904      -287.0775 
  11   2.0000     -10.549796      -287.0745 
  12   2.0000     -10.549511      -287.0668 
  13   2.0000     -10.549452      -287.0652 
  14   2.0000     -10.548490      -287.0390 
  15   2.0000     -10.548447      -287.0378 
  16   2.0000     -10.548075      -287.0277 
  17   2.0000     -10.546811      -286.9933 
  18   2.0000     -10.546195      -286.9766 
  19   2.0000     -10.541871      -286.8589 
  20   2.0000      -6.845665      -186.2800 
  21   2.0000      -4.960297      -134.9766 
  22   2.0000      -4.959881      -134.9652 
  23   2.0000      -4.959874      -134.9650 
  24   2.0000      -0.961871       -26.1738 
  25   2.0000      -0.954727       -25.9794 
  26   2.0000      -0.952433       -25.9170 
  27   2.0000      -0.876884       -23.8612 
  28   2.0000      -0.851269       -23.1642 
  29   2.0000      -0.840570       -22.8731 
  30   2.0000      -0.839642       -22.8478 
  31   2.0000      -0.838681       -22.8217 
  32   2.0000      -0.833376       -22.6773 
  33   2.0000      -0.779643       -21.2152 
  34   2.0000      -0.720986       -19.6190 
  35   2.0000      -0.688639       -18.7388 
  36   2.0000      -0.686186       -18.6721 
  37   2.0000      -0.685300       -18.6480 
  38   2.0000      -0.673852       -18.3364 
  39   2.0000      -0.662004       -18.0140 
  40   2.0000      -0.630834       -17.1659 
  41   2.0000      -0.588000       -16.0003 
  42   2.0000      -0.579937       -15.7809 
  43   2.0000      -0.552739       -15.0408 
  44   2.0000      -0.532356       -14.4862 
  45   2.0000      -0.523498       -14.2451 
  46   2.0000      -0.521670       -14.1954 
  47   2.0000      -0.515301       -14.0221 
  48   2.0000      -0.513257       -13.9664 
  49   2.0000      -0.507214       -13.8020 
  50   2.0000      -0.489075       -13.3084 
  51   2.0000      -0.485883       -13.2215 
  52   2.0000      -0.484753       -13.1908 
  53   2.0000      -0.483259       -13.1502 
  54   2.0000      -0.469784       -12.7835 
  55   2.0000      -0.460803       -12.5391 
  56   2.0000      -0.449735       -12.2379 
  57   2.0000      -0.437811       -11.9134 
  58   2.0000      -0.434142       -11.8136 
  59   2.0000      -0.425673       -11.5832 
  60   2.0000      -0.420554       -11.4438 
  61   2.0000      -0.402377       -10.9492 
  62   2.0000      -0.402125       -10.9424 
  63   2.0000      -0.396615       -10.7924 
  64   2.0000      -0.374772       -10.1981 
  65   2.0000      -0.374262       -10.1842 
  66   2.0000      -0.331367        -9.0170 
  67   2.0000      -0.314323        -8.5532 
  68   2.0000      -0.312150        -8.4940 
  69   2.0000      -0.308332        -8.3901 
  70   2.0000      -0.304239        -8.2788 
  71   2.0000      -0.301014        -8.1910 
  72   2.0000      -0.263537        -7.1712 
  73   0.0000      -0.000341        -0.0093 
  74   0.0000       0.000209         0.0057 
  75   0.0000       0.001163         0.0317 
  76   0.0000       0.018288         0.4977 
  77   0.0000       0.023101         0.6286 
  78   0.0000       0.024112         0.6561 
  79   0.0000       0.072623         1.9762 
  80   0.0000       0.075467         2.0536 
  81   0.0000       0.077274         2.1027 
  82   0.0000       0.087188         2.3725 
  83   0.0000       0.095627         2.6021 
*Only the first 10 virtual orbitals were printed.

                    ********************************
                    * MULLIKEN POPULATION ANALYSIS *
                    ********************************

-----------------------
MULLIKEN ATOMIC CHARGES
-----------------------
   0 C :   -0.478072
   1 C :    0.118496
   2 C :   -0.188052
   3 C :   -0.139639
   4 C :   -0.122227
   5 C :   -0.135410
   6 C :   -0.177530
   7 P :    0.122966
   8 C :   -0.089585
   9 C :   -0.148311
  10 C :   -0.145572
  11 C :   -0.137042
  12 C :   -0.159837
  13 C :   -0.137906
  14 C :   -0.097842
  15 C :   -0.147965
  16 C :   -0.144700
  17 C :   -0.135898
  18 C :   -0.164702
  19 C :   -0.126885
  20 H :    0.147347
  21 H :    0.147231
  22 H :    0.161455
  23 H :    0.147232
  24 H :    0.183275
  25 H :    0.153247
  26 H :    0.146428
  27 H :    0.154401
  28 H :    0.145607
  29 H :    0.145326
  30 H :    0.145593
  31 H :    0.183781
  32 H :    0.154914
  33 H :    0.145503
  34 H :    0.145409
  35 H :    0.145362
  36 H :    0.183601
Sum of atomic charges:   -0.0000000

--------------------------------
MULLIKEN REDUCED ORBITAL CHARGES
--------------------------------
  0 C s       :     3.365294  s :     3.365294
      pz      :     1.046516  p :     3.057679
      px      :     0.934757
      py      :     1.076407
      dz2     :     0.014140  d :     0.051953
      dxz     :     0.009475
      dyz     :     0.002707
      dx2y2   :     0.006356
      dxy     :     0.019275
      f0      :     0.000711  f :     0.003146
      f+1     :     0.000425
      f-1     :     0.000083
      f+2     :     0.000396
      f-2     :     0.000375
      f+3     :     0.000726
      f-3     :     0.000428

  1 C s       :     3.162902  s :     3.162902
      pz      :     0.888039  p :     2.619393
      px      :     0.826065
      py      :     0.905289
      dz2     :     0.024437  d :     0.090993
      dxz     :     0.018995
      dyz     :     0.006225
      dx2y2   :     0.017180
      dxy     :     0.024156
      f0      :     0.001029  f :     0.008216
      f+1     :     0.001564
      f-1     :     0.000939
      f+2     :     0.001425
      f-2     :     0.001120
      f+3     :     0.001023
      f-3     :     0.001116

  2 C s       :     3.202790  s :     3.202790
      pz      :     1.022277  p :     2.919796
      px      :     0.925044
      py      :     0.972475
      dz2     :     0.008515  d :     0.059076
      dxz     :     0.016056
      dyz     :     0.007621
      dx2y2   :     0.010889
      dxy     :     0.015995
      f0      :     0.000296  f :     0.006390
      f+1     :     0.001209
      f-1     :     0.000831
      f+2     :     0.001015
      f-2     :     0.000875
      f+3     :     0.001009
      f-3     :     0.001155

  3 C s       :     3.188331  s :     3.188331
      pz      :     0.894730  p :     2.877618
      px      :     1.010500
      py      :     0.972388
      dz2     :     0.015201  d :     0.067157
      dxz     :     0.016051
      dyz     :     0.011001
      dx2y2   :     0.008135
      dxy     :     0.016770
      f0      :     0.001011  f :     0.006533
      f+1     :     0.001084
      f-1     :     0.000623
      f+2     :     0.001088
      f-2     :     0.001141
      f+3     :     0.000546
      f-3     :     0.001041

  4 C s       :     3.250334  s :     3.250334
      pz      :     0.883034  p :     2.787632
      px      :     0.921835
      py      :     0.982763
      dz2     :     0.021043  d :     0.077279
      dxz     :     0.019195
      dyz     :     0.007917
      dx2y2   :     0.016439
      dxy     :     0.012684
      f0      :     0.000983  f :     0.006982
      f+1     :     0.001182
      f-1     :     0.000941
      f+2     :     0.001237
      f-2     :     0.001040
      f+3     :     0.000862
      f-3     :     0.000737

  5 C s       :     3.195665  s :     3.195665
      pz      :     0.992278  p :     2.867043
      px      :     0.922801
      py      :     0.951964
      dz2     :     0.010118  d :     0.066109
      dxz     :     0.017179
      dyz     :     0.008684
      dx2y2   :     0.012131
      dxy     :     0.017996
      f0      :     0.000285  f :     0.006593
      f+1     :     0.001315
      f-1     :     0.000846
      f+2     :     0.001018
      f-2     :     0.000894
      f+3     :     0.001054
      f-3     :     0.001181

  6 C s       :     3.207117  s :     3.207117
      pz      :     0.927683  p :     2.904694
      px      :     0.986474
      py      :     0.990537
      dz2     :     0.015981  d :     0.059284
      dxz     :     0.010158
      dyz     :     0.010488
      dx2y2   :     0.007349
      dxy     :     0.015309
      f0      :     0.001002  f :     0.006435
      f+1     :     0.001071
      f-1     :     0.000656
      f+2     :     0.001046
      f-2     :     0.001133
      f+3     :     0.000518
      f-3     :     0.001009

  7 P s       :     5.746847  s :     5.746847
      pz      :     3.364372  p :     8.847707
      px      :     2.739890
      py      :     2.743444
      dz2     :     0.025120  d :     0.257004
      dxz     :     0.050533
      dyz     :     0.054553
      dx2y2   :     0.063906
      dxy     :     0.062892
      f0      :     0.002370  f :     0.025476
      f+1     :     0.002576
      f-1     :     0.003010
      f+2     :     0.005111
      f-2     :     0.005143
      f+3     :     0.003129
      f-3     :     0.004137

  8 C s       :     3.237374  s :     3.237374
      pz      :     0.890452  p :     2.768079
      px      :     0.958433
      py      :     0.919194
      dz2     :     0.020874  d :     0.077176
      dxz     :     0.006909
      dyz     :     0.018423
      dx2y2   :     0.012255
      dxy     :     0.018716
      f0      :     0.000981  f :     0.006955
      f+1     :     0.000945
      f-1     :     0.000997
      f+2     :     0.001281
      f-2     :     0.001000
      f+3     :     0.000970
      f-3     :     0.000781

  9 C s       :     3.205799  s :     3.205799
      pz      :     1.006657  p :     2.871804
      px      :     0.964171
      py      :     0.900975
      dz2     :     0.009969  d :     0.064155
      dxz     :     0.008952
      dyz     :     0.015818
      dx2y2   :     0.011831
      dxy     :     0.017585
      f0      :     0.000362  f :     0.006553
      f+1     :     0.000839
      f-1     :     0.001205
      f+2     :     0.001203
      f-2     :     0.000765
      f+3     :     0.001112
      f-3     :     0.001068

 10 C s       :     3.225361  s :     3.225361
      pz      :     0.918931  p :     2.853250
      px      :     0.939275
      py      :     0.995044
      dz2     :     0.018179  d :     0.060648
      dxz     :     0.007295
      dyz     :     0.012063
      dx2y2   :     0.013900
      dxy     :     0.009211
      f0      :     0.000907  f :     0.006313
      f+1     :     0.000884
      f-1     :     0.000911
      f+2     :     0.001211
      f-2     :     0.001010
      f+3     :     0.000505
      f-3     :     0.000886

 11 C s       :     3.223344  s :     3.223344
      pz      :     0.939815  p :     2.846390
      px      :     0.954881
      py      :     0.951695
      dz2     :     0.014463  d :     0.061020
      dxz     :     0.007866
      dyz     :     0.014358
      dx2y2   :     0.010612
      dxy     :     0.013721
      f0      :     0.000995  f :     0.006288
      f+1     :     0.000770
      f-1     :     0.000758
      f+2     :     0.001156
      f-2     :     0.001019
      f+3     :     0.000986
      f-3     :     0.000604

 12 C s       :     3.233106  s :     3.233106
      pz      :     0.996867  p :     2.859610
      px      :     0.976297
      py      :     0.886447
      dz2     :     0.008350  d :     0.060839
      dxz     :     0.007752
      dyz     :     0.016386
      dx2y2   :     0.009771
      dxy     :     0.018580
      f0      :     0.000336  f :     0.006282
      f+1     :     0.000819
      f-1     :     0.001120
      f+2     :     0.001184
      f-2     :     0.000796
      f+3     :     0.001018
      f-3     :     0.001009

 13 C s       :     3.193536  s :     3.193536
      pz      :     0.891219  p :     2.872610
      px      :     0.940207
      py      :     1.041183
      dz2     :     0.017761  d :     0.065295
      dxz     :     0.009182
      dyz     :     0.014001
      dx2y2   :     0.014799
      dxy     :     0.009552
      f0      :     0.000886  f :     0.006465
      f+1     :     0.000912
      f-1     :     0.000920
      f+2     :     0.001213
      f-2     :     0.001120
      f+3     :     0.000500
      f-3     :     0.000914

 14 C s       :     3.240308  s :     3.240308
      pz      :     0.902395  p :     2.772964
      px      :     0.937504
      py      :     0.933065
      dz2     :     0.020912  d :     0.077603
      dxz     :     0.011391
      dyz     :     0.012644
      dx2y2   :     0.016891
      dxy     :     0.015765
      f0      :     0.000804  f :     0.006967
      f+1     :     0.001087
      f-1     :     0.000960
      f+2     :     0.001292
      f-2     :     0.001086
      f+3     :     0.000878
      f-3     :     0.000860

 15 C s       :     3.206720  s :     3.206720
      pz      :     0.998948  p :     2.870722
      px      :     0.926942
      py      :     0.944832
      dz2     :     0.007722  d :     0.063982
      dxz     :     0.013662
      dyz     :     0.012862
      dx2y2   :     0.018242
      dxy     :     0.011494
      f0      :     0.000357  f :     0.006540
      f+1     :     0.001010
      f-1     :     0.000980
      f+2     :     0.000863
      f-2     :     0.001092
      f+3     :     0.001027
      f-3     :     0.001211

 16 C s       :     3.225102  s :     3.225102
      pz      :     0.930971  p :     2.852691
      px      :     1.007374
      py      :     0.914346
      dz2     :     0.016877  d :     0.060593
      dxz     :     0.010352
      dyz     :     0.007883
      dx2y2   :     0.012814
      dxy     :     0.012666
      f0      :     0.000812  f :     0.006314
      f+1     :     0.000619
      f-1     :     0.001107
      f+2     :     0.001177
      f-2     :     0.001028
      f+3     :     0.000557
      f-3     :     0.001013

 17 C s       :     3.222429  s :     3.222429
      pz      :     0.935944  p :     2.846173
      px      :     0.924532
      py      :     0.985697
      dz2     :     0.015652  d :     0.061009
      dxz     :     0.010168
      dyz     :     0.009606
      dx2y2   :     0.010788
      dxy     :     0.014795
      f0      :     0.000831  f :     0.006286
      f+1     :     0.001007
      f-1     :     0.000659
      f+2     :     0.001163
      f-2     :     0.001032
      f+3     :     0.000950
      f-3     :     0.000645

 18 C s       :     3.235724  s :     3.235724
      pz      :     0.990738  p :     2.862154
      px      :     0.919731
      py      :     0.951686
      dz2     :     0.006890  d :     0.060552
      dxz     :     0.013390
      dyz     :     0.011578
      dx2y2   :     0.018115
      dxy     :     0.010580
      f0      :     0.000371  f :     0.006271
      f+1     :     0.000959
      f-1     :     0.000905
      f+2     :     0.000856
      f-2     :     0.001115
      f+3     :     0.000927
      f-3     :     0.001138

 19 C s       :     3.185848  s :     3.185848
      pz      :     0.907689  p :     2.869462
      px      :     1.020707
      py      :     0.941066
      dz2     :     0.015790  d :     0.065119
      dxz     :     0.011314
      dyz     :     0.011053
      dx2y2   :     0.015023
      dxy     :     0.011939
      f0      :     0.000791  f :     0.006457
      f+1     :     0.000573
      f-1     :     0.001119
      f+2     :     0.001310
      f-2     :     0.001044
      f+3     :     0.000564
      f-3     :     0.001057

 20 H s       :     0.834044  s :     0.834044
      pz      :     0.011592  p :     0.018609
      px      :     0.003426
      py      :     0.003592

 21 H s       :     0.834156  s :     0.834156
      pz      :     0.003846  p :     0.018613
      px      :     0.005453
      py      :     0.009314

 22 H s       :     0.820003  s :     0.820003
      pz      :     0.004537  p :     0.018542
      px      :     0.006178
      py      :     0.007828

 23 H s       :     0.833212  s :     0.833212
      pz      :     0.010506  p :     0.019556
      px      :     0.003230
      py      :     0.005820

 24 H s       :     0.796146  s :     0.796146
      pz      :     0.005333  p :     0.020579
      px      :     0.008719
      py      :     0.006527

 25 H s       :     0.826842  s :     0.826842
      pz      :     0.010798  p :     0.019912
      px      :     0.003386
      py      :     0.005728

 26 H s       :     0.834001  s :     0.834001
      pz      :     0.005333  p :     0.019571
      px      :     0.007760
      py      :     0.006477

 27 H s       :     0.825704  s :     0.825704
      pz      :     0.010053  p :     0.019895
      px      :     0.006797
      py      :     0.003045

 28 H s       :     0.834723  s :     0.834723
      pz      :     0.004040  p :     0.019671
      px      :     0.003709
      py      :     0.011922

 29 H s       :     0.835042  s :     0.835042
      pz      :     0.005669  p :     0.019632
      px      :     0.005203
      py      :     0.008760

 30 H s       :     0.834762  s :     0.834762
      pz      :     0.009782  p :     0.019646
      px      :     0.006856
      py      :     0.003008

 31 H s       :     0.795604  s :     0.795604
      pz      :     0.003963  p :     0.020615
      px      :     0.003660
      py      :     0.012993

 32 H s       :     0.825194  s :     0.825194
      pz      :     0.009086  p :     0.019892
      px      :     0.004814
      py      :     0.005991

 33 H s       :     0.834830  s :     0.834830
      pz      :     0.004548  p :     0.019667
      px      :     0.011211
      py      :     0.003908

 34 H s       :     0.834957  s :     0.834957
      pz      :     0.004680  p :     0.019634
      px      :     0.005069
      py      :     0.009885

 35 H s       :     0.834999  s :     0.834999
      pz      :     0.008818  p :     0.019639
      px      :     0.004907
      py      :     0.005914

 36 H s       :     0.795753  s :     0.795753
      pz      :     0.004442  p :     0.020646
      px      :     0.011927
      py      :     0.004276



                     *******************************
                     * LOEWDIN POPULATION ANALYSIS *
                     *******************************

----------------------
LOEWDIN ATOMIC CHARGES
----------------------
   0 C :   -0.268251
   1 C :   -0.167287
   2 C :   -0.119258
   3 C :   -0.135702
   4 C :   -0.282019
   5 C :   -0.141472
   6 C :   -0.119974
   7 P :    0.698584
   8 C :   -0.275913
   9 C :   -0.142479
  10 C :   -0.144260
  11 C :   -0.142397
  12 C :   -0.143356
  13 C :   -0.137752
  14 C :   -0.276684
  15 C :   -0.143298
  16 C :   -0.144444
  17 C :   -0.142256
  18 C :   -0.143203
  19 C :   -0.136623
  20 H :    0.131294
  21 H :    0.131184
  22 H :    0.136025
  23 H :    0.149567
  24 H :    0.158186
  25 H :    0.150705
  26 H :    0.149537
  27 H :    0.150636
  28 H :    0.147655
  29 H :    0.146819
  30 H :    0.147695
  31 H :    0.157860
  32 H :    0.150684
  33 H :    0.147669
  34 H :    0.146820
  35 H :    0.147636
  36 H :    0.158071

-------------------------------
LOEWDIN REDUCED ORBITAL CHARGES
-------------------------------
  0 C s       :     2.830646  s :     2.830646
      pz      :     1.063463  p :     3.166687
      px      :     1.030979
      py      :     1.072244
      dz2     :     0.068610  d :     0.246983
      dxz     :     0.045777
      dyz     :     0.013099
      dx2y2   :     0.037451
      dxy     :     0.082046
      f0      :     0.003571  f :     0.023935
      f+1     :     0.003289
      f-1     :     0.000833
      f+2     :     0.004253
      f-2     :     0.004420
      f+3     :     0.004497
      f-3     :     0.003073

  1 C s       :     2.726260  s :     2.726260
      pz      :     0.980886  p :     2.875212
      px      :     0.989297
      py      :     0.905029
      dz2     :     0.110287  d :     0.511239
      dxz     :     0.132289
      dyz     :     0.073287
      dx2y2   :     0.098027
      dxy     :     0.097351
      f0      :     0.006138  f :     0.054575
      f+1     :     0.012519
      f-1     :     0.006248
      f+2     :     0.007569
      f-2     :     0.007602
      f+3     :     0.006155
      f-3     :     0.008345

  2 C s       :     2.770967  s :     2.770967
      pz      :     0.964184  p :     2.936091
      px      :     1.038749
      py      :     0.933158
      dz2     :     0.069824  d :     0.372306
      dxz     :     0.089116
      dyz     :     0.046067
      dx2y2   :     0.082559
      dxy     :     0.084741
      f0      :     0.002337  f :     0.039894
      f+1     :     0.009521
      f-1     :     0.003555
      f+2     :     0.006045
      f-2     :     0.005827
      f+3     :     0.005355
      f-3     :     0.007253

  3 C s       :     2.775658  s :     2.775658
      pz      :     0.990138  p :     2.935194
      px      :     1.020836
      py      :     0.924221
      dz2     :     0.077893  d :     0.384084
      dxz     :     0.122746
      dyz     :     0.053778
      dx2y2   :     0.049244
      dxy     :     0.080423
      f0      :     0.006184  f :     0.040765
      f+1     :     0.008260
      f-1     :     0.004827
      f+2     :     0.006248
      f-2     :     0.005227
      f+3     :     0.003951
      f-3     :     0.006069

  4 C s       :     2.778570  s :     2.778570
      pz      :     1.029805  p :     3.003195
      px      :     1.028372
      py      :     0.945018
      dz2     :     0.099536  d :     0.455276
      dxz     :     0.134606
      dyz     :     0.070766
      dx2y2   :     0.088288
      dxy     :     0.062079
      f0      :     0.005740  f :     0.044978
      f+1     :     0.009901
      f-1     :     0.006132
      f+2     :     0.006446
      f-2     :     0.006656
      f+3     :     0.004937
      f-3     :     0.005167

  5 C s       :     2.776385  s :     2.776385
      pz      :     0.965183  p :     2.938322
      px      :     1.048782
      py      :     0.924357
      dz2     :     0.072328  d :     0.385921
      dxz     :     0.091697
      dyz     :     0.046887
      dx2y2   :     0.087577
      dxy     :     0.087433
      f0      :     0.002339  f :     0.040844
      f+1     :     0.009924
      f-1     :     0.003637
      f+2     :     0.006284
      f-2     :     0.005931
      f+3     :     0.005449
      f-3     :     0.007280

  6 C s       :     2.770828  s :     2.770828
      pz      :     0.989505  p :     2.937299
      px      :     1.014960
      py      :     0.932834
      dz2     :     0.075427  d :     0.371870
      dxz     :     0.117447
      dyz     :     0.052070
      dx2y2   :     0.048633
      dxy     :     0.078293
      f0      :     0.005846  f :     0.039976
      f+1     :     0.008126
      f-1     :     0.004771
      f+2     :     0.006299
      f-2     :     0.005090
      f+3     :     0.003829
      f-3     :     0.006014

  7 P s       :     4.928383  s :     4.928383
      pz      :     3.306339  p :     8.785341
      px      :     2.738874
      py      :     2.740128
      dz2     :     0.070035  d :     0.492512
      dxz     :     0.083613
      dyz     :     0.091744
      dx2y2   :     0.124684
      dxy     :     0.122435
      f0      :     0.007073  f :     0.095180
      f+1     :     0.008982
      f-1     :     0.010183
      f+2     :     0.019838
      f-2     :     0.018762
      f+3     :     0.015685
      f-3     :     0.014656

  8 C s       :     2.780302  s :     2.780302
      pz      :     1.013742  p :     2.995587
      px      :     0.939203
      py      :     1.042642
      dz2     :     0.091461  d :     0.455281
      dxz     :     0.059215
      dyz     :     0.138139
      dx2y2   :     0.074654
      dxy     :     0.091811
      f0      :     0.006057  f :     0.044743
      f+1     :     0.005214
      f-1     :     0.008625
      f+2     :     0.006186
      f-2     :     0.006773
      f+3     :     0.006088
      f-3     :     0.005800

  9 C s       :     2.777385  s :     2.777385
      pz      :     0.962439  p :     2.941818
      px      :     0.919243
      py      :     1.060136
      dz2     :     0.062362  d :     0.382607
      dxz     :     0.046392
      dyz     :     0.096426
      dx2y2   :     0.090354
      dxy     :     0.087072
      f0      :     0.002770  f :     0.040669
      f+1     :     0.002992
      f-1     :     0.009463
      f+2     :     0.005598
      f-2     :     0.006473
      f+3     :     0.005865
      f-3     :     0.007508

 10 C s       :     2.778210  s :     2.778210
      pz      :     1.000183  p :     2.949655
      px      :     0.947711
      py      :     1.001760
      dz2     :     0.088667  d :     0.375796
      dxz     :     0.060555
      dyz     :     0.091442
      dx2y2   :     0.081642
      dxy     :     0.053490
      f0      :     0.005077  f :     0.040600
      f+1     :     0.005394
      f-1     :     0.007635
      f+2     :     0.005515
      f-2     :     0.007549
      f+3     :     0.003766
      f-3     :     0.005664

 11 C s       :     2.778856  s :     2.778856
      pz      :     0.986572  p :     2.948525
      px      :     0.936240
      py      :     1.025712
      dz2     :     0.068081  d :     0.374469
      dxz     :     0.046430
      dyz     :     0.116735
      dx2y2   :     0.061311
      dxy     :     0.081912
      f0      :     0.006182  f :     0.040547
      f+1     :     0.004791
      f-1     :     0.006493
      f+2     :     0.005646
      f-2     :     0.006331
      f+3     :     0.006066
      f-3     :     0.005039

 12 C s       :     2.778459  s :     2.778459
      pz      :     0.957378  p :     2.948289
      px      :     0.925512
      py      :     1.065399
      dz2     :     0.059691  d :     0.376109
      dxz     :     0.045668
      dyz     :     0.094681
      dx2y2   :     0.089543
      dxy     :     0.086526
      f0      :     0.002762  f :     0.040499
      f+1     :     0.002944
      f-1     :     0.009252
      f+2     :     0.005541
      f-2     :     0.006529
      f+3     :     0.005847
      f-3     :     0.007623

 13 C s       :     2.776727  s :     2.776727
      pz      :     0.987706  p :     2.939764
      px      :     0.943930
      py      :     1.008128
      dz2     :     0.087230  d :     0.380698
      dxz     :     0.062213
      dyz     :     0.093791
      dx2y2   :     0.082250
      dxy     :     0.055214
      f0      :     0.005064  f :     0.040563
      f+1     :     0.005431
      f-1     :     0.007553
      f+2     :     0.005546
      f-2     :     0.007430
      f+3     :     0.003823
      f-3     :     0.005715

 14 C s       :     2.780438  s :     2.780438
      pz      :     0.990585  p :     2.996104
      px      :     1.014977
      py      :     0.990542
      dz2     :     0.082851  d :     0.455395
      dxz     :     0.099207
      dyz     :     0.086427
      dx2y2   :     0.091124
      dxy     :     0.095787
      f0      :     0.005167  f :     0.044747
      f+1     :     0.006427
      f-1     :     0.005868
      f+2     :     0.009037
      f-2     :     0.005221
      f+3     :     0.006161
      f-3     :     0.006866

 15 C s       :     2.777551  s :     2.777551
      pz      :     0.947230  p :     2.942382
      px      :     1.010782
      py      :     0.984370
      dz2     :     0.048860  d :     0.382706
      dxz     :     0.075494
      dyz     :     0.065865
      dx2y2   :     0.087216
      dxy     :     0.105271
      f0      :     0.002580  f :     0.040659
      f+1     :     0.006294
      f-1     :     0.005136
      f+2     :     0.007257
      f-2     :     0.004576
      f+3     :     0.006158
      f-3     :     0.008656

 16 C s       :     2.778221  s :     2.778221
      pz      :     0.976238  p :     2.949835
      px      :     0.971770
      py      :     1.001828
      dz2     :     0.071293  d :     0.375793
      dxz     :     0.062807
      dyz     :     0.081288
      dx2y2   :     0.090311
      dxy     :     0.070094
      f0      :     0.004985  f :     0.040595
      f+1     :     0.004924
      f-1     :     0.005834
      f+2     :     0.007897
      f-2     :     0.005203
      f+3     :     0.004596
      f-3     :     0.007156

 17 C s       :     2.778878  s :     2.778878
      pz      :     0.973006  p :     2.948350
      px      :     1.016106
      py      :     0.959238
      dz2     :     0.068533  d :     0.374484
      dxz     :     0.089918
      dyz     :     0.054000
      dx2y2   :     0.074598
      dxy     :     0.087435
      f0      :     0.005133  f :     0.040544
      f+1     :     0.005930
      f-1     :     0.004596
      f+2     :     0.008196
      f-2     :     0.004704
      f+3     :     0.006189
      f-3     :     0.005796

 18 C s       :     2.778470  s :     2.778470
      pz      :     0.943892  p :     2.948200
      px      :     1.016701
      py      :     0.987607
      dz2     :     0.046607  d :     0.376040
      dxz     :     0.074778
      dyz     :     0.063874
      dx2y2   :     0.088617
      dxy     :     0.102164
      f0      :     0.002630  f :     0.040493
      f+1     :     0.006244
      f-1     :     0.004910
      f+2     :     0.007279
      f-2     :     0.004498
      f+3     :     0.006152
      f-3     :     0.008780

 19 C s       :     2.776635  s :     2.776635
      pz      :     0.963842  p :     2.938704
      px      :     0.976071
      py      :     0.998791
      dz2     :     0.070034  d :     0.380699
      dxz     :     0.063142
      dyz     :     0.083950
      dx2y2   :     0.093087
      dxy     :     0.070487
      f0      :     0.004976  f :     0.040585
      f+1     :     0.004820
      f-1     :     0.005865
      f+2     :     0.007879
      f-2     :     0.005136
      f+3     :     0.004656
      f-3     :     0.007252

 20 H s       :     0.811169  s :     0.811169
      pz      :     0.034090  p :     0.057538
      px      :     0.010993
      py      :     0.012455

 21 H s       :     0.811262  s :     0.811262
      pz      :     0.013280  p :     0.057554
      px      :     0.015492
      py      :     0.028781

 22 H s       :     0.806247  s :     0.806247
      pz      :     0.015282  p :     0.057728
      px      :     0.017882
      py      :     0.024564

 23 H s       :     0.794737  s :     0.794737
      pz      :     0.027728  p :     0.055696
      px      :     0.011029
      py      :     0.016939

 24 H s       :     0.783579  s :     0.783579
      pz      :     0.015929  p :     0.058235
      px      :     0.023824
      py      :     0.018482

 25 H s       :     0.793231  s :     0.793231
      pz      :     0.028175  p :     0.056064
      px      :     0.011104
      py      :     0.016785

 26 H s       :     0.794741  s :     0.794741
      pz      :     0.015914  p :     0.055722
      px      :     0.021424
      py      :     0.018383

 27 H s       :     0.793196  s :     0.793196
      pz      :     0.026538  p :     0.056168
      px      :     0.019278
      py      :     0.010351

 28 H s       :     0.796570  s :     0.796570
      pz      :     0.012876  p :     0.055775
      px      :     0.011863
      py      :     0.031036

 29 H s       :     0.797368  s :     0.797368
      pz      :     0.016596  p :     0.055813
      px      :     0.015371
      py      :     0.023846

 30 H s       :     0.796555  s :     0.796555
      pz      :     0.026009  p :     0.055750
      px      :     0.019069
      py      :     0.010672

 31 H s       :     0.783649  s :     0.783649
      pz      :     0.012649  p :     0.058491
      px      :     0.011870
      py      :     0.033972

 32 H s       :     0.793133  s :     0.793133
      pz      :     0.024237  p :     0.056183
      px      :     0.014608
      py      :     0.017338

 33 H s       :     0.796555  s :     0.796555
      pz      :     0.014000  p :     0.055776
      px      :     0.029301
      py      :     0.012475

 34 H s       :     0.797364  s :     0.797364
      pz      :     0.014253  p :     0.055816
      px      :     0.015286
      py      :     0.026277

 35 H s       :     0.796627  s :     0.796627
      pz      :     0.023741  p :     0.055738
      px      :     0.014929
      py      :     0.017067

 36 H s       :     0.783384  s :     0.783384
      pz      :     0.013847  p :     0.058544
      px      :     0.031293
      py      :     0.013405



                      *****************************
                      * MAYER POPULATION ANALYSIS *
                      *****************************

  NA   - Mulliken gross atomic population
  ZA   - Total nuclear charge
  QA   - Mulliken gross atomic charge
  VA   - Mayer's total valence
  BVA  - Mayer's bonded valence
  FA   - Mayer's free valence

  ATOM       NA         ZA         QA         VA         BVA        FA
  0 C      6.4781     6.0000    -0.4781     3.8492     3.8492    -0.0000
  1 C      5.8815     6.0000     0.1185     3.7359     3.7359     0.0000
  2 C      6.1881     6.0000    -0.1881     3.9766     3.9766     0.0000
  3 C      6.1396     6.0000    -0.1396     3.8508     3.8508    -0.0000
  4 C      6.1222     6.0000    -0.1222     3.8436     3.8436     0.0000
  5 C      6.1354     6.0000    -0.1354     3.9475     3.9475     0.0000
  6 C      6.1775     6.0000    -0.1775     3.9458     3.9458    -0.0000
  7 P     14.8770    15.0000     0.1230     3.0892     3.0892    -0.0000
  8 C      6.0896     6.0000    -0.0896     3.8268     3.8268    -0.0000
  9 C      6.1483     6.0000    -0.1483     3.9392     3.9392    -0.0000
 10 C      6.1456     6.0000    -0.1456     3.9504     3.9504    -0.0000
 11 C      6.1370     6.0000    -0.1370     3.9208     3.9208    -0.0000
 12 C      6.1598     6.0000    -0.1598     3.9773     3.9773    -0.0000
 13 C      6.1379     6.0000    -0.1379     3.8292     3.8292    -0.0000
 14 C      6.0978     6.0000    -0.0978     3.8316     3.8316    -0.0000
 15 C      6.1480     6.0000    -0.1480     3.9319     3.9319    -0.0000
 16 C      6.1447     6.0000    -0.1447     3.9476     3.9476    -0.0000
 17 C      6.1359     6.0000    -0.1359     3.9189     3.9189    -0.0000
 18 C      6.1647     6.0000    -0.1647     3.9821     3.9821     0.0000
 19 C      6.1269     6.0000    -0.1269     3.8321     3.8321     0.0000
 20 H      0.8527     1.0000     0.1473     0.9556     0.9556    -0.0000
 21 H      0.8528     1.0000     0.1472     0.9556     0.9556    -0.0000
 22 H      0.8385     1.0000     0.1615     0.9417     0.9417    -0.0000
 23 H      0.8528     1.0000     0.1472     0.9636     0.9636    -0.0000
 24 H      0.8167     1.0000     0.1833     0.9498     0.9498    -0.0000
 25 H      0.8468     1.0000     0.1532     0.9695     0.9695    -0.0000
 26 H      0.8536     1.0000     0.1464     0.9626     0.9626     0.0000
 27 H      0.8456     1.0000     0.1544     0.9685     0.9685     0.0000
 28 H      0.8544     1.0000     0.1456     0.9647     0.9647    -0.0000
 29 H      0.8547     1.0000     0.1453     0.9640     0.9640    -0.0000
 30 H      0.8544     1.0000     0.1456     0.9657     0.9657    -0.0000
 31 H      0.8162     1.0000     0.1838     0.9503     0.9503    -0.0000
 32 H      0.8451     1.0000     0.1549     0.9686     0.9686    -0.0000
 33 H      0.8545     1.0000     0.1455     0.9649     0.9649    -0.0000
 34 H      0.8546     1.0000     0.1454     0.9642     0.9642    -0.0000
 35 H      0.8546     1.0000     0.1454     0.9660     0.9660     0.0000
 36 H      0.8164     1.0000     0.1836     0.9487     0.9487     0.0000

  Mayer bond orders larger than 0.100000
B(  0-C ,  1-C ) :   0.9299 B(  0-C , 20-H ) :   0.9818 B(  0-C , 21-H ) :   0.9816 
B(  0-C , 22-H ) :   0.9476 B(  1-C ,  2-C ) :   1.3987 B(  1-C ,  6-C ) :   1.3899 
B(  2-C ,  3-C ) :   1.4954 B(  2-C , 23-H ) :   0.9257 B(  3-C ,  4-C ) :   1.3265 
B(  3-C , 24-H ) :   0.9291 B(  4-C ,  5-C ) :   1.3945 B(  4-C ,  7-P ) :   0.9361 
B(  5-C ,  6-C ) :   1.4855 B(  5-C , 25-H ) :   0.9370 B(  6-C , 26-H ) :   0.9352 
B(  7-P ,  8-C ) :   0.9349 B(  7-P , 14-C ) :   0.9331 B(  8-C ,  9-C ) :   1.3983 
B(  8-C , 13-C ) :   1.3403 B(  9-C , 10-C ) :   1.4627 B(  9-C , 27-H ) :   0.9353 
B( 10-C , 11-C ) :   1.4258 B( 10-C , 28-H ) :   0.9474 B( 11-C , 12-C ) :   1.4401 
B( 11-C , 29-H ) :   0.9469 B( 12-C , 13-C ) :   1.4586 B( 12-C , 30-H ) :   0.9444 
B( 13-C , 31-H ) :   0.9266 B( 14-C , 15-C ) :   1.3947 B( 14-C , 19-C ) :   1.3458 
B( 15-C , 16-C ) :   1.4595 B( 15-C , 32-H ) :   0.9362 B( 16-C , 17-C ) :   1.4264 
B( 16-C , 33-H ) :   0.9476 B( 17-C , 18-C ) :   1.4390 B( 17-C , 34-H ) :   0.9469 
B( 18-C , 19-C ) :   1.4609 B( 18-C , 35-H ) :   0.9441 B( 19-C , 36-H ) :   0.9250 


-------
TIMINGS
-------

Total SCF time: 0 days 0 hours 2 min 1 sec 

Total time                  ....     121.270 sec
Sum of individual times     ....     121.325 sec  (100.0%)

SCF preparation             ....       0.277 sec  (  0.2%)
Fock matrix formation       ....     117.328 sec  ( 96.7%)
  Startup                   ....       0.130 sec  (  0.1% of F)
  Split-RI-J                ....       8.422 sec  (  7.2% of F)
  Chain of spheres X        ....      83.946 sec  ( 71.5% of F)
  XC integration            ....      24.482 sec  ( 20.9% of F)
    Basis function eval.    ....       3.529 sec  ( 14.4% of XC)
    Density eval.           ....       9.893 sec  ( 40.4% of XC)
    XC-Functional eval.     ....       0.428 sec  (  1.7% of XC)
    XC-Potential eval.      ....       9.053 sec  ( 37.0% of XC)
Diagonalization             ....       0.000 sec  (  0.0%)
Density matrix formation    ....       0.326 sec  (  0.3%)
Total Energy calculation    ....       0.121 sec  (  0.1%)
Population analysis         ....       0.193 sec  (  0.2%)
Orbital Transformation      ....       0.439 sec  (  0.4%)
Orbital Orthonormalization  ....       0.000 sec  (  0.0%)
DIIS solution               ....       1.831 sec  (  1.5%)
SOSCF solution              ....       0.810 sec  (  0.7%)
Finished LeanSCF after 121.3 sec

Maximum memory used throughout the entire LEANSCF-calculation: 103.1 MB


-------------------------------------------------------------------------------
                          DFT DISPERSION CORRECTION                            
                                                                               
                              DFTD3 V3.1  Rev 1                                
                              USING zero damping                               
-------------------------------------------------------------------------------
The M062X functional is recognized
Active option DFTDOPT                   ...         3   

molecular C6(AA) [au] = 18671.916468 


            DFT-D V3
 parameters
 s6 scaling factor         :     1.0000 
 rs6 scaling factor        :     1.6190 
 s8 scaling factor         :     0.0000 
 rs8 scaling factor        :     1.0000 
 Damping factor alpha6     :    14.0000 
 Damping factor alpha8     :    16.0000 
 ad hoc parameters k1-k3   :    16.0000     1.3333    -4.0000 

 Edisp/kcal,au: -1.401589861386  -0.002233575380 
 E6   /kcal   :  -1.401589861 
 E8   /kcal   :  -0.000000000 
 % E8         :   0.000000000 

-------------------------   ----------------
Dispersion correction           -0.002233575
-------------------------   ----------------


-------------------------   --------------------
FINAL SINGLE POINT ENERGY     -1075.552142009255
-------------------------   --------------------



           ************************************************************
           *        Program running with 6 parallel MPI-processes     *
           *              working on a common directory               *
           ************************************************************

------------------------------------------------------------------------------
                              ORCA PROPERTY CALCULATIONS
------------------------------------------------------------------------------

GBWName                                 ... data/single_point_P_M06-2x/70575/70575.gbw
Number of atoms                         ...     37
Number of basis functions               ...    728
Max core memory                         ...   1024 MB

Electric properties:
Dipole moment                           ... YES
Quadrupole moment                       ...  NO
Static polarizability (Dipole/Dipole)   ...  NO
Static polarizability (Dipole/Quad.)    ...  NO
Static polarizability (Quad./Quad.)     ...  NO
Static polarizability (Velocity)        ...  NO

Atomic electric properties:
Dipole moment                           ...  NO
Quadrupole moment                       ...  NO
Static polarizability                   ...  NO

Choice of electric origin               ... Center of mass
Position of electric origin             ...    -0.409093    -0.038119    -0.447929

General magnetic properties:
Magnetizability                         ...  NO

EPR properties:
g-Tensor (aka g-matrix)                 ...  NO
Zero-Field splitting spin-orbit         ...  NO
Zero-field splitting spin-spin          ...  NO
Hyperfine couplings                     ...  NO (   0 nuclei)
Quadrupole couplings                    ...  NO (   0 nuclei)
Contact density                         ...  NO (   0 nuclei)

NMR properties:
Chemical shifts                         ...  NO (   0 nuclei)
Spin-rotation constants                 ...  NO (   0 nuclei)
Spin-spin couplings                     ...  NO (   0 nuclei,    0 pairs)

Choice of magnetic origin               ... GIAO
Position of magnetic origin             ...     0.000000     0.000000     0.000000

Properties with geometric perturbations:
SCF Hessian                             ...  NO
IR spectrum                             ...  NO
VCD spectrum                            ...  NO
X-ray spectroscopy properties:
SCF XES/XAS/RIXS spectra                ...  NO


-------------
DIPOLE MOMENT
-------------

Method             : SCF
Type of density    : Electron Density
Multiplicity       :   1
Irrep              :   0
Energy             : -1075.5499084338746343 Eh
Relativity type    : 
Basis              : AO
                                X                 Y                 Z
Electronic contribution:     -7.708072653      -0.646249276      -7.403369620
Nuclear contribution   :      7.947798002       0.686079142       8.018932048
                        -----------------------------------------
Total Dipole Moment    :      0.239725350       0.039829866       0.615562427
                        -----------------------------------------
Magnitude (a.u.)       :      0.661794351
Magnitude (Debye)      :      1.682147559



--------------------
Rotational spectrum 
--------------------
 
Rotational constants in cm-1:             0.011702             0.008922             0.005943 
Rotational constants in MHz :           350.813414           267.464288           178.177336 

Dipole components along the rotational axes: 
x,y,z [a.u.] :     0.259421    -0.010134     0.608745 
x,y,z [Debye]:     0.659395    -0.025760     1.547306 

 

Dipole moment calculation done in   0.0 sec 

Maximum memory used throughout the entire PROP-calculation: 55.5 MB

--------------------------------
SUGGESTED CITATIONS FOR THIS RUN
--------------------------------

Below you find a list of papers that are relevant to this ORCA run
We neither can nor want to force you to cite these papers, but we appreciate if you do
You receive ORCA, which is the product of decades of hard work by many enthusiastic individuals, for free
The only thing we kindly ask in return is that you cite our papers,
We deeply appreciate it, if you show your appreciation for ORCA by not just citing the generic ORCA reference.

Please note that relegating all ORCA citations to the supporting information does *not* help us.
SI sections are not indexed - citations you put there will not count into any citation statistics
But we need these citations in order to attract the funding resources that allow us to do what we are doing

Therefore, if you are a happy ORCA user, please consider citing a few of the papers listed below in the main body of your paper

In addition to the list printed below, the program has created the file data/single_point_P_M06-2x/70575/70575.bibtex that contains the list in bibtex format
You can import this file easily into all common literature databanks and citation aid programs


List of essential papers. We consider these as the minimum necessary citations

  1. Neese,F.
     Software update: the ORCA program system, version 5.0
     WIRES Comput. Molec. Sci., 2022 12(1)e1606
     doi.org/10.1002/wcms.1606

List of papers to cite with high priority. The work reported in these papers was absolutely
necessary for this run to complete.
Our perspective: the developers of density functionals and basis sets usually get cited in chemistry papers
Good! But without the algorithms to do something with them, the functionals or basis sets would not do anything.
Hence, in our opinion, the algorithm design and method developments papers are equally worthy of getting cited

  1. Neese,F.
     An improvement of the resolution of the identity approximation for the formation of the Coulomb matrix
     J. Comp. Chem., 2003 24(14)1740-1747
     doi.org/10.1002/jcc.10318
  2. Neese,F.; Wennmohs,F.; Hansen,A.; Becker,U.
     Efficient, approximate and parallel Hartree-Fock and hybrid DFT calculations. A 'chain-of-spheres' algorithm for the Hartree-Fock exchange
     Chem. Phys., 2009 356(1-3)98-109
     doi.org/10.1016/j.chemphys.2008.10.036
  3. Helmich-Paris,B.; de Souza,B.; Neese,F.; Izsák,R.
     An improved chain of spheres for exchange algorithm
     J. Chem. Phys., 2021 155 104109
     doi.org/doi: 10.1063/5.0058766.
  4. Neese,F.
     The SHARK Integral Generation and Digestion System
     J. Comp. Chem., 2022  1-16
     doi.org/10.1002/jcc.26942
  5. Grimme,S.; Antony,J.; Ehrlich,S.; Krieg,H.
     A consistent and accurate ab initio parametrization of density functional dispersion correction (DFT-D) for the 94 elements H-Pu
     J. Chem. Phys., 2010 132 154104-XXXX
     doi.org/10.1063/1.3382344

List of suggested additional citations. These are papers that are important in the 'surrounding' of 
of this run, or papers that preceded the highly important papers. If you like your results we are grateful for a citation.

  1. Izsak,R.; Neese,F.
     An overlap fitted chain of spheres exchange method
     J. Chem. Phys., 2011 135 144105
     doi.org/10.1063/1.3646921
  2. Izsak,R.; Hansen,A.; Neese,F.
     The resolution of identity and chain of spheres approximations for the LPNO-CCSD singles Fock term
     Molec. Phys., 2012 110 2413-2417
     doi.org/10.1080/00268976.2012.687466
  3. Neese,F.
     The ORCA program system
     WIRES Comput. Molec. Sci., 2012 2(1)73-78
     doi.org/10.1002/wcms.81
  4. Izsak,R.; Neese,F.; Klopper,W.
     Robust fitting techniques in the chain of spheres approximation to the Fock exchange: The role of the complementary space
     J. Chem. Phys., 2013 139 
     doi.org/10.1063/1.4819264
  5. Neese,F.
     Software update: the ORCA program system, version 4.0
     WIRES Comput. Molec. Sci., 2018 8(1)1-6
     doi.org/10.1002/wcms.1327
  6. Neese,F.; Wennmohs,F.; Becker,U.; Riplinger,C.
     The ORCA quantum chemistry program package
     J. Chem. Phys., 2020 152 Art. No. L224108
     doi.org/10.1063/5.0004608

List of optional additional citations

  1. Neese,F.
     Approximate second-order SCF convergence for spin unrestricted wavefunctions
     Chem. Phys. Lett., 2000 325(1-3)93-98
     doi.org/10.1016/s0009-2614(00)00662-x

Timings for individual modules:

Sum of individual times          ...      127.401 sec (=   2.123 min)
Startup calculation              ...        3.897 sec (=   0.065 min)   3.1 %
SCF iterations                   ...      123.230 sec (=   2.054 min)  96.7 %
Property calculations            ...        0.274 sec (=   0.005 min)   0.2 %
                             ****ORCA TERMINATED NORMALLY****
TOTAL RUN TIME: 0 days 0 hours 2 minutes 7 seconds 652 msec
