
                                 *****************
                                 * O   R   C   A *
                                 *****************

                                            #,                                       
                                            ###                                      
                                            ####                                     
                                            #####                                    
                                            ######                                   
                                           ########,                                 
                                     ,,################,,,,,                         
                               ,,#################################,,                 
                          ,,##########################################,,             
                       ,#########################################, ''#####,          
                    ,#############################################,,   '####,        
                  ,##################################################,,,,####,       
                ,###########''''           ''''###############################       
              ,#####''   ,,,,##########,,,,          '''####'''          '####       
            ,##' ,,,,###########################,,,                        '##       
           ' ,,###''''                  '''############,,,                           
         ,,##''                                '''############,,,,        ,,,,,,###''
      ,#''                                            '''#######################'''  
     '                                                          ''''####''''         
             ,#######,   #######,   ,#######,      ##                                
            ,#'     '#,  ##    ##  ,#'     '#,    #''#        ,####,   ,####,        
            ##       ##  ##   ,#'  ##            #'  '#       #'       #'  '#        
            ##       ##  #######   ##           ,######,      #####,   #    #        
            '#,     ,#'  ##    ##  '#,     ,#' ,#      #,     #,   #   #,  ,#        
             '#######'   ##     ##  '#######'  #'      '#     '####' # '####'        



                #########################################################
                #                        -***-                          #
                #          Department of theory and spectroscopy        #
                #                                                       #
                #                      Frank Neese                      #
                #                                                       #
                #     Directorship, Architecture, Infrastructure        #
                #                    SHARK, DRIVERS                     #
                #        Core code/Algorithms in most modules           #
                #                                                       #
                #        Max Planck Institute fuer Kohlenforschung      #
                #                Kaiser Wilhelm Platz 1                 #
                #                 D-45470 Muelheim/Ruhr                 #
                #                      Germany                          #
                #                                                       #
                #                  All rights reserved                  #
                #                        -***-                          #
                #########################################################


                         Program Version 6.0.0  -   RELEASE   -


 With contributions from (in alphabetic order):
   Daniel Aravena         : Magnetic Suceptibility
   Michael Atanasov       : Ab Initio Ligand Field Theory (pilot matlab implementation)
   Alexander A. Auer      : GIAO ZORA, VPT2 properties, NMR spectrum
   Ute Becker             : All parallelization in ORCA, NUMFREQ, NUMCALC
   Giovanni Bistoni       : ED, misc. LED, open-shell LED, HFLD
   Martin Brehm           : Molecular dynamics
   Dmytro Bykov           : pre 5.0 version of the SCF Hessian
   Marcos Casanova-Páez   : Triplet and SCS-CIS(D). UHF-(DLPNO)-IP/EA/STEOM-CCSD. UHF-CVS-IP/STEOM-CCSD
   Vijay G. Chilkuri      : MRCI spin determinant printing, contributions to CSF-ICE
   Pauline Colinet        : FMM embedding
   Dipayan Datta          : RHF DLPNO-CCSD density
   Achintya Kumar Dutta   : EOM-CC, STEOM-CC
   Nicolas Foglia         : Exact transition moments, OPA infrastructure, MCD improvements
   Dmitry Ganyushin       : Spin-Orbit,Spin-Spin,Magnetic field MRCI
   Miquel Garcia          : C-PCM and meta-GGA Hessian, CCSD/C-PCM, Gaussian charge scheme
   Tiago L. C. Gouveia    : GS-ROHF, GS-ROCIS
   Yang Guo               : DLPNO-NEVPT2, F12-NEVPT2, CIM, IAO-localization
   Andreas Hansen         : Spin unrestricted coupled pair/coupled cluster methods
   Ingolf Harden          : AUTO-CI MPn and infrastructure 
   Benjamin Helmich-Paris : MC-RPA, TRAH-(SCF,CASSCF), AVAS, COSX integrals, SCF dyn. polar.
   Lee Huntington         : MR-EOM, pCC
   Robert Izsak           : Overlap fitted RIJCOSX, COSX-SCS-MP3, EOM
   Riya Kayal             : Wick's Theorem for AUTO-CI, AUTO-CI UHF-CCSDT
   Emily Kempfer          : AUTO-CI, RHF CISDT and CCSDT
   Christian Kollmar      : KDIIS, OOCD, Brueckner-CCSD(T), CCSD density, CASPT2, CASPT2-K, improved NEVPT2
   Axel Koslowski         : Symmetry handling
   Simone Kossmann        : Meta GGA functionals, TD-DFT gradient, OOMP2, (MP2 Hessian; deprecated post 5.0)
   Lucas Lang             : DCDCAS
   Marvin Lechner         : AUTO-CI (C++ implementation), FIC-MRCC
   Spencer Leger          : CASSCF response
   Dagmar Lenk            : GEPOL surface, SMD, ORCA-2-JSON
   Dimitrios Liakos       : Extrapolation schemes; Compound Job, initial MDCI parallelization
   Dimitrios Manganas     : Further ROCIS development; embedding schemes. LFT, Crystal Embedding
   Dimitrios Pantazis     : SARC Basis sets
   Anastasios Papadopoulos: AUTO-CI, single reference methods and gradients
   Taras Petrenko         : pre 6.0 DFT Hessian and TD-DFT gradient, (ASA, deprecated), ECA, 1-Electron XAS/XES, NRVS
   Peter Pinski           : DLPNO-MP2, DLPNO-MP2 Gradient
   Christoph Reimann      : Effective Core Potentials
   Marius Retegan         : Local ZFS, SOC
   Christoph Riplinger    : Optimizer, TS searches, QM/MM, DLPNO-CCSD(T), (RO)-DLPNO pert. Triples
   Michael Roemelt        : Original ROCIS implementation
   Masaaki Saitow         : Open-shell DLPNO-CCSD energy and density
   Barbara Sandhoefer     : DKH picture change effects
   Kantharuban Sivalingam : CASSCF convergence/infrastructure, NEVPT2 and variants, FIC-MRCI
   Bernardo de Souza      : ESD, SOC TD-DFT
   Georgi Stoychev        : AutoAux, RI-MP2 NMR, DLPNO-MP2 response, X2C
   Van Anh Tran           : RI-MP2 g-tensors
   Willem Van den Heuvel  : Paramagnetic NMR
   Zikuan Wang            : NOTCH, Electric field optimization 
   Frank Wennmohs         : Technical directorship and infrastructure
   Hang Xu                : AUTO-CI-Response properties 


 We gratefully acknowledge several colleagues who have allowed us to
 interface, adapt or use parts of their codes:
   Stefan Grimme, W. Hujo, H. Kruse, P. Pracht,  : VdW corrections, initial TS optimization,
                  C. Bannwarth, S. Ehlert,         DFT functionals, gCP, sTDA/sTD-DF
                  L. Wittmann, M. Mueller
   Ed Valeev, F. Pavosevic, A. Kumar             : LibInt (2-el integral package), F12 methods
   Garnet Chan, S. Sharma, J. Yang, R. Olivares  : DMRG
   Ulf Ekstrom                                   : XCFun DFT Library
   Mihaly Kallay                                 : mrcc  (arbitrary order and MRCC methods)
   Frank Weinhold                                : gennbo (NPA and NBO analysis)
   Simon Mueller                                 : openCOSMO-RS
   Christopher J. Cramer and Donald G. Truhlar   : smd solvation model
   Lars Goerigk                                  : TD-DFT with DH, B97 family of functionals
   V. Asgeirsson, H. Jonsson                     : NEB implementation
   FAccTs GmbH                                   : IRC, NEB, NEB-TS, DLPNO-Multilevel, CI-OPT
                                                   MM, QMMM, 2- and 3-layer-ONIOM, Crystal-QMMM,
                                                   LR-CPCM, SF, NACMEs, symmetry and pop. for TD-DFT,
                                                   nearIR, NL-DFT gradient (VV10), updates on ESD,
                                                   ML-optimized integration grids, MBIS, APM,
                                                   GOAT, DOCKER, SOLVATOR, interface openCOSMO-RS
   S Lehtola, MJT Oliveira, MAL Marques          : LibXC Library
   Liviu Ungur et al                             : ANISO software


 Your calculation uses the libint2 library for the computation of 2-el integrals
 For citations please refer to: http://libint.valeyev.net

 Your ORCA version has been built with support for libXC version: 6.2.2
 For citations please refer to: https://libxc.gitlab.io

 This ORCA versions uses:
   CBLAS   interface :  Fast vector & matrix operations
   LAPACKE interface :  Fast linear algebra routines
   Shared memory     :  Shared parallel matrices


Your calculation utilizes the atom-pairwise dispersion correction
with the Becke-Johnson damping scheme (D3BJ)


Warning: RI is on but no J-basis has been assigned. Assigning Def2/J (nothing to worry about!)
================================================================================

----- Orbital basis set information -----
Your calculation utilizes the basis: def2-SVP
   F. Weigend and R. Ahlrichs, Phys. Chem. Chem. Phys. 7, 3297 (2005).

----- AuxJ basis set information -----
Your calculation utilizes the auxiliary basis: def2/J
   F. Weigend, Phys. Chem. Chem. Phys. 8, 1057 (2006).

================================================================================
                                        WARNINGS
                       Please study these warnings very carefully!
================================================================================


WARNING: Geometry Optimization
  ===> : Switching off AutoStart
         For restart on a previous wavefunction, please use MOREAD

================================================================================
                                       INPUT FILE
================================================================================
NAME = data/geom_opt_P_BP86/121600/121600.inp
|  1> ! RI BP86 def2-SVP D3BJ TIGHTSCF Opt
|  2> %pal
|  3> nprocs 6
|  4> end
|  5> 
|  6> * xyz 0 1
|  7> C     -3.296128   -2.182510   -0.321687
|  8> C     -2.419882   -1.204959   -0.802917
|  9> C     -1.024629   -1.346316   -0.679951
| 10> C     -0.537286   -2.532854   -0.109952
| 11> C     -1.414955   -3.508041    0.370406
| 12> C     -2.791989   -3.334886    0.273322
| 13> Cl    -0.785974   -4.942877    1.084179
| 14> P      0.078191   -0.062011   -1.358299
| 15> C      1.637659   -0.239119   -0.428618
| 16> C      2.826956   -0.394813   -1.159689
| 17> C      4.051699   -0.530441   -0.503617
| 18> C      4.116604   -0.514284    0.886343
| 19> C      2.946837   -0.360681    1.626059
| 20> C      1.718202   -0.223242    0.973017
| 21> Cl     5.494913   -0.719633   -1.422286
| 22> C     -0.551685    1.508963   -0.667627
| 23> C     -1.249316    1.616285    0.544604
| 24> C     -1.692310    2.858985    1.002619
| 25> C     -1.449937    4.015357    0.267389
| 26> C     -0.756454    3.928998   -0.936525
| 27> C     -0.311277    2.686744   -1.398202
| 28> Cl    -2.545958    2.960765    2.494053
| 29> H     -4.370224   -2.044128   -0.418818
| 30> H     -2.846216   -0.323241   -1.280410
| 31> H      0.531490   -2.719665   -0.039849
| 32> H     -3.472789   -4.095413    0.645730
| 33> H      2.805824   -0.410978   -2.247497
| 34> H      5.070082   -0.620329    1.396548
| 35> H      2.987774   -0.347763    2.712645
| 36> H      0.824560   -0.112362    1.582145
| 37> H     -1.452212    0.736794    1.149841
| 38> H     -1.794531    4.981315    0.626236
| 39> H     -0.558741    4.826644   -1.517308
| 40> H      0.231700    2.649698   -2.341885
| 41> **                         ****END OF INPUT****
================================================================================

                       *****************************
                       * Geometry Optimization Run *
                       *****************************

Geometry optimization settings:
Update method            Update   .... BFGS
Choice of coordinates    CoordSys .... (2022) Redundant Internals
Initial Hessian          InHess   .... Almloef's Model
Max. no of cycles        MaxIter  .... 102

Convergence Tolerances:
Energy Change            TolE     ....  5.0000e-06 Eh
Max. Gradient            TolMAXG  ....  3.0000e-04 Eh/bohr
RMS Gradient             TolRMSG  ....  1.0000e-04 Eh/bohr
Max. Displacement        TolMAXD  ....  4.0000e-03 bohr
RMS Displacement         TolRMSD  ....  2.0000e-03 bohr
Strict Convergence                .... False

------------------------------------------------------------------------------
                        ORCA OPTIMIZATION COORDINATE SETUP
------------------------------------------------------------------------------

The optimization will be done in redundant internal coordinates (2022)
Making redundant internal coordinates   ...  (2022 redundants) done
Evaluating the initial hessian          ...  (Almloef) done
Evaluating the coordinates              ...  done
Calculating the B-matrix                .... done
Calculating the G-matrix                .... done
Diagonalizing the G-matrix              .... done
Small eigenvalue found = 4.557e-03
Small eigenvalue found = 7.003e-03
Small eigenvalue found = 9.304e-03
Small eigenvalue found = 2.312e-02
The first mode is                       ....   81
The number of degrees of freedom        ....   96

    -----------------------------------------------------------------
                    Redundant Internal Coordinates


    -----------------------------------------------------------------
         Definition                    Initial Value    Approx d2E/dq
    -----------------------------------------------------------------
      1. B(C   1,C   0)                  1.3982         0.606230   
      2. B(C   2,C   1)                  1.4078         0.585299   
      3. B(C   3,C   2)                  1.4037         0.594207   
      4. B(C   4,C   3)                  1.3972         0.608592   
      5. B(C   5,C   4)                  1.3913         0.621890   
      6. B(C   5,C   0)                  1.3915         0.621453   
      7. B(Cl  6,C   4)                  1.7216         0.414684   
      8. B(P   7,C   2)                  1.8237         0.426898   
      9. B(C   8,P   7)                  1.8242         0.426122   
     10. B(C   9,C   8)                  1.4047         0.591989   
     11. B(C  10,C   9)                  1.3960         0.611172   
     12. B(C  11,C  10)                  1.3916         0.621207   
     13. B(C  12,C  11)                  1.3925         0.619026   
     14. B(C  13,C  12)                  1.3982         0.606308   
     15. B(C  13,C   8)                  1.4040         0.593394   
     16. B(Cl 14,C  10)                  1.7212         0.415229   
     17. B(C  15,P   7)                  1.8280         0.420114   
     18. B(C  16,C  15)                  1.4028         0.596204   
     19. B(C  17,C  16)                  1.3965         0.609964   
     20. B(C  18,C  17)                  1.3916         0.621173   
     21. B(C  19,C  18)                  1.3920         0.620123   
     22. B(C  20,C  19)                  1.3980         0.606606   
     23. B(C  20,C  15)                  1.4067         0.587695   
     24. B(Cl 21,C  17)                  1.7215         0.414858   
     25. B(H  22,C   0)                  1.0873         0.363662   
     26. B(H  23,C   1)                  1.0896         0.360655   
     27. B(H  24,C   3)                  1.0872         0.363767   
     28. B(H  25,C   5)                  1.0865         0.364701   
     29. B(H  26,C   9)                  1.0881         0.362578   
     30. B(H  27,C  11)                  1.0866         0.364641   
     31. B(H  28,C  12)                  1.0874         0.363511   
     32. B(H  29,C  13)                  1.0872         0.363870   
     33. B(H  30,C  16)                  1.0867         0.364451   
     34. B(H  31,C  18)                  1.0866         0.364693   
     35. B(H  32,C  19)                  1.0873         0.363722   
     36. B(H  33,C  20)                  1.0894         0.360930   
     37. A(C   1,C   0,H  22)          119.9566         0.352156   
     38. A(C   5,C   0,H  22)          120.0995         0.353638   
     39. A(C   1,C   0,C   5)          119.9427         0.432498   
     40. A(C   0,C   1,H  23)          118.1241         0.351662   
     41. A(C   2,C   1,H  23)          120.4866         0.349582   
     42. A(C   0,C   1,C   2)          121.3893         0.427870   
     43. A(C   1,C   2,P   7)          119.7449         0.428605   
     44. A(C   3,C   2,P   7)          122.4386         0.429768   
     45. A(C   1,C   2,C   3)          117.6749         0.426337   
     46. A(C   2,C   3,C   4)          120.7656         0.429330   
     47. A(C   4,C   3,H  24)          118.3866         0.352405   
     48. A(C   2,C   3,H  24)          120.8453         0.350983   
     49. A(C   3,C   4,Cl  6)          119.6542         0.420816   
     50. A(C   5,C   4,Cl  6)          119.6218         0.422444   
     51. A(C   3,C   4,C   5)          120.7235         0.432855   
     52. A(C   0,C   5,C   4)          119.4402         0.434487   
     53. A(C   4,C   5,H  25)          120.6060         0.353851   
     54. A(C   0,C   5,H  25)          119.9492         0.353809   
     55. A(C   2,P   7,C  15)          104.8508         0.430817   
     56. A(C   2,P   7,C   8)          105.0123         0.431917   
     57. A(C   8,P   7,C  15)          100.6871         0.430676   
     58. A(P   7,C   8,C   9)          117.9902         0.429339   
     59. A(C   9,C   8,C  13)          118.1802         0.427101   
     60. A(P   7,C   8,C  13)          123.8290         0.429522   
     61. A(C   8,C   9,H  26)          120.3646         0.350567   
     62. A(C  10,C   9,H  26)          119.0399         0.352462   
     63. A(C   8,C   9,C  10)          120.5954         0.429367   
     64. A(C   9,C  10,C  11)          120.6115         0.433099   
     65. A(C  11,C  10,Cl 14)          119.6883         0.422460   
     66. A(C   9,C  10,Cl 14)          119.7002         0.421233   
     67. A(C  10,C  11,C  12)          119.5176         0.434095   
     68. A(C  12,C  11,H  27)          119.8985         0.353564   
     69. A(C  10,C  11,H  27)          120.5839         0.353775   
     70. A(C  13,C  12,H  28)          119.9085         0.352139   
     71. A(C  11,C  12,H  28)          120.0316         0.353379   
     72. A(C  11,C  12,C  13)          120.0599         0.432204   
     73. A(C   8,C  13,C  12)          121.0353         0.428935   
     74. A(C  12,C  13,H  29)          118.0766         0.352198   
     75. A(C   8,C  13,H  29)          120.8860         0.350919   
     76. A(C  16,C  15,C  20)          118.0190         0.426905   
     77. A(P   7,C  15,C  20)          117.6732         0.427688   
     78. A(P   7,C  15,C  16)          124.3063         0.428792   
     79. A(C  17,C  16,H  30)          118.5725         0.352652   
     80. A(C  15,C  16,H  30)          120.8123         0.351294   
     81. A(C  15,C  16,C  17)          120.6144         0.429762   
     82. A(C  16,C  17,C  18)          120.7246         0.432941   
     83. A(C  18,C  17,Cl 21)          119.6683         0.422388   
     84. A(C  16,C  17,Cl 21)          119.6071         0.421017   
     85. A(C  17,C  18,C  19)          119.4822         0.434229   
     86. A(C  19,C  18,H  31)          119.9190         0.353679   
     87. A(C  17,C  18,H  31)          120.5986         0.353780   
     88. A(C  18,C  19,C  20)          119.9576         0.432380   
     89. A(C  20,C  19,H  32)          119.9532         0.352203   
     90. A(C  18,C  19,H  32)          120.0890         0.353519   
     91. A(C  15,C  20,C  19)          121.2017         0.428231   
     92. A(C  19,C  20,H  33)          118.3593         0.351745   
     93. A(C  15,C  20,H  33)          120.4389         0.349868   
     94. D(H  23,C   1,C   0,C   5)    178.8573         0.025364   
     95. D(C   2,C   1,C   0,H  22)    179.2992         0.025364   
     96. D(H  23,C   1,C   0,H  22)     -0.7414         0.025364   
     97. D(C   2,C   1,C   0,C   5)     -1.1022         0.025364   
     98. D(C   3,C   2,C   1,C   0)      2.7969         0.023556   
     99. D(C   3,C   2,C   1,H  23)   -177.1616         0.023556   
    100. D(P   7,C   2,C   1,C   0)    178.5769         0.023556   
    101. D(P   7,C   2,C   1,H  23)     -1.3816         0.023556   
    102. D(H  24,C   3,C   2,P   7)      0.9735         0.024316   
    103. D(C   4,C   3,C   2,C   1)     -2.7929         0.024316   
    104. D(C   4,C   3,C   2,P   7)   -178.4513         0.024316   
    105. D(H  24,C   3,C   2,C   1)    176.6319         0.024316   
    106. D(Cl  6,C   4,C   3,C   2)   -179.1430         0.025574   
    107. D(C   5,C   4,C   3,C   2)      1.1232         0.025574   
    108. D(C   5,C   4,C   3,H  24)   -178.3155         0.025574   
    109. D(Cl  6,C   4,C   3,H  24)      1.4183         0.025574   
    110. D(H  25,C   5,C   4,Cl  6)      0.1433         0.026772   
    111. D(C   0,C   5,C   4,Cl  6)   -179.0776         0.026772   
    112. D(H  25,C   5,C   0,H  22)     -0.2934         0.026732   
    113. D(H  25,C   5,C   0,C   1)   -179.8914         0.026732   
    114. D(C   4,C   5,C   0,H  22)    178.9327         0.026732   
    115. D(H  25,C   5,C   4,C   3)    179.8772         0.026772   
    116. D(C   4,C   5,C   0,C   1)     -0.6653         0.026732   
    117. D(C   0,C   5,C   4,C   3)      0.6563         0.026772   
    118. D(C  15,P   7,C   2,C   3)   -132.8859         0.003768   
    119. D(C  15,P   7,C   2,C   1)     51.5427         0.003768   
    120. D(C   8,P   7,C   2,C   3)    -27.2368         0.003768   
    121. D(C   8,P   7,C   2,C   1)    157.1917         0.003768   
    122. D(C  13,C   8,P   7,C   2)    -53.8878         0.003760   
    123. D(C   9,C   8,P   7,C  15)   -124.9105         0.003760   
    124. D(C   9,C   8,P   7,C   2)    126.3870         0.003760   
    125. D(C  13,C   8,P   7,C  15)     54.8147         0.003760   
    126. D(H  26,C   9,C   8,C  13)   -179.9327         0.024125   
    127. D(H  26,C   9,C   8,P   7)     -0.1917         0.024125   
    128. D(C  10,C   9,C   8,C  13)      0.0448         0.024125   
    129. D(C  10,C   9,C   8,P   7)    179.7858         0.024125   
    130. D(Cl 14,C  10,C   9,H  26)     -0.0110         0.025803   
    131. D(Cl 14,C  10,C   9,C   8)   -179.9888         0.025803   
    132. D(C  11,C  10,C   9,H  26)    179.9977         0.025803   
    133. D(C  11,C  10,C   9,C   8)      0.0199         0.025803   
    134. D(H  27,C  11,C  10,Cl 14)     -0.0185         0.026709   
    135. D(H  27,C  11,C  10,C   9)    179.9728         0.026709   
    136. D(C  12,C  11,C  10,Cl 14)    179.9840         0.026709   
    137. D(C  12,C  11,C  10,C   9)     -0.0247         0.026709   
    138. D(H  28,C  12,C  11,H  27)     -0.0515         0.026511   
    139. D(H  28,C  12,C  11,C  10)    179.9461         0.026511   
    140. D(C  13,C  12,C  11,H  27)    179.9664         0.026511   
    141. D(C  13,C  12,C  11,C  10)     -0.0361         0.026511   
    142. D(H  29,C  13,C  12,H  28)     -0.4091         0.025371   
    143. D(C   8,C  13,C  12,H  28)   -179.8790         0.025371   
    144. D(C   8,C  13,C  12,C  11)      0.1031         0.025371   
    145. D(H  29,C  13,C   8,C   9)   -179.5612         0.024246   
    146. D(H  29,C  13,C   8,P   7)      0.7141         0.024246   
    147. D(H  29,C  13,C  12,C  11)    179.5731         0.025371   
    148. D(C  12,C  13,C   8,C   9)     -0.1062         0.024246   
    149. D(C  12,C  13,C   8,P   7)   -179.8309         0.024246   
    150. D(C  20,C  15,P   7,C   8)     97.5107         0.003694   
    151. D(C  20,C  15,P   7,C   2)   -153.6600         0.003694   
    152. D(C  16,C  15,P   7,C   8)    -82.0437         0.003694   
    153. D(C  16,C  15,P   7,C   2)     26.7855         0.003694   
    154. D(H  30,C  16,C  15,P   7)      0.0950         0.024488   
    155. D(C  17,C  16,C  15,C  20)      0.2150         0.024488   
    156. D(C  17,C  16,C  15,P   7)    179.7681         0.024488   
    157. D(H  30,C  16,C  15,C  20)   -179.4580         0.024488   
    158. D(Cl 21,C  17,C  16,H  30)     -0.3149         0.025696   
    159. D(Cl 21,C  17,C  16,C  15)   -179.9952         0.025696   
    160. D(C  18,C  17,C  16,H  30)    179.6163         0.025696   
    161. D(C  18,C  17,C  16,C  15)     -0.0639         0.025696   
    162. D(H  31,C  18,C  17,Cl 21)      0.0022         0.026706   
    163. D(H  31,C  18,C  17,C  16)   -179.9289         0.026706   
    164. D(C  19,C  18,C  17,Cl 21)    179.8455         0.026706   
    165. D(C  19,C  18,C  17,C  16)     -0.0857         0.026706   
    166. D(H  32,C  19,C  18,H  31)      0.0486         0.026611   
    167. D(H  32,C  19,C  18,C  17)   -179.7957         0.026611   
    168. D(C  20,C  19,C  18,H  31)    179.9219         0.026611   
    169. D(C  20,C  19,C  18,C  17)      0.0776         0.026611   
    170. D(H  33,C  20,C  19,H  32)      0.0766         0.025398   
    171. D(H  33,C  20,C  19,C  18)   -179.7969         0.025398   
    172. D(C  15,C  20,C  19,H  32)    179.9533         0.025398   
    173. D(C  15,C  20,C  19,C  18)      0.0798         0.025398   
    174. D(H  33,C  20,C  15,C  16)    179.6502         0.023759   
    175. D(H  33,C  20,C  15,P   7)      0.0671         0.023759   
    176. D(C  19,C  20,C  15,C  16)     -0.2239         0.023759   
    177. D(C  19,C  20,C  15,P   7)   -179.8070         0.023759   
    -----------------------------------------------------------------

Number of atoms                         .... 34
Number of degrees of freedom            .... 177


         *************************************************************
         *                GEOMETRY OPTIMIZATION CYCLE   1            *
         *************************************************************
---------------------------------
CARTESIAN COORDINATES (ANGSTROEM)
---------------------------------
  C     -3.296128   -2.182510   -0.321687
  C     -2.419882   -1.204959   -0.802917
  C     -1.024629   -1.346316   -0.679951
  C     -0.537286   -2.532854   -0.109952
  C     -1.414955   -3.508041    0.370406
  C     -2.791989   -3.334886    0.273322
  Cl    -0.785974   -4.942877    1.084179
  P      0.078191   -0.062011   -1.358299
  C      1.637659   -0.239119   -0.428618
  C      2.826956   -0.394813   -1.159689
  C      4.051699   -0.530441   -0.503617
  C      4.116604   -0.514284    0.886343
  C      2.946837   -0.360681    1.626059
  C      1.718202   -0.223242    0.973017
  Cl     5.494913   -0.719633   -1.422286
  C     -0.551685    1.508963   -0.667627
  C     -1.249316    1.616285    0.544604
  C     -1.692310    2.858985    1.002619
  C     -1.449937    4.015357    0.267389
  C     -0.756454    3.928998   -0.936525
  C     -0.311277    2.686744   -1.398202
  Cl    -2.545958    2.960765    2.494053
  H     -4.370224   -2.044128   -0.418818
  H     -2.846216   -0.323241   -1.280410
  H      0.531490   -2.719665   -0.039849
  H     -3.472789   -4.095413    0.645730
  H      2.805824   -0.410978   -2.247497
  H      5.070082   -0.620329    1.396548
  H      2.987774   -0.347763    2.712645
  H      0.824560   -0.112362    1.582145
  H     -1.452212    0.736794    1.149841
  H     -1.794531    4.981315    0.626236
  H     -0.558741    4.826644   -1.517308
  H      0.231700    2.649698   -2.341885

----------------------------
CARTESIAN COORDINATES (A.U.)
----------------------------
  NO LB      ZA    FRAG     MASS         X           Y           Z
   0 C     6.0000    0    12.011   -6.228779   -4.124346   -0.607900
   1 C     6.0000    0    12.011   -4.572914   -2.277043   -1.517293
   2 C     6.0000    0    12.011   -1.936268   -2.544169   -1.284921
   3 C     6.0000    0    12.011   -1.015323   -4.786400   -0.207779
   4 C     6.0000    0    12.011   -2.673877   -6.629237    0.699966
   5 C     6.0000    0    12.011   -5.276095   -6.302021    0.516504
   6 Cl   17.0000    0    35.453   -1.485276   -9.340684    2.048801
   7 P    15.0000    0    30.974    0.147760   -0.117184   -2.566813
   8 C     6.0000    0    12.011    3.094727   -0.451869   -0.809971
   9 C     6.0000    0    12.011    5.342173   -0.746088   -2.191495
  10 C     6.0000    0    12.011    7.656601   -1.002388   -0.951698
  11 C     6.0000    0    12.011    7.779254   -0.971856    1.674946
  12 C     6.0000    0    12.011    5.568715   -0.681588    3.072806
  13 C     6.0000    0    12.011    3.246931   -0.421866    1.838736
  14 Cl   17.0000    0    35.453   10.383881   -1.359909   -2.687731
  15 C     6.0000    0    12.011   -1.042534    2.851527   -1.261632
  16 C     6.0000    0    12.011   -2.360865    3.054336    1.029152
  17 C     6.0000    0    12.011   -3.198002    5.402699    1.894675
  18 C     6.0000    0    12.011   -2.739984    7.587925    0.505292
  19 C     6.0000    0    12.011   -1.429491    7.424730   -1.769776
  20 C     6.0000    0    12.011   -0.588228    5.077210   -2.642219
  21 Cl   17.0000    0    35.453   -4.811163    5.595035    4.713077
  22 H     1.0000    0     1.008   -8.258527   -3.862842   -0.791451
  23 H     1.0000    0     1.008   -5.378569   -0.610837   -2.419624
  24 H     1.0000    0     1.008    1.004371   -5.139422   -0.075304
  25 H     1.0000    0     1.008   -6.562620   -7.739209    1.220253
  26 H     1.0000    0     1.008    5.302239   -0.776636   -4.247154
  27 H     1.0000    0     1.008    9.581066   -1.172252    2.639093
  28 H     1.0000    0     1.008    5.646075   -0.657177    5.126156
  29 H     1.0000    0     1.008    1.558193   -0.212333    2.989821
  30 H     1.0000    0     1.008   -2.744283    1.392339    2.172885
  31 H     1.0000    0     1.008   -3.391172    9.413321    1.183415
  32 H     1.0000    0     1.008   -1.055867    9.121035   -2.867297
  33 H     1.0000    0     1.008    0.437850    5.007204   -4.425521

--------------------------------
INTERNAL COORDINATES (ANGSTROEM)
--------------------------------
 C      0   0   0     0.000000000000     0.00000000     0.00000000
 C      1   0   0     1.398211472924     0.00000000     0.00000000
 C      2   1   0     1.407776037804   121.38933510     0.00000000
 C      3   2   1     1.403664662622   117.67490815     2.79691538
 C      4   3   2     1.397152950358   120.76563219   357.20705481
 C      5   4   3     1.391269418279   120.72348111     1.12323296
 Cl     5   4   3     1.721581639303   119.65420711   180.85700827
 P      3   2   1     1.823679603036   119.74488329   178.57691255
 C      8   3   2     1.824175004885   105.01227601   157.19172632
 C      9   8   3     1.404682449127   117.99024541   126.38701006
 C     10   9   8     1.396001733386   120.59542407   179.78579802
 C     11  10   9     1.391568363133   120.61145823     0.00000000
 C     12  11  10     1.392525933889   119.51759069   359.97528918
 C     13  12  11     1.398176417949   120.05994719   359.96389698
 Cl    11  10   9     1.721224271913   119.70024684   180.01124319
 C      8   3   2     1.828040178890   104.85083191    51.54269315
 C     16   8   3     1.402751232830   124.30631211    26.78551837
 C     17  16   8     1.396540265893   120.61440723   179.76806543
 C     18  17  16     1.391583280445   120.72459279   359.93605267
 C     19  18  17     1.392043629907   119.48220986   359.91428994
 C     20  19  18     1.398042636751   119.95764156     0.07760921
 Cl    18  17  16     1.721467238335   119.60705227   180.00484427
 H      1   2   3     1.087320663972   119.95659652   179.29919285
 H      2   1   3     1.089581055328   118.12408330   179.95944686
 H      4   3   2     1.087241885923   120.84533982   176.63191119
 H      6   5   4     1.086543913605   120.60596647   179.87717567
 H     10   9   8     1.088133316057   120.36463235   359.80831012
 H     12  11  10     1.086588689677   120.58390013   179.97280090
 H     13  12  11     1.087433606290   120.03158411   179.94606602
 H     14  13  12     1.087164807629   118.07659272   179.57306694
 H     17  16   8     1.086730432106   120.81226762     0.09501659
 H     19  18  17     1.086550068800   120.59859664   180.07105078
 H     20  19  18     1.087275339909   120.08904714   180.20428636
 H     21  20  19     1.089373229492   118.35925574   180.20310666

---------------------------
INTERNAL COORDINATES (A.U.)
---------------------------
 C      0   0   0     0.000000000000     0.00000000     0.00000000
 C      1   0   0     2.642236761133     0.00000000     0.00000000
 C      2   1   0     2.660311169346   121.38933510     0.00000000
 C      3   2   1     2.652541796219   117.67490815     2.79691538
 C      4   3   2     2.640236443377   120.76563219   357.20705481
 C      5   4   3     2.629118179046   120.72348111     1.12323296
 Cl     5   4   3     3.253317815470   119.65420711   180.85700827
 P      3   2   1     3.446255005756   119.74488329   178.57691255
 C      8   3   2     3.447191179578   105.01227601   157.19172632
 C      9   8   3     2.654465133976   117.99024541   126.38701006
 C     10   9   8     2.638060958579   120.59542407   179.78579802
 C     11  10   9     2.629683102951   120.61145823     0.00000000
 C     12  11  10     2.631492649434   119.51759069   359.97528918
 C     13  12  11     2.642170516832   120.05994719   359.96389698
 Cl    11  10   9     3.252642488973   119.70024684   180.01124319
 C      8   3   2     3.454495299906   104.85083191    51.54269315
 C     16   8   3     2.650815664069   124.30631211    26.78551837
 C     17  16   8     2.639078637532   120.61440723   179.76806543
 C     18  17  16     2.629711292584   120.72459279   359.93605267
 C     19  18  17     2.630581226995   119.48220986   359.91428994
 C     20  19  18     2.641917707005   119.95764156     0.07760921
 Cl    18  17  16     3.253101628970   119.60705227   180.00484427
 H      1   2   3     2.054738274661   119.95659652   179.29919285
 H      2   1   3     2.059009795278   118.12408330   179.95944686
 H      4   3   2     2.054589405723   120.84533982   176.63191119
 H      6   5   4     2.053270429193   120.60596647   179.87717567
 H     10   9   8     2.056273964543   120.36463235   359.80831012
 H     12  11  10     2.053355043706   120.58390013   179.97280090
 H     13  12  11     2.054951704711   120.03158411   179.94606602
 H     14  13  12     2.054443748857   118.07659272   179.57306694
 H     17  16   8     2.053622898079   120.81226762     0.09501659
 H     19  18  17     2.053282060825   120.59859664   180.07105078
 H     20  19  18     2.054652624594   120.08904714   180.20428636
 H     21  20  19     2.058617061365   118.35925574   180.20310666

---------------------
BASIS SET INFORMATION
---------------------
There are 4 groups of distinct atoms

 Group   1 Type C   : 7s4p1d contracted to 3s2p1d pattern {511/31/1}
 Group   2 Type Cl  : 10s7p1d contracted to 4s3p1d pattern {5311/511/1}
 Group   3 Type P   : 10s7p1d contracted to 4s3p1d pattern {5311/511/1}
 Group   4 Type H   : 4s1p contracted to 2s1p pattern {31/1}

Atom   0C    basis set group =>   1
Atom   1C    basis set group =>   1
Atom   2C    basis set group =>   1
Atom   3C    basis set group =>   1
Atom   4C    basis set group =>   1
Atom   5C    basis set group =>   1
Atom   6Cl   basis set group =>   2
Atom   7P    basis set group =>   3
Atom   8C    basis set group =>   1
Atom   9C    basis set group =>   1
Atom  10C    basis set group =>   1
Atom  11C    basis set group =>   1
Atom  12C    basis set group =>   1
Atom  13C    basis set group =>   1
Atom  14Cl   basis set group =>   2
Atom  15C    basis set group =>   1
Atom  16C    basis set group =>   1
Atom  17C    basis set group =>   1
Atom  18C    basis set group =>   1
Atom  19C    basis set group =>   1
Atom  20C    basis set group =>   1
Atom  21Cl   basis set group =>   2
Atom  22H    basis set group =>   4
Atom  23H    basis set group =>   4
Atom  24H    basis set group =>   4
Atom  25H    basis set group =>   4
Atom  26H    basis set group =>   4
Atom  27H    basis set group =>   4
Atom  28H    basis set group =>   4
Atom  29H    basis set group =>   4
Atom  30H    basis set group =>   4
Atom  31H    basis set group =>   4
Atom  32H    basis set group =>   4
Atom  33H    basis set group =>   4
---------------------------------
AUXILIARY/J BASIS SET INFORMATION
---------------------------------
There are 4 groups of distinct atoms

 Group   1 Type C   : 12s5p4d2f1g contracted to 6s4p3d1f1g pattern {711111/2111/211/2/1}
 Group   2 Type Cl  : 14s5p5d2f1g contracted to 8s4p3d1f1g pattern {71111111/2111/311/2/1}
 Group   3 Type P   : 14s5p5d2f1g contracted to 8s4p3d1f1g pattern {71111111/2111/311/2/1}
 Group   4 Type H   : 5s2p1d contracted to 3s1p1d pattern {311/2/1}

Atom   0C    basis set group =>   1
Atom   1C    basis set group =>   1
Atom   2C    basis set group =>   1
Atom   3C    basis set group =>   1
Atom   4C    basis set group =>   1
Atom   5C    basis set group =>   1
Atom   6Cl   basis set group =>   2
Atom   7P    basis set group =>   3
Atom   8C    basis set group =>   1
Atom   9C    basis set group =>   1
Atom  10C    basis set group =>   1
Atom  11C    basis set group =>   1
Atom  12C    basis set group =>   1
Atom  13C    basis set group =>   1
Atom  14Cl   basis set group =>   2
Atom  15C    basis set group =>   1
Atom  16C    basis set group =>   1
Atom  17C    basis set group =>   1
Atom  18C    basis set group =>   1
Atom  19C    basis set group =>   1
Atom  20C    basis set group =>   1
Atom  21Cl   basis set group =>   2
Atom  22H    basis set group =>   4
Atom  23H    basis set group =>   4
Atom  24H    basis set group =>   4
Atom  25H    basis set group =>   4
Atom  26H    basis set group =>   4
Atom  27H    basis set group =>   4
Atom  28H    basis set group =>   4
Atom  29H    basis set group =>   4
Atom  30H    basis set group =>   4
Atom  31H    basis set group =>   4
Atom  32H    basis set group =>   4
Atom  33H    basis set group =>   4


           ************************************************************
           *        Program running with 6 parallel MPI-processes     *
           *              working on a common directory               *
           ************************************************************
------------------------------------------------------------------------------
                             ORCA STARTUP CALCULATIONS
                           -- RI-GTO INTEGRALS CHOSEN --
------------------------------------------------------------------------------
------------------------------------------------------------------------------
                   ___                                                        
                  /   \      - P O W E R E D   B Y -                         
                 /     \                                                     
                 |  |  |   _    _      __       _____    __    __             
                 |  |  |  | |  | |    /  \     |  _  \  |  |  /  |          
                  \  \/   | |  | |   /    \    | | | |  |  | /  /          
                 / \  \   | |__| |  /  /\  \   | |_| |  |  |/  /          
                |  |  |   |  __  | /  /__\  \  |    /   |      \           
                |  |  |   | |  | | |   __   |  |    \   |  |\   \          
                \     /   | |  | | |  |  |  |  | |\  \  |  | \   \       
                 \___/    |_|  |_| |__|  |__|  |_| \__\ |__|  \__/        
                                                                              
                      - O R C A' S   B I G   F R I E N D -                    
                                      &                                       
                       - I N T E G R A L  F E E D E R -                       
                                                                              
 v1 FN, 2020, v2 2021, v3 2022-2024                                           
------------------------------------------------------------------------------


----------------------
SHARK INTEGRAL PACKAGE
----------------------

Number of atoms                             ...     34
Number of basis functions                   ...    384
Number of shells                            ...    176
Maximum angular momentum                    ...      2
Integral batch strategy                     ... SHARK/LIBINT Hybrid
RI-J (if used) integral strategy            ... SPLIT-RIJ (Revised 2003 algorithm where possible)
Printlevel                                  ...      1
Contraction scheme used                     ... SEGMENTED contraction
Prescreening option                         ... SCHWARTZ
   Thresh                                   ... 2.500e-11
   Tcut                                     ... 2.500e-12
   Tpresel                                  ... 2.500e-12 
Coulomb Range Separation                    ... NOT USED
Exchange Range Separation                   ... NOT USED
Multipole approximations                    ... NOT USED
Finite Nucleus Model                        ... NOT USED
CABS basis                                  ... NOT available
Auxiliary Coulomb fitting basis             ... AVAILABLE
   # of basis functions in Aux-J            ...   1218
   # of shells in Aux-J                     ...    398
   Maximum angular momentum in Aux-J        ...      4
Auxiliary J/K fitting basis                 ... NOT available
Auxiliary Correlation fitting basis         ... NOT available
Auxiliary 'external' fitting basis          ... NOT available

Checking pre-screening integrals            ... done (  0.0 sec) Dimension = 176
Check shell pair data                       ... done (  0.0 sec)
Shell pair information
Shell pair cut-off parameter TPreSel        ...   2.5e-12
Total number of shell pairs                 ...     15576
Shell pairs after pre-screening             ...     11360
Total number of primitive shell pairs       ...     61088
Primitive shell pairs kept                  ...     27410
          la=0 lb=0:   3303 shell pairs
          la=1 lb=0:   4230 shell pairs
          la=1 lb=1:   1402 shell pairs
          la=2 lb=0:   1394 shell pairs
          la=2 lb=1:    889 shell pairs
          la=2 lb=2:    142 shell pairs

Calculating one electron integrals          ... done (  0.0 sec)
Calculating RI/J V-Matrix + Cholesky decomp.... done (  0.1 sec)
Calculating Nuclear repulsion               ... done (  0.0 sec) ENN=   2154.088841878929 Eh

Diagonalization of the overlap matrix:
Smallest eigenvalue                        ... 2.514e-04
Time for diagonalization                   ...    0.019 sec
Threshold for overlap eigenvalues          ... 1.000e-07
Number of eigenvalues below threshold      ... 0
Time for construction of square roots      ...    0.011 sec
Total time needed                          ...    0.031 sec

-------------------
DFT GRID GENERATION
-------------------

General Integration Accuracy     IntAcc      ... 4.388
Radial Grid Type                 RadialGrid  ... OptM3 with GC (2021)
Angular Grid (max. ang.)         AngularGrid ... 4 (Lebedev-302)
Angular grid pruning method      GridPruning ... 4 (adaptive)
Weight generation scheme         WeightScheme... mBecke (2022)
Basis function cutoff            BFCut       ... 1.0000e-11
Integration weight cutoff        WCut        ... 1.0000e-14
Partially contracted basis set               ... off
Rotationally invariant grid construction     ... off
Angular grids for H and He will be reduced by one unit

Total number of grid points                  ...   174666
Total number of batches                      ...     2747
Average number of points per batch           ...       63
Average number of grid points per atom       ...     5137
Initializing property integral containers    ... done (  0.0 sec)

SHARK setup successfully completed in   1.3 seconds

Maximum memory used throughout the entire STARTUP-calculation: 48.2 MB


           ************************************************************
           *        Program running with 6 parallel MPI-processes     *
           *              working on a common directory               *
           ************************************************************
-------------------------------------------------------------------------------
                                 ORCA GUESS
                   Start orbitals & Density for SCF / CASSCF
-------------------------------------------------------------------------------

------------
SCF SETTINGS
------------
Hamiltonian:
 Density Functional     Method          .... DFT(GTOs)
 Exchange Functional    Exchange        .... B88
   X-Alpha parameter    XAlpha          ....  0.666667
   Becke's b parameter  XBeta           ....  0.004200
 Correlation Functional Correlation     .... P86
 LDA part of GGA corr.  LDAOpt          .... PW91-LDA
 Gradients option       PostSCFGGA      .... off
   NL short-range parameter             ....  4.400000
 RI-approximation to the Coulomb term is turned on
   Number of AuxJ basis functions       .... 1218


General Settings:
 Integral files         IntName         .... data/geom_opt_P_BP86/121600/121600
 Hartree-Fock type      HFTyp           .... RHF
 Total Charge           Charge          ....    0
 Multiplicity           Mult            ....    1
 Number of Electrons    NEL             ....  186
 Basis Dimension        Dim             ....  384
 Nuclear Repulsion      ENuc            ....   2154.0888418789 Eh

Convergence Acceleration:
 AO-DIIS                CNVDIIS         .... on
   Start iteration      DIISMaxIt       ....    12
   Startup error        DIISStart       ....  0.200000
   # of expansion vecs  DIISMaxEq       ....     5
   Bias factor          DIISBfac        ....   1.050
   Max. coefficient     DIISMaxC        ....  10.000
 MO-DIIS                CNVKDIIS        .... off
 Trust-Rad. Augm. Hess. CNVTRAH         .... auto
   Auto Start mean grad. ratio tolernc. ....  1.125000
   Auto Start start iteration           ....    50
   Auto Start num. interpolation iter.  ....    10
   Max. Number of Micro iterations      ....    24
   Max. Number of Macro iterations      .... Maxiter - #DIIS iter
   Number of Davidson start vectors     ....     2
   Converg. threshold    (grad. norm)   ....   1.000e-05
   Grad. Scal. Fac. for Micro threshold ....   0.100
   Minimum threshold for Micro iter.    ....   1.000e-02
   NR start threshold (gradient norm)   ....   1.000e-04
   Initial trust radius                 ....   0.400
   Minimum AH scaling param. (alpha)    ....   1.000
   Maximum AH scaling param. (alpha)    .... 1000.000
   Quad. conv. algorithm                .... NR
   White noise on init. David. guess    .... on
   Maximum white noise                  ....   0.010
   Pseudo random numbers                .... off
   Inactive MOs                         .... canonical
   Orbital update algorithm             .... Taylor
   Preconditioner                       .... Diag
   Full preconditioner red. dimension   ....   250
 SOSCF                  CNVSOSCF        .... on
   Start iteration      SOSCFMaxIt      ....   150
   Startup grad/error   SOSCFStart      ....  0.003300
   Hessian update       SOSCFHessUp     .... L-BFGS
 Level Shifting         CNVShift        .... on
   Level shift para.    LevelShift      ....    0.2500
   Turn off err/grad.   ShiftErr        ....    0.0010
 Zerner damping         CNVZerner       .... off
 Static damping         CNVDamp         .... on
   Fraction old density DampFac         ....    0.7000
   Max. Damping (<1)    DampMax         ....    0.9800
   Min. Damping (>=0)   DampMin         ....    0.0000
   Turn off err/grad.   DampErr         ....    0.1000

SCF Procedure:
 Maximum # iterations   MaxIter         ....   125
 SCF integral mode      SCFMode         .... Direct
   Integral package                     .... SHARK and LIBINT hybrid scheme
 Reset frequency        DirectResetFreq ....    20
 Integral Threshold     Thresh          ....  2.500e-11 Eh
 Primitive CutOff       TCut            ....  2.500e-12 Eh

Convergence Tolerance:
 Convergence Check Mode ConvCheckMode   .... Total+1el-Energy
 Convergence forced     ConvForced      .... 0
 Energy Change          TolE            ....  1.000e-08 Eh
 1-El. energy change                    ....  1.000e-05 Eh
 Orbital Gradient       TolG            ....  1.000e-05
 Orbital Rotation angle TolX            ....  1.000e-05
 DIIS Error             TolErr          ....  5.000e-07

------------------------------
INITIAL GUESS: MODEL POTENTIAL
------------------------------
Loading Hartree-Fock densities                     ... done
Calculating cut-offs                               ... done
Initializing the effective Hamiltonian             ... done
Setting up the integral package (SHARK)            ... done
Starting the Coulomb interaction                   ... done (   0.1 sec)
Making the grid                                    ... done (   0.3 sec)
Mapping shells                                     ... done
Starting the XC term evaluation                    ... done (   0.2 sec)
  promolecular density results
     # of electrons  =    185.991939697
     EX              =   -201.358567995
     EC              =     -7.317691618
     EX+EC           =   -208.676259613
Transforming the Hamiltonian                       ... done (   0.0 sec)
Diagonalizing the Hamiltonian                      ... done (   0.0 sec)
Back transforming the eigenvectors                 ... done (   0.0 sec)
Now organizing SCF variables                       ... done
                      ------------------
                      INITIAL GUESS DONE (   0.6 sec)
                      ------------------
             **** ENERGY FILE WAS UPDATED (data/geom_opt_P_BP86/121600/121600.en.tmp) ****
Finished Guess after   0.7 sec
Maximum memory used throughout the entire GUESS-calculation: 26.9 MB


           ************************************************************
           *        Program running with 6 parallel MPI-processes     *
           *              working on a common directory               *
           ************************************************************

-------------------------------------------------------------------------------------------
                                      ORCA LEAN-SCF
                              memory conserving SCF solver
-------------------------------------------------------------------------------------------

----------------------------------------D-I-I-S--------------------------------------------
Iteration    Energy (Eh)           Delta-E    RMSDP     MaxDP     DIISErr   Damp  Time(sec)
-------------------------------------------------------------------------------------------
               ***  Starting incremental Fock matrix formation  ***
    1    -2413.9140425518985467     0.00e+00  1.95e-03  5.50e-02  1.16e-01  0.700   1.0
    2    -2414.0684763006479443    -1.54e-01  1.34e-03  3.30e-02  5.13e-02  0.700   0.9
                               ***Turning on AO-DIIS***
    3    -2414.1220829603576021    -5.36e-02  5.74e-04  3.14e-02  1.76e-02  0.700   0.9
    4    -2414.1535573151727476    -3.15e-02  1.13e-03  6.94e-02  1.00e-02  0.000   0.9
    5    -2414.2253441110328822    -7.18e-02  2.33e-04  9.84e-03  5.03e-03  0.000   0.9
                              *** Initializing SOSCF ***
---------------------------------------S-O-S-C-F--------------------------------------
Iteration    Energy (Eh)           Delta-E    RMSDP     MaxDP     MaxGrad    Time(sec)
--------------------------------------------------------------------------------------
    6    -2414.2260838847619198    -7.40e-04  7.74e-05  3.53e-03  9.14e-04     0.9
               *** Restarting incremental Fock matrix formation ***
    7    -2414.2261366167272172    -5.27e-05  6.71e-05  2.66e-03  2.66e-04     1.0
    8    -2414.2261357737411345     8.43e-07  3.36e-05  9.56e-04  5.69e-04     0.8
    9    -2414.2261444665168710    -8.69e-06  3.21e-05  1.31e-03  2.70e-04     0.8
   10    -2414.2261448863187070    -4.20e-07  1.56e-05  6.23e-04  2.88e-04     0.8
   11    -2414.2261471224178422    -2.24e-06  1.61e-05  5.93e-04  9.09e-05     0.8
   12    -2414.2261472745790343    -1.52e-07  7.64e-06  2.78e-04  7.44e-05     0.8
   13    -2414.2261476574508379    -3.83e-07  8.50e-06  4.14e-04  4.61e-05     0.8
   14    -2414.2261477572333206    -9.98e-08  4.56e-06  2.66e-04  3.49e-05     0.8
   15    -2414.2261479066223728    -1.49e-07  3.16e-06  1.23e-04  1.51e-05     0.7
   16    -2414.2261478848063234     2.18e-08  2.04e-06  8.56e-05  1.68e-05     0.8
   17    -2414.2261479160883937    -3.13e-08  1.45e-06  5.37e-05  6.12e-06     0.7
   18    -2414.2261479392013825    -2.31e-08  8.67e-07  3.82e-05  7.71e-06     0.8
   19    -2414.2261479361009151     3.10e-09  3.52e-07  1.05e-05  1.24e-06     0.7
                 **** Energy Check signals convergence ****

               *****************************************************
               *                     SUCCESS                       *
               *           SCF CONVERGED AFTER  19 CYCLES          *
               *****************************************************

             **** ENERGY FILE WAS UPDATED (data/geom_opt_P_BP86/121600/121600.en.tmp) ****

----------------
TOTAL SCF ENERGY
----------------

Total Energy       :      -2414.22614793610092 Eh          -65694.43333 eV

Components:
Nuclear Repulsion  :       2154.08884187892863 Eh           58615.73735 eV
Electronic Energy  :      -4568.31498981502955 Eh         -124310.17068 eV
One Electron Energy:      -7600.13095258746216 Eh         -206810.07724 eV
Two Electron Energy:       3031.81596277243261 Eh           82499.90656 eV

Virial components:
Potential Energy   :      -4816.42172342251251 Eh         -131061.49813 eV
Kinetic Energy     :       2402.19557548641205 Eh           65367.06481 eV
Virial Ratio       :          2.00500815694295

DFT components:
N(Alpha)           :       92.999921972287 electrons
N(Beta)            :       92.999921972287 electrons
N(Total)           :      185.999843944574 electrons
E(X)               :     -202.911315529744 Eh       
E(C)               :       -7.318724344153 Eh       
E(XC)              :     -210.230039873897 Eh       

---------------
SCF CONVERGENCE
---------------

  Last Energy change         ...   -3.1005e-09  Tolerance :   1.0000e-08
  Last MAX-Density change    ...    1.0524e-05  Tolerance :   1.0000e-07
  Last RMS-Density change    ...    3.5247e-07  Tolerance :   5.0000e-09
  Last DIIS Error            ...    9.1372e-04  Tolerance :   5.0000e-07
  Last Orbital Gradient      ...    1.2367e-06  Tolerance :   1.0000e-05
  Last Orbital Rotation      ...    6.4079e-06  Tolerance :   1.0000e-05


----------------
ORBITAL ENERGIES
----------------

  NO   OCC          E(Eh)            E(eV) 
   0   2.0000    -100.707365     -2740.3867 
   1   2.0000    -100.707361     -2740.3866 
   2   2.0000    -100.703930     -2740.2933 
   3   2.0000     -76.356693     -2077.7713 
   4   2.0000      -9.978698      -271.5342 
   5   2.0000      -9.978295      -271.5232 
   6   2.0000      -9.974602      -271.4227 
   7   2.0000      -9.940302      -270.4894 
   8   2.0000      -9.940209      -270.4868 
   9   2.0000      -9.939550      -270.4689 
  10   2.0000      -9.937781      -270.4208 
  11   2.0000      -9.936509      -270.3862 
  12   2.0000      -9.936346      -270.3817 
  13   2.0000      -9.935179      -270.3500 
  14   2.0000      -9.935001      -270.3451 
  15   2.0000      -9.934307      -270.3262 
  16   2.0000      -9.933741      -270.3108 
  17   2.0000      -9.932594      -270.2796 
  18   2.0000      -9.932489      -270.2768 
  19   2.0000      -9.931174      -270.2410 
  20   2.0000      -9.929799      -270.2036 
  21   2.0000      -9.929164      -270.1863 
  22   2.0000      -9.193082      -250.1565 
  23   2.0000      -9.193078      -250.1564 
  24   2.0000      -9.189642      -250.0629 
  25   2.0000      -7.023865      -191.1291 
  26   2.0000      -7.023831      -191.1282 
  27   2.0000      -7.020404      -191.0349 
  28   2.0000      -7.012816      -190.8284 
  29   2.0000      -7.012803      -190.8281 
  30   2.0000      -7.012176      -190.8110 
  31   2.0000      -7.012140      -190.8100 
  32   2.0000      -7.009370      -190.7347 
  33   2.0000      -7.008733      -190.7173 
  34   2.0000      -6.326108      -172.1421 
  35   2.0000      -4.547532      -123.7446 
  36   2.0000      -4.547407      -123.7412 
  37   2.0000      -4.543751      -123.6417 
  38   2.0000      -0.825599       -22.4657 
  39   2.0000      -0.824415       -22.4335 
  40   2.0000      -0.820793       -22.3349 
  41   2.0000      -0.776942       -21.1417 
  42   2.0000      -0.769071       -20.9275 
  43   2.0000      -0.766639       -20.8613 
  44   2.0000      -0.712936       -19.4000 
  45   2.0000      -0.691344       -18.8124 
  46   2.0000      -0.687945       -18.7199 
  47   2.0000      -0.670064       -18.2334 
  48   2.0000      -0.668423       -18.1887 
  49   2.0000      -0.665307       -18.1039 
  50   2.0000      -0.608536       -16.5591 
  51   2.0000      -0.564242       -15.3538 
  52   2.0000      -0.563805       -15.3419 
  53   2.0000      -0.553836       -15.0707 
  54   2.0000      -0.546747       -14.8777 
  55   2.0000      -0.544826       -14.8255 
  56   2.0000      -0.511570       -13.9205 
  57   2.0000      -0.479648       -13.0519 
  58   2.0000      -0.478731       -13.0269 
  59   2.0000      -0.461258       -12.5515 
  60   2.0000      -0.439458       -11.9583 
  61   2.0000      -0.435805       -11.8589 
  62   2.0000      -0.432534       -11.7698 
  63   2.0000      -0.420221       -11.4348 
  64   2.0000      -0.418843       -11.3973 
  65   2.0000      -0.413650       -11.2560 
  66   2.0000      -0.398084       -10.8324 
  67   2.0000      -0.395416       -10.7598 
  68   2.0000      -0.393652       -10.7118 
  69   2.0000      -0.389195       -10.5905 
  70   2.0000      -0.380222       -10.3464 
  71   2.0000      -0.369622       -10.0579 
  72   2.0000      -0.366589        -9.9754 
  73   2.0000      -0.363555        -9.8928 
  74   2.0000      -0.346370        -9.4252 
  75   2.0000      -0.333529        -9.0758 
  76   2.0000      -0.330060        -8.9814 
  77   2.0000      -0.328817        -8.9476 
  78   2.0000      -0.319476        -8.6934 
  79   2.0000      -0.314937        -8.5699 
  80   2.0000      -0.308548        -8.3960 
  81   2.0000      -0.304009        -8.2725 
  82   2.0000      -0.301184        -8.1956 
  83   2.0000      -0.278650        -7.5825 
  84   2.0000      -0.276675        -7.5287 
  85   2.0000      -0.274487        -7.4692 
  86   2.0000      -0.260443        -7.0870 
  87   2.0000      -0.257545        -7.0082 
  88   2.0000      -0.248232        -6.7547 
  89   2.0000      -0.231327        -6.2947 
  90   2.0000      -0.227636        -6.1943 
  91   2.0000      -0.225653        -6.1403 
  92   2.0000      -0.201457        -5.4819 
  93   0.0000      -0.080663        -2.1949 
  94   0.0000      -0.067237        -1.8296 
  95   0.0000      -0.061252        -1.6667 
  96   0.0000      -0.060225        -1.6388 
  97   0.0000      -0.057625        -1.5680 
  98   0.0000      -0.047163        -1.2834 
  99   0.0000       0.002655         0.0723 
 100   0.0000       0.004140         0.1127 
 101   0.0000       0.006880         0.1872 
 102   0.0000       0.034853         0.9484 
 103   0.0000       0.044151         1.2014 
*Only the first 10 virtual orbitals were printed.

                    ********************************
                    * MULLIKEN POPULATION ANALYSIS *
                    ********************************

-----------------------
MULLIKEN ATOMIC CHARGES
-----------------------
   0 C :   -0.000465
   1 C :   -0.003282
   2 C :   -0.119939
   3 C :    0.015451
   4 C :    0.036226
   5 C :    0.019584
   6 Cl:   -0.076850
   7 P :    0.298017
   8 C :   -0.133461
   9 C :    0.036338
  10 C :    0.036418
  11 C :    0.029928
  12 C :    0.002488
  13 C :    0.026680
  14 Cl:   -0.073725
  15 C :   -0.125394
  16 C :    0.019578
  17 C :    0.039904
  18 C :    0.023214
  19 C :   -0.001137
  20 C :    0.027575
  21 Cl:   -0.076103
  22 H :    0.005135
  23 H :    0.001841
  24 H :   -0.001964
  25 H :   -0.005954
  26 H :   -0.008312
  27 H :   -0.001246
  28 H :    0.006069
  29 H :   -0.004846
  30 H :    0.006136
  31 H :   -0.003438
  32 H :    0.006713
  33 H :   -0.001178
Sum of atomic charges:   -0.0000000

--------------------------------
MULLIKEN REDUCED ORBITAL CHARGES
--------------------------------
  0 C s       :     3.174900  s :     3.174900
      pz      :     0.976647  p :     2.792272
      px      :     0.851346
      py      :     0.964279
      dz2     :     0.004583  d :     0.033294
      dxz     :     0.003843
      dyz     :     0.005765
      dx2y2   :     0.010813
      dxy     :     0.008290

  1 C s       :     3.218559  s :     3.218559
      pz      :     0.958839  p :     2.752428
      px      :     0.924252
      py      :     0.869337
      dz2     :     0.002883  d :     0.032295
      dxz     :     0.006480
      dyz     :     0.003669
      dx2y2   :     0.009406
      dxy     :     0.009858

  2 C s       :     3.056900  s :     3.056900
      pz      :     0.996627  p :     3.028012
      px      :     1.015414
      py      :     1.015971
      dz2     :     0.004280  d :     0.035026
      dxz     :     0.006829
      dyz     :     0.005055
      dx2y2   :     0.008657
      dxy     :     0.010205

  3 C s       :     3.292919  s :     3.292919
      pz      :     0.971872  p :     2.659878
      px      :     0.806997
      py      :     0.881009
      dz2     :     0.004178  d :     0.031752
      dxz     :     0.003787
      dyz     :     0.005424
      dx2y2   :     0.009513
      dxy     :     0.008850

  4 C s       :     2.970605  s :     2.970605
      pz      :     1.012484  p :     2.941304
      px      :     1.033851
      py      :     0.894969
      dz2     :     0.005600  d :     0.051866
      dxz     :     0.009081
      dyz     :     0.007986
      dx2y2   :     0.014538
      dxy     :     0.014661

  5 C s       :     3.230963  s :     3.230963
      pz      :     0.960766  p :     2.717260
      px      :     0.906896
      py      :     0.849598
      dz2     :     0.003435  d :     0.032193
      dxz     :     0.006085
      dyz     :     0.004021
      dx2y2   :     0.008939
      dxy     :     0.009712

  6 Cls       :     5.939981  s :     5.939981
      pz      :     3.793333  p :    11.098751
      px      :     3.855896
      py      :     3.449522
      dz2     :     0.005654  d :     0.038118
      dxz     :     0.003335
      dyz     :     0.011172
      dx2y2   :     0.008986
      dxy     :     0.008970

  7 P s       :     5.676524  s :     5.676524
      pz      :     3.338855  p :     8.850792
      px      :     2.755878
      py      :     2.756059
      dz2     :     0.014683  d :     0.174667
      dxz     :     0.038368
      dyz     :     0.032985
      dx2y2   :     0.037912
      dxy     :     0.050719

  8 C s       :     3.069494  s :     3.069494
      pz      :     1.004091  p :     3.028619
      px      :     1.006136
      py      :     1.018392
      dz2     :     0.009330  d :     0.035349
      dxz     :     0.012032
      dyz     :     0.005692
      dx2y2   :     0.004433
      dxy     :     0.003862

  9 C s       :     3.296118  s :     3.296118
      pz      :     0.793360  p :     2.635616
      px      :     0.871809
      py      :     0.970447
      dz2     :     0.008587  d :     0.031928
      dxz     :     0.009397
      dyz     :     0.002292
      dx2y2   :     0.005325
      dxy     :     0.006326

 10 C s       :     2.971240  s :     2.971240
      pz      :     0.997281  p :     2.940752
      px      :     0.893338
      py      :     1.050133
      dz2     :     0.011931  d :     0.051589
      dxz     :     0.017596
      dyz     :     0.007229
      dx2y2   :     0.007345
      dxy     :     0.007489

 11 C s       :     3.231556  s :     3.231556
      pz      :     0.919131  p :     2.706263
      px      :     0.810402
      py      :     0.976730
      dz2     :     0.009308  d :     0.032253
      dxz     :     0.010036
      dyz     :     0.005549
      dx2y2   :     0.004145
      dxy     :     0.003215

 12 C s       :     3.177134  s :     3.177134
      pz      :     0.847211  p :     2.787355
      px      :     0.961035
      py      :     0.979109
      dz2     :     0.009375  d :     0.033023
      dxz     :     0.009682
      dyz     :     0.002332
      dx2y2   :     0.005367
      dxy     :     0.006268

 13 C s       :     3.216111  s :     3.216111
      pz      :     0.923498  p :     2.724552
      px      :     0.836929
      py      :     0.964125
      dz2     :     0.008271  d :     0.032657
      dxz     :     0.012154
      dyz     :     0.004958
      dx2y2   :     0.003891
      dxy     :     0.003383

 14 Cls       :     5.940327  s :     5.940327
      pz      :     3.748443  p :    11.095231
      px      :     3.449855
      py      :     3.896933
      dz2     :     0.004204  d :     0.038167
      dxz     :     0.013985
      dyz     :     0.003220
      dx2y2   :     0.009149
      dxy     :     0.007608

 15 C s       :     3.070171  s :     3.070171
      pz      :     1.000035  p :     3.019926
      px      :     1.012669
      py      :     1.007222
      dz2     :     0.008587  d :     0.035298
      dxz     :     0.005384
      dyz     :     0.010230
      dx2y2   :     0.005675
      dxy     :     0.005421

 16 C s       :     3.286747  s :     3.286747
      pz      :     0.872450  p :     2.661598
      px      :     0.953401
      py      :     0.835747
      dz2     :     0.006616  d :     0.032077
      dxz     :     0.004367
      dyz     :     0.010015
      dx2y2   :     0.005468
      dxy     :     0.005612

 17 C s       :     2.970934  s :     2.970934
      pz      :     0.873647  p :     2.937427
      px      :     0.998846
      py      :     1.064934
      dz2     :     0.012659  d :     0.051735
      dxz     :     0.008918
      dyz     :     0.012909
      dx2y2   :     0.008473
      dxy     :     0.008776

 18 C s       :     3.232702  s :     3.232702
      pz      :     0.903156  p :     2.711846
      px      :     0.949837
      py      :     0.858853
      dz2     :     0.007426  d :     0.032238
      dxz     :     0.004864
      dyz     :     0.009481
      dx2y2   :     0.005062
      dxy     :     0.005405

 19 C s       :     3.176992  s :     3.176992
      pz      :     0.931613  p :     2.791126
      px      :     0.971549
      py      :     0.887964
      dz2     :     0.007126  d :     0.033018
      dxz     :     0.004706
      dyz     :     0.009974
      dx2y2   :     0.005991
      dxy     :     0.005222

 20 C s       :     3.214284  s :     3.214284
      pz      :     0.871489  p :     2.725783
      px      :     0.935717
      py      :     0.918577
      dz2     :     0.006292  d :     0.032358
      dxz     :     0.003894
      dyz     :     0.008726
      dx2y2   :     0.006612
      dxy     :     0.006834

 21 Cls       :     5.940017  s :     5.940017
      pz      :     3.409398  p :    11.097921
      px      :     3.743088
      py      :     3.945435
      dz2     :     0.013956  d :     0.038165
      dxz     :     0.014190
      dyz     :     0.005165
      dx2y2   :     0.003114
      dxy     :     0.001740

 22 H s       :     0.972453  s :     0.972453
      pz      :     0.004797  p :     0.022412
      px      :     0.013513
      py      :     0.004101

 23 H s       :     0.975545  s :     0.975545
      pz      :     0.006698  p :     0.022614
      px      :     0.005112
      py      :     0.010804

 24 H s       :     0.978747  s :     0.978747
      pz      :     0.004915  p :     0.023217
      px      :     0.013965
      py      :     0.004337

 25 H s       :     0.983358  s :     0.983358
      pz      :     0.006051  p :     0.022596
      px      :     0.007434
      py      :     0.009111

 26 H s       :     0.985515  s :     0.985515
      pz      :     0.014217  p :     0.022796
      px      :     0.003683
      py      :     0.004896

 27 H s       :     0.978717  s :     0.978717
      pz      :     0.005720  p :     0.022529
      px      :     0.011771
      py      :     0.005038

 28 H s       :     0.971536  s :     0.971536
      pz      :     0.013802  p :     0.022395
      px      :     0.003674
      py      :     0.004919

 29 H s       :     0.982102  s :     0.982102
      pz      :     0.006699  p :     0.022744
      px      :     0.010856
      py      :     0.005189

 30 H s       :     0.970767  s :     0.970767
      pz      :     0.007134  p :     0.023096
      px      :     0.005229
      py      :     0.010734

 31 H s       :     0.980898  s :     0.980898
      pz      :     0.005177  p :     0.022540
      px      :     0.005746
      py      :     0.011617

 32 H s       :     0.970869  s :     0.970869
      pz      :     0.006874  p :     0.022418
      px      :     0.004978
      py      :     0.010566

 33 H s       :     0.978629  s :     0.978629
      pz      :     0.011633  p :     0.022549
      px      :     0.007193
      py      :     0.003724



                     *******************************
                     * LOEWDIN POPULATION ANALYSIS *
                     *******************************

----------------------
LOEWDIN ATOMIC CHARGES
----------------------
   0 C :   -0.019828
   1 C :   -0.038255
   2 C :   -0.174681
   3 C :   -0.054296
   4 C :   -0.130240
   5 C :   -0.047958
   6 Cl:    0.136641
   7 P :    0.517787
   8 C :   -0.172842
   9 C :   -0.045289
  10 C :   -0.132480
  11 C :   -0.036126
  12 C :   -0.018598
  13 C :   -0.023935
  14 Cl:    0.139508
  15 C :   -0.168378
  16 C :   -0.048603
  17 C :   -0.131578
  18 C :   -0.040100
  19 C :   -0.019787
  20 C :   -0.030372
  21 Cl:    0.136740
  22 H :    0.036260
  23 H :    0.030828
  24 H :    0.032409
  25 H :    0.034332
  26 H :    0.032002
  27 H :    0.036258
  28 H :    0.036757
  29 H :    0.030767
  30 H :    0.031058
  31 H :    0.035441
  32 H :    0.036557
  33 H :    0.030000

-------------------------------
LOEWDIN REDUCED ORBITAL CHARGES
-------------------------------
  0 C s       :     2.863264  s :     2.863264
      pz      :     0.983676  p :     3.066840
      px      :     1.041273
      py      :     1.041891
      dz2     :     0.010394  d :     0.089724
      dxz     :     0.009457
      dyz     :     0.015283
      dx2y2   :     0.029741
      dxy     :     0.024848

  1 C s       :     2.866139  s :     2.866139
      pz      :     0.995188  p :     3.083823
      px      :     1.054547
      py      :     1.034087
      dz2     :     0.006949  d :     0.088293
      dxz     :     0.015808
      dyz     :     0.008916
      dx2y2   :     0.027981
      dxy     :     0.028638

  2 C s       :     2.915434  s :     2.915434
      pz      :     1.008814  p :     3.168417
      px      :     1.086773
      py      :     1.072830
      dz2     :     0.009346  d :     0.090831
      dxz     :     0.015849
      dyz     :     0.012459
      dx2y2   :     0.025844
      dxy     :     0.027333

  3 C s       :     2.870370  s :     2.870370
      pz      :     1.001378  p :     3.095648
      px      :     1.046301
      py      :     1.047969
      dz2     :     0.009471  d :     0.088278
      dxz     :     0.009302
      dyz     :     0.014899
      dx2y2   :     0.028000
      dxy     :     0.026606

  4 C s       :     2.904880  s :     2.904880
      pz      :     1.022553  p :     3.100178
      px      :     1.101277
      py      :     0.976348
      dz2     :     0.012291  d :     0.125182
      dxz     :     0.020618
      dyz     :     0.017288
      dx2y2   :     0.037392
      dxy     :     0.037593

  5 C s       :     2.866738  s :     2.866738
      pz      :     1.000355  p :     3.092441
      px      :     1.047801
      py      :     1.044284
      dz2     :     0.008199  d :     0.088779
      dxz     :     0.014919
      dyz     :     0.010341
      dx2y2   :     0.027150
      dxy     :     0.028170

  6 Cls       :     5.751290  s :     5.751290
      pz      :     3.781133  p :    11.067821
      px      :     3.830755
      py      :     3.455933
      dz2     :     0.006247  d :     0.044248
      dxz     :     0.003815
      dyz     :     0.013094
      dx2y2   :     0.010490
      dxy     :     0.010601

  7 P s       :     5.242709  s :     5.242709
      pz      :     3.399800  p :     8.997317
      px      :     2.800617
      py      :     2.796901
      dz2     :     0.020832  d :     0.242187
      dxz     :     0.052691
      dyz     :     0.043480
      dx2y2   :     0.053240
      dxy     :     0.071944

  8 C s       :     2.913999  s :     2.913999
      pz      :     1.096827  p :     3.166728
      px      :     1.074736
      py      :     0.995165
      dz2     :     0.027514  d :     0.092115
      dxz     :     0.034391
      dyz     :     0.012209
      dx2y2   :     0.010730
      dxy     :     0.007270

  9 C s       :     2.876049  s :     2.876049
      pz      :     1.047953  p :     3.080569
      px      :     1.061058
      py      :     0.971558
      dz2     :     0.024748  d :     0.088670
      dxz     :     0.028797
      dyz     :     0.004193
      dx2y2   :     0.016708
      dxy     :     0.014224

 10 C s       :     2.905334  s :     2.905334
      pz      :     1.073495  p :     3.102539
      px      :     0.994074
      py      :     1.034970
      dz2     :     0.032879  d :     0.124607
      dxz     :     0.044140
      dyz     :     0.014978
      dx2y2   :     0.017445
      dxy     :     0.015165

 11 C s       :     2.868352  s :     2.868352
      pz      :     1.053910  p :     3.079055
      px      :     1.054932
      py      :     0.970213
      dz2     :     0.028964  d :     0.088720
      dxz     :     0.030197
      dyz     :     0.012200
      dx2y2   :     0.011076
      dxy     :     0.006283

 12 C s       :     2.864173  s :     2.864173
      pz      :     1.041094  p :     3.065294
      px      :     1.062594
      py      :     0.961606
      dz2     :     0.025435  d :     0.089130
      dxz     :     0.029828
      dyz     :     0.004203
      dx2y2   :     0.015766
      dxy     :     0.013898

 13 C s       :     2.867786  s :     2.867786
      pz      :     1.058303  p :     3.066732
      px      :     1.050820
      py      :     0.957609
      dz2     :     0.025523  d :     0.089417
      dxz     :     0.035773
      dyz     :     0.010736
      dx2y2   :     0.010645
      dxy     :     0.006739

 14 Cls       :     5.751351  s :     5.751351
      pz      :     3.731044  p :    11.064799
      px      :     3.454196
      py      :     3.879559
      dz2     :     0.004558  d :     0.044342
      dxz     :     0.017090
      dyz     :     0.003502
      dx2y2   :     0.010898
      dxy     :     0.008294

 15 C s       :     2.914916  s :     2.914916
      pz      :     1.067722  p :     3.161852
      px      :     1.015082
      py      :     1.079048
      dz2     :     0.021723  d :     0.091610
      dxz     :     0.014590
      dyz     :     0.028486
      dx2y2   :     0.014301
      dxy     :     0.012510

 16 C s       :     2.872287  s :     2.872287
      pz      :     1.039175  p :     3.087086
      px      :     1.003591
      py      :     1.044321
      dz2     :     0.018078  d :     0.089230
      dxz     :     0.012360
      dyz     :     0.029195
      dx2y2   :     0.014877
      dxy     :     0.014721

 17 C s       :     2.905588  s :     2.905588
      pz      :     0.964668  p :     3.100987
      px      :     1.012985
      py      :     1.123335
      dz2     :     0.028780  d :     0.125003
      dxz     :     0.018929
      dyz     :     0.034515
      dx2y2   :     0.021794
      dxy     :     0.020986

 18 C s       :     2.867784  s :     2.867784
      pz      :     1.045713  p :     3.083557
      px      :     0.997776
      py      :     1.040067
      dz2     :     0.020029  d :     0.088759
      dxz     :     0.013419
      dyz     :     0.028062
      dx2y2   :     0.013856
      dxy     :     0.013393

 19 C s       :     2.863776  s :     2.863776
      pz      :     1.031670  p :     3.066889
      px      :     0.986571
      py      :     1.048649
      dz2     :     0.019264  d :     0.089123
      dxz     :     0.012884
      dyz     :     0.027614
      dx2y2   :     0.016066
      dxy     :     0.013294

 20 C s       :     2.869424  s :     2.869424
      pz      :     1.025329  p :     3.072372
      px      :     0.984952
      py      :     1.062091
      dz2     :     0.017040  d :     0.088576
      dxz     :     0.009474
      dyz     :     0.025292
      dx2y2   :     0.019628
      dxy     :     0.017141

 21 Cls       :     5.751399  s :     5.751399
      pz      :     3.419089  p :    11.067482
      px      :     3.734037
[...]
      px      :     1.042549
      py      :     1.001830
      dz2     :     0.015270  d :     0.086839
      dxz     :     0.020548
      dyz     :     0.013057
      dx2y2   :     0.018417
      dxy     :     0.019548

 13 C s       :     2.874612  s :     2.874612
      pz      :     1.028872  p :     3.078705
      px      :     1.039076
      py      :     1.010757
      dz2     :     0.018715  d :     0.086865
      dxz     :     0.024157
      dyz     :     0.014607
      dx2y2   :     0.012943
      dxy     :     0.016443

 14 Cls       :     5.766288  s :     5.766288
      pz      :     3.805162  p :    11.074039
      px      :     3.657253
      py      :     3.611625
      dz2     :     0.004684  d :     0.040411
      dxz     :     0.007736
      dyz     :     0.007129
      dx2y2   :     0.007399
      dxy     :     0.013463

 15 C s       :     2.923269  s :     2.923269
      pz      :     1.047772  p :     3.155442
      px      :     1.028659
      py      :     1.079011
      dz2     :     0.017412  d :     0.088744
      dxz     :     0.013478
      dyz     :     0.023266
      dx2y2   :     0.017798
      dxy     :     0.016790

 16 C s       :     2.880085  s :     2.880085
      pz      :     1.025385  p :     3.085727
      px      :     1.014972
      py      :     1.045370
      dz2     :     0.016149  d :     0.086577
      dxz     :     0.013786
      dyz     :     0.023446
      dx2y2   :     0.016245
      dxy     :     0.016950

 17 C s       :     2.917410  s :     2.917410
      pz      :     0.971100  p :     3.082783
      px      :     0.992004
      py      :     1.119679
      dz2     :     0.021810  d :     0.117873
      dxz     :     0.018070
      dyz     :     0.029186
      dx2y2   :     0.024806
      dxy     :     0.024001

 18 C s       :     2.877502  s :     2.877502
      pz      :     1.028623  p :     3.081646
      px      :     1.011836
      py      :     1.041187
      dz2     :     0.014623  d :     0.084898
      dxz     :     0.012100
      dyz     :     0.023200
      dx2y2   :     0.017204
      dxy     :     0.017771

 19 C s       :     2.871891  s :     2.871891
      pz      :     1.020594  p :     3.063393
      px      :     0.997845
      py      :     1.044954
      dz2     :     0.017939  d :     0.086681
      dxz     :     0.014048
      dyz     :     0.021311
      dx2y2   :     0.018010
      dxy     :     0.015372

 20 C s       :     2.874766  s :     2.874766
      pz      :     1.017941  p :     3.076867
      px      :     0.997781
      py      :     1.061145
      dz2     :     0.013118  d :     0.086894
      dxz     :     0.010187
      dyz     :     0.023063
      dx2y2   :     0.021629
      dxy     :     0.018897

 21 Cls       :     5.766707  s :     5.766707
      pz      :     3.514074  p :    11.074920
      px      :     3.646730
      py      :     3.914116
      dz2     :     0.011000  d :     0.040356
      dxz     :     0.017113
      dyz     :     0.004155
      dx2y2   :     0.005373
      dxy     :     0.002715

 22 H s       :     0.894878  s :     0.894878
      pz      :     0.017379  p :     0.065957
      px      :     0.035758
      py      :     0.012821

 23 H s       :     0.898726  s :     0.898726
      pz      :     0.031218  p :     0.067093
      px      :     0.013817
      py      :     0.022058

 24 H s       :     0.890146  s :     0.890146
      pz      :     0.018360  p :     0.070585
      px      :     0.038858
      py      :     0.013367

 25 H s       :     0.893291  s :     0.893291
      pz      :     0.016088  p :     0.067417
      px      :     0.021886
      py      :     0.029443

 26 H s       :     0.895152  s :     0.895152
      pz      :     0.035514  p :     0.068103
      px      :     0.012815
      py      :     0.019774

 27 H s       :     0.893328  s :     0.893328
      pz      :     0.017365  p :     0.067413
      px      :     0.036301
      py      :     0.013747

 28 H s       :     0.895105  s :     0.895105
      pz      :     0.033828  p :     0.065991
      px      :     0.013161
      py      :     0.019002

 29 H s       :     0.892935  s :     0.892935
      pz      :     0.016909  p :     0.069546
      px      :     0.025709
      py      :     0.026928

 30 H s       :     0.889934  s :     0.889934
      pz      :     0.014916  p :     0.070652
      px      :     0.015512
      py      :     0.040225

 31 H s       :     0.893550  s :     0.893550
      pz      :     0.019700  p :     0.067425
      px      :     0.016642
      py      :     0.031083

 32 H s       :     0.895087  s :     0.895087
      pz      :     0.014418  p :     0.065959
      px      :     0.014951
      py      :     0.036590

 33 H s       :     0.898599  s :     0.898599
      pz      :     0.031235  p :     0.067098
      px      :     0.024962
      py      :     0.010901



                      *****************************
                      * MAYER POPULATION ANALYSIS *
                      *****************************

  NA   - Mulliken gross atomic population
  ZA   - Total nuclear charge
  QA   - Mulliken gross atomic charge
  VA   - Mayer's total valence
  BVA  - Mayer's bonded valence
  FA   - Mayer's free valence

  ATOM       NA         ZA         QA         VA         BVA        FA
  0 C      6.0120     6.0000    -0.0120     3.8581     3.8581    -0.0000
  1 C      5.9649     6.0000     0.0351     3.8349     3.8349    -0.0000
  2 C      6.1861     6.0000    -0.1861     3.8555     3.8555    -0.0000
  3 C      5.9552     6.0000     0.0448     3.8846     3.8846    -0.0000
  4 C      5.9799     6.0000     0.0201     3.8922     3.8922    -0.0000
  5 C      5.9704     6.0000     0.0296     3.8736     3.8736    -0.0000
  6 Cl    17.0806    17.0000    -0.0806     1.1676     1.1676    -0.0000
  7 P     14.6851    15.0000     0.3149     2.9913     2.9913    -0.0000
  8 C      6.1858     6.0000    -0.1858     3.8529     3.8529     0.0000
  9 C      5.9507     6.0000     0.0493     3.8847     3.8847    -0.0000
 10 C      5.9825     6.0000     0.0175     3.9127     3.9127    -0.0000
 11 C      5.9664     6.0000     0.0336     3.8737     3.8737    -0.0000
 12 C      6.0076     6.0000    -0.0076     3.8363     3.8363    -0.0000
 13 C      5.9766     6.0000     0.0234     3.8515     3.8515    -0.0000
 14 Cl    17.0818    17.0000    -0.0818     1.1635     1.1635    -0.0000
 15 C      6.1828     6.0000    -0.1828     3.8529     3.8529     0.0000
 16 C      5.9554     6.0000     0.0446     3.8855     3.8855    -0.0000
 17 C      5.9811     6.0000     0.0189     3.8902     3.8902    -0.0000
 18 C      5.9720     6.0000     0.0280     3.8723     3.8723    -0.0000
 19 C      6.0132     6.0000    -0.0132     3.8570     3.8570    -0.0000
 20 C      5.9669     6.0000     0.0331     3.8365     3.8365    -0.0000
 21 Cl    17.0811    17.0000    -0.0811     1.1669     1.1669    -0.0000
 22 H      0.9845     1.0000     0.0155     0.9801     0.9801    -0.0000
 23 H      0.9907     1.0000     0.0093     0.9910     0.9910     0.0000
 24 H      0.9864     1.0000     0.0136     1.0130     1.0130     0.0000
 25 H      0.9935     1.0000     0.0065     0.9981     0.9981     0.0000
 26 H      0.9940     1.0000     0.0060     1.0089     1.0089    -0.0000
 27 H      0.9930     1.0000     0.0070     0.9979     0.9979    -0.0000
 28 H      0.9864     1.0000     0.0136     0.9799     0.9799    -0.0000
 29 H      0.9791     1.0000     0.0209     0.9905     0.9905    -0.0000
 30 H      0.9858     1.0000     0.0142     1.0130     1.0130    -0.0000
 31 H      0.9939     1.0000     0.0061     0.9981     0.9981    -0.0000
 32 H      0.9847     1.0000     0.0153     0.9800     0.9800    -0.0000
 33 H      0.9903     1.0000     0.0097     0.9910     0.9910    -0.0000

  Mayer bond orders larger than 0.100000
B(  0-C ,  1-C ) :   1.3931 B(  0-C ,  5-C ) :   1.3623 B(  0-C , 22-H ) :   0.9714 
B(  1-C ,  2-C ) :   1.3606 B(  1-C , 23-H ) :   0.9736 B(  2-C ,  3-C ) :   1.3604 
B(  2-C ,  7-P ) :   0.9339 B(  3-C ,  4-C ) :   1.3661 B(  3-C , 24-H ) :   0.9686 
B(  4-C ,  5-C ) :   1.3852 B(  4-C ,  6-Cl) :   0.9955 B(  5-C , 25-H ) :   0.9754 
B(  7-P ,  8-C ) :   0.9310 B(  7-P , 15-C ) :   0.9320 B(  8-C ,  9-C ) :   1.3394 
B(  8-C , 13-C ) :   1.3819 B(  9-C , 10-C ) :   1.3947 B(  9-C , 26-H ) :   0.9715 
B( 10-C , 11-C ) :   1.3781 B( 10-C , 14-Cl) :   0.9883 B( 11-C , 12-C ) :   1.3678 
B( 11-C , 27-H ) :   0.9762 B( 12-C , 13-C ) :   1.3716 B( 12-C , 28-H ) :   0.9705 
B( 13-C , 29-H ) :   0.9685 B( 15-C , 16-C ) :   1.3616 B( 15-C , 20-C ) :   1.3610 
B( 16-C , 17-C ) :   1.3660 B( 16-C , 30-H ) :   0.9687 B( 17-C , 18-C ) :   1.3848 
B( 17-C , 21-Cl) :   0.9952 B( 18-C , 19-C ) :   1.3618 B( 18-C , 31-H ) :   0.9756 
B( 19-C , 20-C ) :   1.3931 B( 19-C , 32-H ) :   0.9715 B( 20-C , 33-H ) :   0.9737 


-------
TIMINGS
-------

Total SCF time: 0 days 0 hours 0 min 5 sec 

Total time                  ....       5.368 sec
Sum of individual times     ....       5.282 sec  ( 98.4%)

SCF preparation             ....       0.120 sec  (  2.2%)
Fock matrix formation       ....       4.700 sec  ( 87.6%)
  Startup                   ....       0.023 sec  (  0.5% of F)
  Split-RI-J                ....       1.742 sec  ( 37.1% of F)
  XC integration            ....       2.854 sec  ( 60.7% of F)
    Basis function eval.    ....       0.848 sec  ( 29.7% of XC)
    Density eval.           ....       0.882 sec  ( 30.9% of XC)
    XC-Functional eval.     ....       0.074 sec  (  2.6% of XC)
    XC-Potential eval.      ....       0.632 sec  ( 22.1% of XC)
Diagonalization             ....       0.000 sec  (  0.0%)
Density matrix formation    ....       0.053 sec  (  1.0%)
Total Energy calculation    ....       0.019 sec  (  0.4%)
Population analysis         ....       0.096 sec  (  1.8%)
Orbital Transformation      ....       0.040 sec  (  0.7%)
Orbital Orthonormalization  ....       0.000 sec  (  0.0%)
DIIS solution               ....       0.049 sec  (  0.9%)
SOSCF solution              ....       0.205 sec  (  3.8%)
Finished LeanSCF after   5.4 sec

Maximum memory used throughout the entire LEANSCF-calculation: 39.8 MB


-------------------------------------------------------------------------------
                          DFT DISPERSION CORRECTION                            
                                                                               
                              DFTD3 V3.1  Rev 1                                
                          USING Becke-Johnson damping                          
-------------------------------------------------------------------------------
The BP86 functional is recognized
Active option DFTDOPT                   ...         4   

molecular C6(AA) [au] = 23052.950994 


            DFT-D V3
 parameters
 s6 scaling factor         :     1.0000 
 a1 scaling factor         :     0.3946 
 s8 scaling factor         :     3.2822 
 a2 scaling factor         :     4.8516 
 ad hoc parameters k1-k3   :    16.0000     1.3333    -4.0000 

 Edisp/kcal,au: -59.247989250933  -0.094417670776 
 E6   /kcal   : -20.914392742 
 E8   /kcal   : -38.333596508 
 % E8         :  64.700248891 

-------------------------   ----------------
Dispersion correction           -0.094417671
-------------------------   ----------------


-------------------------   --------------------
FINAL SINGLE POINT ENERGY     -2414.328888884125
-------------------------   --------------------

                                *** OPTIMIZATION RUN DONE ***



           ************************************************************
           *        Program running with 6 parallel MPI-processes     *
           *              working on a common directory               *
           ************************************************************

------------------------------------------------------------------------------
                              ORCA PROPERTY CALCULATIONS
------------------------------------------------------------------------------

GBWName                                 ... data/geom_opt_P_BP86/121600/121600.gbw
Number of atoms                         ...     34
Number of basis functions               ...    384
Max core memory                         ...   1024 MB

Electric properties:
Dipole moment                           ... YES
Quadrupole moment                       ...  NO
Static polarizability (Dipole/Dipole)   ...  NO
Static polarizability (Dipole/Quad.)    ...  NO
Static polarizability (Quad./Quad.)     ...  NO
Static polarizability (Velocity)        ...  NO

Atomic electric properties:
Dipole moment                           ...  NO
Quadrupole moment                       ...  NO
Static polarizability                   ...  NO

Choice of electric origin               ... Center of mass
Position of electric origin             ...     0.170603    -0.671587     0.290054

General magnetic properties:
Magnetizability                         ...  NO

EPR properties:
g-Tensor (aka g-matrix)                 ...  NO
Zero-Field splitting spin-orbit         ...  NO
Zero-field splitting spin-spin          ...  NO
Hyperfine couplings                     ...  NO (   0 nuclei)
Quadrupole couplings                    ...  NO (   0 nuclei)
Contact density                         ...  NO (   0 nuclei)

NMR properties:
Chemical shifts                         ...  NO (   0 nuclei)
Spin-rotation constants                 ...  NO (   0 nuclei)
Spin-spin couplings                     ...  NO (   0 nuclei,    0 pairs)

Choice of magnetic origin               ... GIAO
Position of magnetic origin             ...     0.000000     0.000000     0.000000

Properties with geometric perturbations:
SCF Hessian                             ...  NO
IR spectrum                             ...  NO
VCD spectrum                            ...  NO
X-ray spectroscopy properties:
SCF XES/XAS/RIXS spectra                ...  NO


-------------
DIPOLE MOMENT
-------------

Method             : SCF
Type of density    : Electron Density
Multiplicity       :   1
Irrep              :   0
Energy             : -2414.2344712133494795 Eh
Relativity type    : 
Basis              : AO
                                X                 Y                 Z
Electronic contribution:      2.553351781     -10.106907544       4.579921845
Nuclear contribution   :     -2.735925521      10.759928355      -4.639222930
                        -----------------------------------------
Total Dipole Moment    :     -0.182573740       0.653020811      -0.059301085
                        -----------------------------------------
Magnitude (a.u.)       :      0.680651136
Magnitude (Debye)      :      1.730077696



--------------------
Rotational spectrum 
--------------------
 
Rotational constants in cm-1:             0.007543             0.004912             0.003659 
Rotational constants in MHz :           226.127664           147.261998           109.696564 

Dipole components along the rotational axes: 
x,y,z [a.u.] :     0.508343     0.443031    -0.092721 
x,y,z [Debye]:     1.292105     1.126094    -0.235679 

 

Dipole moment calculation done in   0.0 sec 

Maximum memory used throughout the entire PROP-calculation: 20.5 MB

--------------------------------
SUGGESTED CITATIONS FOR THIS RUN
--------------------------------

Below you find a list of papers that are relevant to this ORCA run
We neither can nor want to force you to cite these papers, but we appreciate if you do
You receive ORCA, which is the product of decades of hard work by many enthusiastic individuals, for free
The only thing we kindly ask in return is that you cite our papers,
We deeply appreciate it, if you show your appreciation for ORCA by not just citing the generic ORCA reference.

Please note that relegating all ORCA citations to the supporting information does *not* help us.
SI sections are not indexed - citations you put there will not count into any citation statistics
But we need these citations in order to attract the funding resources that allow us to do what we are doing

Therefore, if you are a happy ORCA user, please consider citing a few of the papers listed below in the main body of your paper

In addition to the list printed below, the program has created the file data/geom_opt_P_BP86/121600/121600.bibtex that contains the list in bibtex format
You can import this file easily into all common literature databanks and citation aid programs


List of essential papers. We consider these as the minimum necessary citations

  1. Neese,F.
     Software update: the ORCA program system, version 5.0
     WIRES Comput. Molec. Sci., 2022 12(1)e1606
     doi.org/10.1002/wcms.1606

List of papers to cite with high priority. The work reported in these papers was absolutely
necessary for this run to complete.
Our perspective: the developers of density functionals and basis sets usually get cited in chemistry papers
Good! But without the algorithms to do something with them, the functionals or basis sets would not do anything.
Hence, in our opinion, the algorithm design and method developments papers are equally worthy of getting cited

  1. Neese,F.
     An improvement of the resolution of the identity approximation for the formation of the Coulomb matrix
     J. Comp. Chem., 2003 24(14)1740-1747
     doi.org/10.1002/jcc.10318
  2. Neese,F.
     The SHARK Integral Generation and Digestion System
     J. Comp. Chem., 2022  1-16
     doi.org/10.1002/jcc.26942
  3. Grimme,S.; Antony,J.; Ehrlich,S.; Krieg,H.
     A consistent and accurate ab initio parametrization of density functional dispersion correction (DFT-D) for the 94 elements H-Pu
     J. Chem. Phys., 2010 132 154104-XXXX
     doi.org/10.1063/1.3382344
  4. Grimme,S.; Ehrlich,S.; Goerigk,L.
     Effect of the damping function in dispersion corrected density functional theory
     J. Comput. Chem., 2011 32(7)1456-1465
     doi.org/10.1002/jcc.21759

List of suggested additional citations. These are papers that are important in the 'surrounding' of 
of this run, or papers that preceded the highly important papers. If you like your results we are grateful for a citation.

  1. Neese,F.
     The ORCA program system
     WIRES Comput. Molec. Sci., 2012 2(1)73-78
     doi.org/10.1002/wcms.81
  2. Neese,F.
     Software update: the ORCA program system, version 4.0
     WIRES Comput. Molec. Sci., 2018 8(1)1-6
     doi.org/10.1002/wcms.1327
  3. Neese,F.; Wennmohs,F.; Becker,U.; Riplinger,C.
     The ORCA quantum chemistry program package
     J. Chem. Phys., 2020 152 Art. No. L224108
     doi.org/10.1063/5.0004608

List of optional additional citations

  1. Neese,F.
     Approximate second-order SCF convergence for spin unrestricted wavefunctions
     Chem. Phys. Lett., 2000 325(1-3)93-98
     doi.org/10.1016/s0009-2614(00)00662-x

Timings for individual modules:

Sum of individual times          ...      212.093 sec (=   3.535 min)
Startup calculation              ...       16.443 sec (=   0.274 min)   7.8 %
SCF iterations                   ...      134.660 sec (=   2.244 min)  63.5 %
Property calculations            ...        0.179 sec (=   0.003 min)   0.1 %
SCF Gradient evaluation          ...       60.634 sec (=   1.011 min)  28.6 %
Geometry relaxation              ...        0.177 sec (=   0.003 min)   0.1 %
                             ****ORCA TERMINATED NORMALLY****
TOTAL RUN TIME: 0 days 0 hours 3 minutes 34 seconds 317 msec
