
                                 *****************
                                 * O   R   C   A *
                                 *****************

                                            #,                                       
                                            ###                                      
                                            ####                                     
                                            #####                                    
                                            ######                                   
                                           ########,                                 
                                     ,,################,,,,,                         
                               ,,#################################,,                 
                          ,,##########################################,,             
                       ,#########################################, ''#####,          
                    ,#############################################,,   '####,        
                  ,##################################################,,,,####,       
                ,###########''''           ''''###############################       
              ,#####''   ,,,,##########,,,,          '''####'''          '####       
            ,##' ,,,,###########################,,,                        '##       
           ' ,,###''''                  '''############,,,                           
         ,,##''                                '''############,,,,        ,,,,,,###''
      ,#''                                            '''#######################'''  
     '                                                          ''''####''''         
             ,#######,   #######,   ,#######,      ##                                
            ,#'     '#,  ##    ##  ,#'     '#,    #''#        ,####,   ,####,        
            ##       ##  ##   ,#'  ##            #'  '#       #'       #'  '#        
            ##       ##  #######   ##           ,######,      #####,   #    #        
            '#,     ,#'  ##    ##  '#,     ,#' ,#      #,     #,   #   #,  ,#        
             '#######'   ##     ##  '#######'  #'      '#     '####' # '####'        



                #########################################################
                #                        -***-                          #
                #          Department of theory and spectroscopy        #
                #                                                       #
                #                      Frank Neese                      #
                #                                                       #
                #     Directorship, Architecture, Infrastructure        #
                #                    SHARK, DRIVERS                     #
                #        Core code/Algorithms in most modules           #
                #                                                       #
                #        Max Planck Institute fuer Kohlenforschung      #
                #                Kaiser Wilhelm Platz 1                 #
                #                 D-45470 Muelheim/Ruhr                 #
                #                      Germany                          #
                #                                                       #
                #                  All rights reserved                  #
                #                        -***-                          #
                #########################################################


                         Program Version 6.0.0  -   RELEASE   -


 With contributions from (in alphabetic order):
   Daniel Aravena         : Magnetic Suceptibility
   Michael Atanasov       : Ab Initio Ligand Field Theory (pilot matlab implementation)
   Alexander A. Auer      : GIAO ZORA, VPT2 properties, NMR spectrum
   Ute Becker             : All parallelization in ORCA, NUMFREQ, NUMCALC
   Giovanni Bistoni       : ED, misc. LED, open-shell LED, HFLD
   Martin Brehm           : Molecular dynamics
   Dmytro Bykov           : pre 5.0 version of the SCF Hessian
   Marcos Casanova-Páez   : Triplet and SCS-CIS(D). UHF-(DLPNO)-IP/EA/STEOM-CCSD. UHF-CVS-IP/STEOM-CCSD
   Vijay G. Chilkuri      : MRCI spin determinant printing, contributions to CSF-ICE
   Pauline Colinet        : FMM embedding
   Dipayan Datta          : RHF DLPNO-CCSD density
   Achintya Kumar Dutta   : EOM-CC, STEOM-CC
   Nicolas Foglia         : Exact transition moments, OPA infrastructure, MCD improvements
   Dmitry Ganyushin       : Spin-Orbit,Spin-Spin,Magnetic field MRCI
   Miquel Garcia          : C-PCM and meta-GGA Hessian, CCSD/C-PCM, Gaussian charge scheme
   Tiago L. C. Gouveia    : GS-ROHF, GS-ROCIS
   Yang Guo               : DLPNO-NEVPT2, F12-NEVPT2, CIM, IAO-localization
   Andreas Hansen         : Spin unrestricted coupled pair/coupled cluster methods
   Ingolf Harden          : AUTO-CI MPn and infrastructure 
   Benjamin Helmich-Paris : MC-RPA, TRAH-(SCF,CASSCF), AVAS, COSX integrals, SCF dyn. polar.
   Lee Huntington         : MR-EOM, pCC
   Robert Izsak           : Overlap fitted RIJCOSX, COSX-SCS-MP3, EOM
   Riya Kayal             : Wick's Theorem for AUTO-CI, AUTO-CI UHF-CCSDT
   Emily Kempfer          : AUTO-CI, RHF CISDT and CCSDT
   Christian Kollmar      : KDIIS, OOCD, Brueckner-CCSD(T), CCSD density, CASPT2, CASPT2-K, improved NEVPT2
   Axel Koslowski         : Symmetry handling
   Simone Kossmann        : Meta GGA functionals, TD-DFT gradient, OOMP2, (MP2 Hessian; deprecated post 5.0)
   Lucas Lang             : DCDCAS
   Marvin Lechner         : AUTO-CI (C++ implementation), FIC-MRCC
   Spencer Leger          : CASSCF response
   Dagmar Lenk            : GEPOL surface, SMD, ORCA-2-JSON
   Dimitrios Liakos       : Extrapolation schemes; Compound Job, initial MDCI parallelization
   Dimitrios Manganas     : Further ROCIS development; embedding schemes. LFT, Crystal Embedding
   Dimitrios Pantazis     : SARC Basis sets
   Anastasios Papadopoulos: AUTO-CI, single reference methods and gradients
   Taras Petrenko         : pre 6.0 DFT Hessian and TD-DFT gradient, (ASA, deprecated), ECA, 1-Electron XAS/XES, NRVS
   Peter Pinski           : DLPNO-MP2, DLPNO-MP2 Gradient
   Christoph Reimann      : Effective Core Potentials
   Marius Retegan         : Local ZFS, SOC
   Christoph Riplinger    : Optimizer, TS searches, QM/MM, DLPNO-CCSD(T), (RO)-DLPNO pert. Triples
   Michael Roemelt        : Original ROCIS implementation
   Masaaki Saitow         : Open-shell DLPNO-CCSD energy and density
   Barbara Sandhoefer     : DKH picture change effects
   Kantharuban Sivalingam : CASSCF convergence/infrastructure, NEVPT2 and variants, FIC-MRCI
   Bernardo de Souza      : ESD, SOC TD-DFT
   Georgi Stoychev        : AutoAux, RI-MP2 NMR, DLPNO-MP2 response, X2C
   Van Anh Tran           : RI-MP2 g-tensors
   Willem Van den Heuvel  : Paramagnetic NMR
   Zikuan Wang            : NOTCH, Electric field optimization 
   Frank Wennmohs         : Technical directorship and infrastructure
   Hang Xu                : AUTO-CI-Response properties 


 We gratefully acknowledge several colleagues who have allowed us to
 interface, adapt or use parts of their codes:
   Stefan Grimme, W. Hujo, H. Kruse, P. Pracht,  : VdW corrections, initial TS optimization,
                  C. Bannwarth, S. Ehlert,         DFT functionals, gCP, sTDA/sTD-DF
                  L. Wittmann, M. Mueller
   Ed Valeev, F. Pavosevic, A. Kumar             : LibInt (2-el integral package), F12 methods
   Garnet Chan, S. Sharma, J. Yang, R. Olivares  : DMRG
   Ulf Ekstrom                                   : XCFun DFT Library
   Mihaly Kallay                                 : mrcc  (arbitrary order and MRCC methods)
   Frank Weinhold                                : gennbo (NPA and NBO analysis)
   Simon Mueller                                 : openCOSMO-RS
   Christopher J. Cramer and Donald G. Truhlar   : smd solvation model
   Lars Goerigk                                  : TD-DFT with DH, B97 family of functionals
   V. Asgeirsson, H. Jonsson                     : NEB implementation
   FAccTs GmbH                                   : IRC, NEB, NEB-TS, DLPNO-Multilevel, CI-OPT
                                                   MM, QMMM, 2- and 3-layer-ONIOM, Crystal-QMMM,
                                                   LR-CPCM, SF, NACMEs, symmetry and pop. for TD-DFT,
                                                   nearIR, NL-DFT gradient (VV10), updates on ESD,
                                                   ML-optimized integration grids, MBIS, APM,
                                                   GOAT, DOCKER, SOLVATOR, interface openCOSMO-RS
   S Lehtola, MJT Oliveira, MAL Marques          : LibXC Library
   Liviu Ungur et al                             : ANISO software


 Your calculation uses the libint2 library for the computation of 2-el integrals
 For citations please refer to: http://libint.valeyev.net

 Your ORCA version has been built with support for libXC version: 6.2.2
 For citations please refer to: https://libxc.gitlab.io

 This ORCA versions uses:
   CBLAS   interface :  Fast vector & matrix operations
   LAPACKE interface :  Fast linear algebra routines
   Shared memory     :  Shared parallel matrices


Your calculation utilizes the atom-pairwise dispersion correction
with the Becke-Johnson damping scheme (D3BJ)


Warning: RI is on but no J-basis has been assigned. Assigning Def2/J (nothing to worry about!)
================================================================================

----- Orbital basis set information -----
Your calculation utilizes the basis: def2-SVP
   F. Weigend and R. Ahlrichs, Phys. Chem. Chem. Phys. 7, 3297 (2005).

----- AuxJ basis set information -----
Your calculation utilizes the auxiliary basis: def2/J
   F. Weigend, Phys. Chem. Chem. Phys. 8, 1057 (2006).

================================================================================
                                        WARNINGS
                       Please study these warnings very carefully!
================================================================================


WARNING: Geometry Optimization
  ===> : Switching off AutoStart
         For restart on a previous wavefunction, please use MOREAD

================================================================================
                                       INPUT FILE
================================================================================
NAME = data/geom_opt_PO_BP86/80969/80969.inp
|  1> ! RI BP86 def2-SVP D3BJ TIGHTSCF Opt
|  2> %pal
|  3> nprocs 6
|  4> end
|  5> 
|  6> * xyz 0 1
|  7> C      0.137986    2.698474   -0.899314
|  8> C     -0.550883    1.504274   -0.235986
|  9> C     -0.708808    1.771934    1.257793
| 10> P      0.235601   -0.072306   -0.676081
| 11> O      0.946845    0.008041   -2.002126
| 12> C     -1.080979   -1.323932   -0.749007
| 13> C     -1.910985   -1.464712    0.519810
| 14> C     -2.002777   -1.122849   -1.953038
| 15> C      1.384110   -0.556247    0.644062
| 16> C      2.607800    0.360061    0.702997
| 17> C      1.871561   -1.998768    0.494505
| 18> H      0.145316    2.580628   -1.987609
| 19> H     -0.381359    3.634120   -0.667725
| 20> H      1.177029    2.791171   -0.571614
| 21> H     -1.560606    1.463772   -0.659558
| 22> H      0.257095    1.946815    1.739500
| 23> H     -1.328677    2.658588    1.429069
| 24> H     -1.182219    0.931090    1.768628
| 25> H     -0.569347   -2.279240   -0.913550
| 26> H     -1.270897   -1.598466    1.395985
| 27> H     -2.533748   -0.581010    0.686538
| 28> H     -2.576395   -2.332155    0.454902
| 29> H     -2.717394   -1.947580   -2.042626
| 30> H     -1.421821   -1.077154   -2.879437
| 31> H     -2.568029   -0.189878   -1.872039
| 32> H      0.857691   -0.484476    1.601380
| 33> H      2.317037    1.397709    0.878963
| 34> H      3.284764    0.064203    1.511161
| 35> H      3.164094    0.330829   -0.239664
| 36> H      1.042894   -2.704225    0.599659
| 37> H      2.322517   -2.158985   -0.490154
| 38> H      2.612584   -2.249726    1.260630
| 39> **                         ****END OF INPUT****
================================================================================

                       *****************************
                       * Geometry Optimization Run *
                       *****************************

Geometry optimization settings:
Update method            Update   .... BFGS
Choice of coordinates    CoordSys .... (2022) Redundant Internals
Initial Hessian          InHess   .... Almloef's Model
Max. no of cycles        MaxIter  .... 96

Convergence Tolerances:
Energy Change            TolE     ....  5.0000e-06 Eh
Max. Gradient            TolMAXG  ....  3.0000e-04 Eh/bohr
RMS Gradient             TolRMSG  ....  1.0000e-04 Eh/bohr
Max. Displacement        TolMAXD  ....  4.0000e-03 bohr
RMS Displacement         TolRMSD  ....  2.0000e-03 bohr
Strict Convergence                .... False

------------------------------------------------------------------------------
                        ORCA OPTIMIZATION COORDINATE SETUP
------------------------------------------------------------------------------

The optimization will be done in redundant internal coordinates (2022)
Making redundant internal coordinates   ...  (2022 redundants) done
Evaluating the initial hessian          ...  (Almloef) done
Evaluating the coordinates              ...  done
Calculating the B-matrix                .... done
Calculating the G-matrix                .... done
Diagonalizing the G-matrix              .... done
Small eigenvalue found = 1.058e-02
Small eigenvalue found = 1.725e-02
Small eigenvalue found = 2.254e-02
Small eigenvalue found = 2.864e-02
The first mode is                       ....   55
The number of degrees of freedom        ....   90

    -----------------------------------------------------------------
                    Redundant Internal Coordinates


    -----------------------------------------------------------------
         Definition                    Initial Value    Approx d2E/dq
    -----------------------------------------------------------------
      1. B(C   1,C   0)                  1.5299         0.373683   
      2. B(C   2,C   1)                  1.5258         0.379433   
      3. B(P   3,C   1)                  1.8160         0.439118   
      4. B(O   4,P   3)                  1.5069         1.224272   
      5. B(C   5,P   3)                  1.8180         0.435835   
      6. B(C   6,C   5)                  1.5227         0.383724   
      7. B(C   7,C   5)                  1.5297         0.374052   
      8. B(C   8,P   3)                  1.8155         0.439917   
      9. B(C   9,C   8)                  1.5299         0.373749   
     10. B(C  10,C   8)                  1.5300         0.373600   
     11. B(H  11,C   0)                  1.0947         0.353960   
     12. B(H  12,C   0)                  1.0949         0.353688   
     13. B(H  13,C   0)                  1.0934         0.355590   
     14. B(H  14,C   1)                  1.0957         0.352617   
     15. B(H  15,C   2)                  1.0934         0.355588   
     16. B(H  16,C   2)                  1.0953         0.353129   
     17. B(H  17,C   2)                  1.0918         0.357690   
     18. B(H  18,C   5)                  1.0961         0.352108   
     19. B(H  19,C   6)                  1.0933         0.355773   
     20. B(H  20,C   6)                  1.0939         0.355011   
     21. B(H  21,C   6)                  1.0952         0.353299   
     22. B(H  22,C   7)                  1.0949         0.353629   
     23. B(H  23,C   7)                  1.0944         0.354266   
     24. B(H  24,C   7)                  1.0938         0.355044   
     25. B(H  25,C   8)                  1.0949         0.353724   
     26. B(H  26,C   9)                  1.0919         0.357610   
     27. B(H  27,C   9)                  1.0950         0.353596   
     28. B(H  28,C   9)                  1.0950         0.353604   
     29. B(H  29,C  10)                  1.0934         0.355695   
     30. B(H  30,C  10)                  1.0948         0.353808   
     31. B(H  31,C  10)                  1.0950         0.353536   
     32. A(C   1,C   0,H  13)          111.3523         0.323664   
     33. A(H  11,C   0,H  13)          107.5005         0.289483   
     34. A(H  12,C   0,H  13)          108.3550         0.289448   
     35. A(H  11,C   0,H  12)          107.7856         0.289239   
     36. A(C   1,C   0,H  12)          111.2078         0.323379   
     37. A(C   1,C   0,H  11)          110.4889         0.323420   
     38. A(C   0,C   1,C   2)          109.5211         0.364337   
     39. A(C   2,C   1,P   3)          115.7464         0.398843   
     40. A(P   3,C   1,H  14)          105.8621         0.352571   
     41. A(C   0,C   1,H  14)          106.0320         0.323218   
     42. A(C   0,C   1,P   3)          112.1838         0.397774   
     43. A(C   2,C   1,H  14)          106.8322         0.324029   
     44. A(H  15,C   2,H  17)          107.4622         0.289959   
     45. A(C   1,C   2,H  17)          111.5826         0.324790   
     46. A(C   1,C   2,H  16)          110.7123         0.324106   
     47. A(C   1,C   2,H  15)          111.5883         0.324476   
     48. A(H  15,C   2,H  16)          107.5515         0.289376   
     49. A(H  16,C   2,H  17)          107.7502         0.289643   
     50. A(O   4,P   3,C   5)          110.0729         0.523526   
     51. A(C   5,P   3,C   8)          107.6846         0.436022   
     52. A(O   4,P   3,C   8)          110.8245         0.524444   
     53. A(C   1,P   3,C   5)          107.0841         0.435880   
     54. A(C   1,P   3,C   8)          109.2186         0.436612   
     55. A(C   1,P   3,O   4)          111.8010         0.524265   
     56. A(P   3,C   5,H  18)          105.5459         0.352037   
     57. A(P   3,C   5,C   6)          115.1484         0.399105   
     58. A(C   6,C   5,C   7)          109.8501         0.365101   
     59. A(P   3,C   5,C   7)          112.1773         0.397319   
     60. A(C   7,C   5,H  18)          106.1227         0.323194   
     61. A(C   6,C   5,H  18)          107.3939         0.324551   
     62. A(H  20,C   6,H  21)          107.6377         0.289324   
     63. A(H  19,C   6,H  21)          107.8372         0.289421   
     64. A(C   5,C   6,H  21)          110.7950         0.324731   
     65. A(H  19,C   6,H  20)          108.0594         0.289640   
     66. A(C   5,C   6,H  20)          111.2627         0.324989   
     67. A(C   5,C   6,H  19)          111.0982         0.325104   
     68. A(H  23,C   7,H  24)          107.5401         0.289452   
     69. A(H  22,C   7,H  24)          108.1338         0.289370   
     70. A(C   5,C   7,H  24)          111.4225         0.323635   
     71. A(H  22,C   7,H  23)          107.9770         0.289271   
     72. A(C   5,C   7,H  23)          110.6019         0.323518   
     73. A(C   5,C   7,H  22)          111.0198         0.323423   
     74. A(C   9,C   8,C  10)          108.2784         0.363385   
     75. A(P   3,C   8,C  10)          112.4448         0.397885   
     76. A(P   3,C   8,C   9)          111.9848         0.397913   
     77. A(C  10,C   8,H  25)          107.4853         0.323373   
     78. A(C   9,C   8,H  25)          108.1578         0.323394   
     79. A(P   3,C   8,H  25)          108.3102         0.352866   
     80. A(H  27,C   9,H  28)          108.3065         0.289182   
     81. A(H  26,C   9,H  28)          107.4218         0.289694   
     82. A(C   8,C   9,H  28)          110.9294         0.323376   
     83. A(H  26,C   9,H  27)          107.6059         0.289693   
     84. A(C   8,C   9,H  27)          111.1688         0.323375   
     85. A(C   8,C   9,H  26)          111.2477         0.323974   
     86. A(H  30,C  10,H  31)          108.4802         0.289200   
     87. A(H  29,C  10,H  31)          107.3218         0.289441   
     88. A(C   8,C  10,H  31)          111.3028         0.323345   
     89. A(H  29,C  10,H  30)          107.7141         0.289476   
     90. A(C   8,C  10,H  30)          110.9240         0.323385   
     91. A(C   8,C  10,H  29)          110.9448         0.323668   
     92. D(P   3,C   1,C   0,H  11)     57.2334         0.011150   
     93. D(C   2,C   1,C   0,H  11)   -172.8038         0.011150   
     94. D(P   3,C   1,C   0,H  12)    176.8877         0.011150   
     95. D(C   2,C   1,C   0,H  13)     67.8057         0.011150   
     96. D(P   3,C   1,C   0,H  13)    -62.1570         0.011150   
     97. D(C   2,C   1,C   0,H  12)    -53.1496         0.011150   
     98. D(H  16,C   2,C   1,C   0)     60.9985         0.011476   
     99. D(H  15,C   2,C   1,C   0)    -58.7595         0.011476   
    100. D(H  16,C   2,C   1,H  14)    -53.4194         0.011476   
    101. D(H  16,C   2,C   1,P   3)   -170.9958         0.011476   
    102. D(H  15,C   2,C   1,P   3)     69.2461         0.011476   
    103. D(H  15,C   2,C   1,H  14)   -173.1775         0.011476   
    104. D(O   4,P   3,C   1,C   2)   -152.1905         0.004333   
    105. D(O   4,P   3,C   1,C   0)    -25.5145         0.004333   
    106. D(O   4,P   3,C   1,H  14)     89.6944         0.004333   
    107. D(C   5,P   3,C   1,C   2)     87.1689         0.004333   
    108. D(C   5,P   3,C   1,H  14)    -30.9461         0.004333   
    109. D(C   5,P   3,C   1,C   0)   -146.1550         0.004333   
    110. D(C   7,C   5,P   3,C   8)   -172.1336         0.004289   
    111. D(C   7,C   5,P   3,O   4)    -51.2175         0.004289   
    112. D(C   7,C   5,P   3,C   1)     70.5153         0.004289   
    113. D(C   6,C   5,P   3,O   4)   -177.8339         0.004289   
    114. D(C   6,C   5,P   3,C   1)    -56.1011         0.004289   
    115. D(C   6,C   5,P   3,C   8)     61.2501         0.004289   
    116. D(H  20,C   6,C   5,H  18)   -173.9157         0.011724   
    117. D(H  20,C   6,C   5,C   7)    -58.9247         0.011724   
    118. D(H  20,C   6,C   5,P   3)     68.8694         0.011724   
    119. D(H  19,C   6,C   5,H  18)     65.6409         0.011724   
    120. D(H  19,C   6,C   5,C   7)   -179.3681         0.011724   
    121. D(H  19,C   6,C   5,P   3)    -51.5741         0.011724   
    122. D(H  22,C   7,C   5,P   3)    173.6393         0.011170   
    123. D(H  23,C   7,C   5,H  18)    -60.9849         0.011170   
    124. D(H  23,C   7,C   5,C   6)   -176.7823         0.011170   
    125. D(H  23,C   7,C   5,P   3)     53.7930         0.011170   
    126. D(H  22,C   7,C   5,H  18)     58.8613         0.011170   
    127. D(H  22,C   7,C   5,C   6)    -56.9360         0.011170   
    128. D(C  10,C   8,P   3,C   5)     52.3181         0.004343   
    129. D(C  10,C   8,P   3,O   4)    -68.1256         0.004343   
    130. D(C  10,C   8,P   3,C   1)    168.2750         0.004343   
    131. D(C   9,C   8,P   3,C   5)    174.5077         0.004343   
    132. D(C   9,C   8,P   3,O   4)     54.0639         0.004343   
    133. D(C   9,C   8,P   3,C   1)    -69.5355         0.004343   
    134. D(H  27,C   9,C   8,H  25)     60.0094         0.011153   
    135. D(H  27,C   9,C   8,C  10)    -56.1799         0.011153   
    136. D(H  27,C   9,C   8,P   3)    179.2816         0.011153   
    137. D(H  26,C   9,C   8,H  25)    -59.8972         0.011153   
    138. D(H  26,C   9,C   8,C  10)   -176.0864         0.011153   
    139. D(H  26,C   9,C   8,P   3)     59.3751         0.011153   
    140. D(H  30,C  10,C   8,H  25)    174.4676         0.011145   
    141. D(H  30,C  10,C   8,C   9)    -68.9077         0.011145   
    142. D(H  30,C  10,C   8,P   3)     55.3564         0.011145   
    143. D(H  29,C  10,C   8,H  25)     54.7886         0.011145   
    144. D(H  29,C  10,C   8,C   9)    171.4133         0.011145   
    145. D(H  29,C  10,C   8,P   3)    -64.3225         0.011145   
    -----------------------------------------------------------------

Number of atoms                         .... 32
Number of degrees of freedom            .... 145


         *************************************************************
         *                GEOMETRY OPTIMIZATION CYCLE   1            *
         *************************************************************
---------------------------------
CARTESIAN COORDINATES (ANGSTROEM)
---------------------------------
  C      0.137986    2.698474   -0.899314
  C     -0.550883    1.504274   -0.235986
  C     -0.708808    1.771934    1.257793
  P      0.235601   -0.072306   -0.676081
  O      0.946845    0.008041   -2.002126
  C     -1.080979   -1.323932   -0.749007
  C     -1.910985   -1.464712    0.519810
  C     -2.002777   -1.122849   -1.953038
  C      1.384110   -0.556247    0.644062
  C      2.607800    0.360061    0.702997
  C      1.871561   -1.998768    0.494505
  H      0.145316    2.580628   -1.987609
  H     -0.381359    3.634120   -0.667725
  H      1.177029    2.791171   -0.571614
  H     -1.560606    1.463772   -0.659558
  H      0.257095    1.946815    1.739500
  H     -1.328677    2.658588    1.429069
  H     -1.182219    0.931090    1.768628
  H     -0.569347   -2.279240   -0.913550
  H     -1.270897   -1.598466    1.395985
  H     -2.533748   -0.581010    0.686538
  H     -2.576395   -2.332155    0.454902
  H     -2.717394   -1.947580   -2.042626
  H     -1.421821   -1.077154   -2.879437
  H     -2.568029   -0.189878   -1.872039
  H      0.857691   -0.484476    1.601380
  H      2.317037    1.397709    0.878963
  H      3.284764    0.064203    1.511161
  H      3.164094    0.330829   -0.239664
  H      1.042894   -2.704225    0.599659
  H      2.322517   -2.158985   -0.490154
  H      2.612584   -2.249726    1.260630

----------------------------
CARTESIAN COORDINATES (A.U.)
----------------------------
  NO LB      ZA    FRAG     MASS         X           Y           Z
   0 C     6.0000    0    12.011    0.260756    5.099377   -1.699457
   1 C     6.0000    0    12.011   -1.041018    2.842666   -0.445949
   2 C     6.0000    0    12.011   -1.339453    3.348470    2.376884
   3 P    15.0000    0    30.974    0.445221   -0.136639   -1.277608
   4 O     8.0000    0    15.999    1.789278    0.015195   -3.783470
   5 C     6.0000    0    12.011   -2.042754   -2.501869   -1.415418
   6 C     6.0000    0    12.011   -3.611238   -2.767905    0.982299
   7 C     6.0000    0    12.011   -3.784700   -2.121877   -3.690707
   8 C     6.0000    0    12.011    2.615589   -1.051154    1.217101
   9 C     6.0000    0    12.011    4.928028    0.680417    1.328472
  10 C     6.0000    0    12.011    3.536738   -3.777124    0.934479
  11 H     1.0000    0     1.008    0.274607    4.876680   -3.756037
  12 H     1.0000    0     1.008   -0.720664    6.867492   -1.261817
  13 H     1.0000    0     1.008    2.224262    5.274549   -1.080194
  14 H     1.0000    0     1.008   -2.949118    2.766128   -1.246384
  15 H     1.0000    0     1.008    0.485839    3.678947    3.287179
  16 H     1.0000    0     1.008   -2.510836    5.024003    2.700549
  17 H     1.0000    0     1.008   -2.234070    1.759505    3.342223
  18 H     1.0000    0     1.008   -1.075910   -4.307139   -1.726359
  19 H     1.0000    0     1.008   -2.401647   -3.020663    2.638029
  20 H     1.0000    0     1.008   -4.788090   -1.097950    1.297369
  21 H     1.0000    0     1.008   -4.868681   -4.407134    0.859640
  22 H     1.0000    0     1.008   -5.135130   -3.680393   -3.860004
  23 H     1.0000    0     1.008   -2.686852   -2.035526   -5.441347
  24 H     1.0000    0     1.008   -4.852872   -0.358817   -3.537641
  25 H     1.0000    0     1.008    1.620801   -0.915527    3.026170
  26 H     1.0000    0     1.008    4.378565    2.641287    1.660999
  27 H     1.0000    0     1.008    6.207304    0.121326    2.855680
  28 H     1.0000    0     1.008    5.979271    0.625176   -0.452899
  29 H     1.0000    0     1.008    1.970784   -5.110245    1.133191
  30 H     1.0000    0     1.008    4.388921   -4.079890   -0.926257
  31 H     1.0000    0     1.008    4.937068   -4.251366    2.382245

--------------------------------
INTERNAL COORDINATES (ANGSTROEM)
--------------------------------
 C      0   0   0     0.000000000000     0.00000000     0.00000000
 C      1   0   0     1.529920970098     0.00000000     0.00000000
 C      2   1   0     1.525764687646   109.52110193     0.00000000
 P      2   1   3     1.815997023037   112.18380659   230.03727067
 O      4   2   1     1.506890510279   111.80097014   334.48547362
 C      4   2   1     1.818039807527   107.08408643   213.84495887
 C      6   4   2     1.522703368330   115.14839848   303.89892864
 C      6   4   2     1.529652435900   112.17734318    70.51528956
 C      4   2   1     1.815502507575   109.21861225    97.50512652
 C      9   4   2     1.529872838241   111.98481136   290.46452271
 C      9   4   2     1.529981244686   112.44478240   168.27498744
 H      1   2   3     1.094681421986   110.48887239   187.19615724
 H      1   2   3     1.094890922084   111.20778647   306.85041956
 H      1   2   3     1.093430555480   111.35226110    67.80568590
 H      2   1   3     1.095716289884   106.03200095   114.93163860
 H      3   2   1     1.093432029629   111.58827924   301.24049947
 H      3   2   1     1.095321122344   110.71228362    60.99854234
 H      3   2   1     1.091828285255   111.58257634   181.00382609
 H      6   4   2     1.096109062611   105.54591649   185.64482795
 H      7   6   4     1.093291091560   111.09819852   308.42592722
 H      7   6   4     1.093874400906   111.26266832    68.86936165
 H      7   6   4     1.095189880712   110.79495248   188.57628537
 H      8   6   4     1.094935929082   111.01977503   173.63932109
 H      8   6   4     1.094446441888   110.60188094    53.79302616
 H      8   6   4     1.093848960481   111.42252665   294.23220378
 H      9   4   2     1.094863367332   108.31018390    49.64702824
 H     10   9   4     1.091888514103   111.24768566    59.37506035
 H     10   9   4     1.094961763879   111.16881841   179.28159988
 H     10   9   4     1.094955380452   110.92940931   299.86060666
 H     11   9   4     1.093350785180   110.94480694   295.67748764
 H     11   9   4     1.094798678893   110.92395504    55.35644218
 H     11   9   4     1.095007999933   111.30276390   176.24250017

---------------------------
INTERNAL COORDINATES (A.U.)
---------------------------
 C      0   0   0     0.000000000000     0.00000000     0.00000000
 C      1   0   0     2.891131640028     0.00000000     0.00000000
 C      2   1   0     2.883277404458   109.52110193     0.00000000
 P      2   1   3     3.431737033557   112.18380659   230.03727067
 O      4   2   1     2.847610378233   111.80097014   334.48547362
 C      4   2   1     3.435597336793   107.08408643   213.84495887
 C      6   4   2     2.877492349344   115.14839848   303.89892864
 C      6   4   2     2.890624183936   112.17734318    70.51528956
 C      4   2   1     3.430802534764   109.21861225    97.50512652
 C      9   4   2     2.891040684001   111.98481136   290.46452271
 C      9   4   2     2.891245542493   112.44478240   168.27498744
 H      1   2   3     2.068648091445   110.48887239   187.19615724
 H      1   2   3     2.069043989255   111.20778647   306.85041956
 H      1   2   3     2.066284296319   111.35226110    67.80568590
 H      2   1   3     2.070603708357   106.03200095   114.93163860
 H      3   2   1     2.066287082057   111.58827924   301.24049947
 H      3   2   1     2.069856949929   110.71228362    60.99854234
 H      3   2   1     2.063256444400   111.58257634   181.00382609
 H      6   4   2     2.071345941243   105.54591649   185.64482795
 H      7   6   4     2.066020747705   111.09819852   308.42592722
 H      7   6   4     2.067123042619   111.26266832    68.86936165
 H      7   6   4     2.069608939187   110.79495248   188.57628537
 H      8   6   4     2.069129040155   111.01977503   173.63932109
 H      8   6   4     2.068204043413   110.60188094    53.79302616
 H      8   6   4     2.067074967184   111.42252665   294.23220378
 H      9   4   2     2.068991918321   108.31018390    49.64702824
 H     10   9   4     2.063370260428   111.24768566    59.37506035
 H     10   9   4     2.069177860846   111.16881841   179.28159988
 H     10   9   4     2.069165797918   110.92940931   299.86060666
 H     11   9   4     2.066133552298   110.94480694   295.67748764
 H     11   9   4     2.068869674887   110.92395504    55.35644218
 H     11   9   4     2.069265234327   111.30276390   176.24250017

---------------------
BASIS SET INFORMATION
---------------------
There are 4 groups of distinct atoms

 Group   1 Type C   : 7s4p1d contracted to 3s2p1d pattern {511/31/1}
 Group   2 Type P   : 10s7p1d contracted to 4s3p1d pattern {5311/511/1}
 Group   3 Type O   : 7s4p1d contracted to 3s2p1d pattern {511/31/1}
 Group   4 Type H   : 4s1p contracted to 2s1p pattern {31/1}

Atom   0C    basis set group =>   1
Atom   1C    basis set group =>   1
Atom   2C    basis set group =>   1
Atom   3P    basis set group =>   2
Atom   4O    basis set group =>   3
Atom   5C    basis set group =>   1
Atom   6C    basis set group =>   1
Atom   7C    basis set group =>   1
Atom   8C    basis set group =>   1
Atom   9C    basis set group =>   1
Atom  10C    basis set group =>   1
Atom  11H    basis set group =>   4
Atom  12H    basis set group =>   4
Atom  13H    basis set group =>   4
Atom  14H    basis set group =>   4
Atom  15H    basis set group =>   4
Atom  16H    basis set group =>   4
Atom  17H    basis set group =>   4
Atom  18H    basis set group =>   4
Atom  19H    basis set group =>   4
Atom  20H    basis set group =>   4
Atom  21H    basis set group =>   4
Atom  22H    basis set group =>   4
Atom  23H    basis set group =>   4
Atom  24H    basis set group =>   4
Atom  25H    basis set group =>   4
Atom  26H    basis set group =>   4
Atom  27H    basis set group =>   4
Atom  28H    basis set group =>   4
Atom  29H    basis set group =>   4
Atom  30H    basis set group =>   4
Atom  31H    basis set group =>   4
---------------------------------
AUXILIARY/J BASIS SET INFORMATION
---------------------------------
There are 4 groups of distinct atoms

 Group   1 Type C   : 12s5p4d2f1g contracted to 6s4p3d1f1g pattern {711111/2111/211/2/1}
 Group   2 Type P   : 14s5p5d2f1g contracted to 8s4p3d1f1g pattern {71111111/2111/311/2/1}
 Group   3 Type O   : 12s5p4d2f1g contracted to 6s4p3d1f1g pattern {711111/2111/211/2/1}
 Group   4 Type H   : 5s2p1d contracted to 3s1p1d pattern {311/2/1}

Atom   0C    basis set group =>   1
Atom   1C    basis set group =>   1
Atom   2C    basis set group =>   1
Atom   3P    basis set group =>   2
Atom   4O    basis set group =>   3
Atom   5C    basis set group =>   1
Atom   6C    basis set group =>   1
Atom   7C    basis set group =>   1
Atom   8C    basis set group =>   1
Atom   9C    basis set group =>   1
Atom  10C    basis set group =>   1
Atom  11H    basis set group =>   4
Atom  12H    basis set group =>   4
Atom  13H    basis set group =>   4
Atom  14H    basis set group =>   4
Atom  15H    basis set group =>   4
Atom  16H    basis set group =>   4
Atom  17H    basis set group =>   4
Atom  18H    basis set group =>   4
Atom  19H    basis set group =>   4
Atom  20H    basis set group =>   4
Atom  21H    basis set group =>   4
Atom  22H    basis set group =>   4
Atom  23H    basis set group =>   4
Atom  24H    basis set group =>   4
Atom  25H    basis set group =>   4
Atom  26H    basis set group =>   4
Atom  27H    basis set group =>   4
Atom  28H    basis set group =>   4
Atom  29H    basis set group =>   4
Atom  30H    basis set group =>   4
Atom  31H    basis set group =>   4


           ************************************************************
           *        Program running with 6 parallel MPI-processes     *
           *              working on a common directory               *
           ************************************************************
------------------------------------------------------------------------------
                             ORCA STARTUP CALCULATIONS
                           -- RI-GTO INTEGRALS CHOSEN --
------------------------------------------------------------------------------
------------------------------------------------------------------------------
                   ___                                                        
                  /   \      - P O W E R E D   B Y -                         
                 /     \                                                     
                 |  |  |   _    _      __       _____    __    __             
                 |  |  |  | |  | |    /  \     |  _  \  |  |  /  |          
                  \  \/   | |  | |   /    \    | | | |  |  | /  /          
                 / \  \   | |__| |  /  /\  \   | |_| |  |  |/  /          
                |  |  |   |  __  | /  /__\  \  |    /   |      \           
                |  |  |   | |  | | |   __   |  |    \   |  |\   \          
                \     /   | |  | | |  |  |  |  | |\  \  |  | \   \       
                 \___/    |_|  |_| |__|  |__|  |_| \__\ |__|  \__/        
                                                                              
                      - O R C A' S   B I G   F R I E N D -                    
                                      &                                       
                       - I N T E G R A L  F E E D E R -                       
                                                                              
 v1 FN, 2020, v2 2021, v3 2022-2024                                           
------------------------------------------------------------------------------


----------------------
SHARK INTEGRAL PACKAGE
----------------------

Number of atoms                             ...     32
Number of basis functions                   ...    263
Number of shells                            ...    131
Maximum angular momentum                    ...      2
Integral batch strategy                     ... SHARK/LIBINT Hybrid
RI-J (if used) integral strategy            ... SPLIT-RIJ (Revised 2003 algorithm where possible)
Printlevel                                  ...      1
Contraction scheme used                     ... SEGMENTED contraction
Prescreening option                         ... SCHWARTZ
   Thresh                                   ... 2.500e-11
   Tcut                                     ... 2.500e-12
   Tpresel                                  ... 2.500e-12 
Coulomb Range Separation                    ... NOT USED
Exchange Range Separation                   ... NOT USED
Multipole approximations                    ... NOT USED
Finite Nucleus Model                        ... NOT USED
CABS basis                                  ... NOT available
Auxiliary Coulomb fitting basis             ... AVAILABLE
   # of basis functions in Aux-J            ...    772
   # of shells in Aux-J                     ...    272
   Maximum angular momentum in Aux-J        ...      4
Auxiliary J/K fitting basis                 ... NOT available
Auxiliary Correlation fitting basis         ... NOT available
Auxiliary 'external' fitting basis          ... NOT available

Checking pre-screening integrals            ... done (  0.0 sec) Dimension = 131
Check shell pair data                       ... done (  0.0 sec)
Shell pair information
Shell pair cut-off parameter TPreSel        ...   2.5e-12
Total number of shell pairs                 ...      8646
Shell pairs after pre-screening             ...      7879
Total number of primitive shell pairs       ...     29862
Primitive shell pairs kept                  ...     18889
          la=0 lb=0:   2719 shell pairs
          la=1 lb=0:   3041 shell pairs
          la=1 lb=1:    854 shell pairs
          la=2 lb=0:    774 shell pairs
          la=2 lb=1:    429 shell pairs
          la=2 lb=2:     62 shell pairs

Calculating one electron integrals          ... done (  0.0 sec)
Calculating RI/J V-Matrix + Cholesky decomp.... done (  0.0 sec)
Calculating Nuclear repulsion               ... done (  0.0 sec) ENN=    845.809929449837 Eh

Diagonalization of the overlap matrix:
Smallest eigenvalue                        ... 1.746e-03
Time for diagonalization                   ...    0.009 sec
Threshold for overlap eigenvalues          ... 1.000e-07
Number of eigenvalues below threshold      ... 0
Time for construction of square roots      ...    0.006 sec
Total time needed                          ...    0.015 sec

-------------------
DFT GRID GENERATION
-------------------

General Integration Accuracy     IntAcc      ... 4.388
Radial Grid Type                 RadialGrid  ... OptM3 with GC (2021)
Angular Grid (max. ang.)         AngularGrid ... 4 (Lebedev-302)
Angular grid pruning method      GridPruning ... 4 (adaptive)
Weight generation scheme         WeightScheme... mBecke (2022)
Basis function cutoff            BFCut       ... 1.0000e-11
Integration weight cutoff        WCut        ... 1.0000e-14
Partially contracted basis set               ... off
Rotationally invariant grid construction     ... off
Angular grids for H and He will be reduced by one unit

Total number of grid points                  ...   133308
Total number of batches                      ...     2098
Average number of points per batch           ...       63
Average number of grid points per atom       ...     4166
Initializing property integral containers    ... done (  0.0 sec)

SHARK setup successfully completed in   0.9 seconds

Maximum memory used throughout the entire STARTUP-calculation: 38.0 MB


           ************************************************************
           *        Program running with 6 parallel MPI-processes     *
           *              working on a common directory               *
           ************************************************************
-------------------------------------------------------------------------------
                                 ORCA GUESS
                   Start orbitals & Density for SCF / CASSCF
-------------------------------------------------------------------------------

------------
SCF SETTINGS
------------
Hamiltonian:
 Density Functional     Method          .... DFT(GTOs)
 Exchange Functional    Exchange        .... B88
   X-Alpha parameter    XAlpha          ....  0.666667
   Becke's b parameter  XBeta           ....  0.004200
 Correlation Functional Correlation     .... P86
 LDA part of GGA corr.  LDAOpt          .... PW91-LDA
 Gradients option       PostSCFGGA      .... off
   NL short-range parameter             ....  4.400000
 RI-approximation to the Coulomb term is turned on
   Number of AuxJ basis functions       .... 772


General Settings:
 Integral files         IntName         .... data/geom_opt_PO_BP86/80969/80969
 Hartree-Fock type      HFTyp           .... RHF
 Total Charge           Charge          ....    0
 Multiplicity           Mult            ....    1
 Number of Electrons    NEL             ....   98
 Basis Dimension        Dim             ....  263
 Nuclear Repulsion      ENuc            ....    845.8099294498 Eh

Convergence Acceleration:
 AO-DIIS                CNVDIIS         .... on
   Start iteration      DIISMaxIt       ....    12
   Startup error        DIISStart       ....  0.200000
   # of expansion vecs  DIISMaxEq       ....     5
   Bias factor          DIISBfac        ....   1.050
   Max. coefficient     DIISMaxC        ....  10.000
 MO-DIIS                CNVKDIIS        .... off
 Trust-Rad. Augm. Hess. CNVTRAH         .... auto
   Auto Start mean grad. ratio tolernc. ....  1.125000
   Auto Start start iteration           ....    50
   Auto Start num. interpolation iter.  ....    10
   Max. Number of Micro iterations      ....    24
   Max. Number of Macro iterations      .... Maxiter - #DIIS iter
   Number of Davidson start vectors     ....     2
   Converg. threshold    (grad. norm)   ....   1.000e-05
   Grad. Scal. Fac. for Micro threshold ....   0.100
   Minimum threshold for Micro iter.    ....   1.000e-02
   NR start threshold (gradient norm)   ....   1.000e-04
   Initial trust radius                 ....   0.400
   Minimum AH scaling param. (alpha)    ....   1.000
   Maximum AH scaling param. (alpha)    .... 1000.000
   Quad. conv. algorithm                .... NR
   White noise on init. David. guess    .... on
   Maximum white noise                  ....   0.010
   Pseudo random numbers                .... off
   Inactive MOs                         .... canonical
   Orbital update algorithm             .... Taylor
   Preconditioner                       .... Diag
   Full preconditioner red. dimension   ....   250
 SOSCF                  CNVSOSCF        .... on
   Start iteration      SOSCFMaxIt      ....   150
   Startup grad/error   SOSCFStart      ....  0.003300
   Hessian update       SOSCFHessUp     .... L-BFGS
 Level Shifting         CNVShift        .... on
   Level shift para.    LevelShift      ....    0.2500
   Turn off err/grad.   ShiftErr        ....    0.0010
 Zerner damping         CNVZerner       .... off
 Static damping         CNVDamp         .... on
   Fraction old density DampFac         ....    0.7000
   Max. Damping (<1)    DampMax         ....    0.9800
   Min. Damping (>=0)   DampMin         ....    0.0000
   Turn off err/grad.   DampErr         ....    0.1000

SCF Procedure:
 Maximum # iterations   MaxIter         ....   125
 SCF integral mode      SCFMode         .... Direct
   Integral package                     .... SHARK and LIBINT hybrid scheme
 Reset frequency        DirectResetFreq ....    20
 Integral Threshold     Thresh          ....  2.500e-11 Eh
 Primitive CutOff       TCut            ....  2.500e-12 Eh

Convergence Tolerance:
 Convergence Check Mode ConvCheckMode   .... Total+1el-Energy
 Convergence forced     ConvForced      .... 0
 Energy Change          TolE            ....  1.000e-08 Eh
 1-El. energy change                    ....  1.000e-05 Eh
 Orbital Gradient       TolG            ....  1.000e-05
 Orbital Rotation angle TolX            ....  1.000e-05
 DIIS Error             TolErr          ....  5.000e-07

------------------------------
INITIAL GUESS: MODEL POTENTIAL
------------------------------
Loading Hartree-Fock densities                     ... done
Calculating cut-offs                               ... done
Initializing the effective Hamiltonian             ... done
Setting up the integral package (SHARK)            ... done
Starting the Coulomb interaction                   ... done (   0.1 sec)
Making the grid                                    ... done (   0.2 sec)
Mapping shells                                     ... done
Starting the XC term evaluation                    ... done (   0.1 sec)
  promolecular density results
     # of electrons  =     97.997635975
     EX              =    -83.431851535
     EC              =     -3.637322042
     EX+EC           =    -87.069173577
Transforming the Hamiltonian                       ... done (   0.0 sec)
Diagonalizing the Hamiltonian                      ... done (   0.0 sec)
Back transforming the eigenvectors                 ... done (   0.0 sec)
Now organizing SCF variables                       ... done
                      ------------------
                      INITIAL GUESS DONE (   0.4 sec)
                      ------------------
             **** ENERGY FILE WAS UPDATED (data/geom_opt_PO_BP86/80969/80969.en.tmp) ****
Finished Guess after   0.5 sec
Maximum memory used throughout the entire GUESS-calculation: 20.6 MB


           ************************************************************
           *        Program running with 6 parallel MPI-processes     *
           *              working on a common directory               *
           ************************************************************

-------------------------------------------------------------------------------------------
                                      ORCA LEAN-SCF
                              memory conserving SCF solver
-------------------------------------------------------------------------------------------

----------------------------------------D-I-I-S--------------------------------------------
Iteration    Energy (Eh)           Delta-E    RMSDP     MaxDP     DIISErr   Damp  Time(sec)
-------------------------------------------------------------------------------------------
               ***  Starting incremental Fock matrix formation  ***
    1    -771.3579441492411206     0.00e+00  4.42e-03  1.73e-01  3.36e-01  0.700   0.7
    2    -771.5850023940658957    -2.27e-01  2.66e-03  9.94e-02  8.53e-02  0.700   0.8
                               ***Turning on AO-DIIS***
    3    -771.6538093351507541    -6.88e-02  8.28e-04  2.15e-02  2.44e-02  0.700   0.9
    4    -771.6994900517529459    -4.57e-02  1.30e-03  3.91e-02  9.45e-03  0.000   0.7
    5    -771.8039880103196992    -1.04e-01  3.60e-04  8.68e-03  8.60e-03  0.000   0.6
                              *** Initializing SOSCF ***
---------------------------------------S-O-S-C-F--------------------------------------
Iteration    Energy (Eh)           Delta-E    RMSDP     MaxDP     MaxGrad    Time(sec)
--------------------------------------------------------------------------------------
    6    -771.8051272775433063    -1.14e-03  1.30e-04  2.98e-03  1.93e-03     0.7
               *** Restarting incremental Fock matrix formation ***
    7    -771.8052073315534471    -8.01e-05  9.44e-05  1.79e-03  2.29e-04     0.6
    8    -771.8052067601156523     5.71e-07  3.63e-05  1.05e-03  2.62e-04     0.5
    9    -771.8052150489095311    -8.29e-06  4.24e-05  1.76e-03  1.77e-04     0.6
   10    -771.8052130415592273     2.01e-06  2.40e-05  9.99e-04  3.67e-04     0.5
   11    -771.8052160002996516    -2.96e-06  5.67e-06  1.93e-04  1.88e-05     0.5
   12    -771.8052159879014198     1.24e-08  2.63e-06  1.11e-04  1.79e-05     0.5
   13    -771.8052160341492254    -4.62e-08  1.44e-06  4.06e-05  3.53e-06     0.5
   14    -771.8052160443239700    -1.02e-08  7.68e-07  1.68e-05  4.55e-06     0.5
   15    -771.8052160411698424     3.15e-09  2.63e-07  1.13e-05  6.60e-07     0.5
                 **** Energy Check signals convergence ****

               *****************************************************
               *                     SUCCESS                       *
               *           SCF CONVERGED AFTER  15 CYCLES          *
               *****************************************************

             **** ENERGY FILE WAS UPDATED (data/geom_opt_PO_BP86/80969/80969.en.tmp) ****

----------------
TOTAL SCF ENERGY
----------------

Total Energy       :       -771.80521604116984 Eh          -21001.88764 eV

Components:
Nuclear Repulsion  :        845.80992944983677 Eh           23015.65827 eV
Electronic Energy  :      -1617.61514549100661 Eh          -44017.54592 eV
One Electron Energy:      -2733.72524297955943 Eh          -74388.44570 eV
Two Electron Energy:       1116.11009748855281 Eh           30370.89978 eV

Virial components:
Potential Energy   :      -1537.41618388823281 Eh          -41835.22123 eV
Kinetic Energy     :        765.61096784706297 Eh           20833.33358 eV
Virial Ratio       :          2.00809059490295

DFT components:
N(Alpha)           :       49.000112028566 electrons
N(Beta)            :       49.000112028566 electrons
N(Total)           :       98.000224057131 electrons
E(X)               :      -85.022986302762 Eh       
E(C)               :       -3.625408613110 Eh       
E(XC)              :      -88.648394915872 Eh       

---------------
SCF CONVERGENCE
---------------

  Last Energy change         ...   -3.1541e-09  Tolerance :   1.0000e-08
  Last MAX-Density change    ...    1.1285e-05  Tolerance :   1.0000e-07
  Last RMS-Density change    ...    2.6255e-07  Tolerance :   5.0000e-09
  Last DIIS Error            ...    1.9327e-03  Tolerance :   5.0000e-07
  Last Orbital Gradient      ...    6.5970e-07  Tolerance :   1.0000e-05
  Last Orbital Rotation      ...    1.6894e-06  Tolerance :   1.0000e-05


----------------
ORBITAL ENERGIES
----------------

  NO   OCC          E(Eh)            E(eV) 
   0   2.0000     -76.391411     -2078.7160 
   1   2.0000     -18.695341      -508.7261 
   2   2.0000      -9.921367      -269.9741 
   3   2.0000      -9.921272      -269.9715 
   4   2.0000      -9.920647      -269.9545 
   5   2.0000      -9.917135      -269.8590 
   6   2.0000      -9.915634      -269.8181 
   7   2.0000      -9.910654      -269.6826 
   8   2.0000      -9.908663      -269.6284 
   9   2.0000      -9.907819      -269.6055 
  10   2.0000      -9.903722      -269.4940 
  11   2.0000      -6.352923      -172.8718 
  12   2.0000      -4.573941      -124.4633 
  13   2.0000      -4.573834      -124.4603 
  14   2.0000      -4.573710      -124.4570 
  15   2.0000      -0.840063       -22.8593 
  16   2.0000      -0.737514       -20.0688 
  17   2.0000      -0.718303       -19.5460 
  18   2.0000      -0.716581       -19.4992 
  19   2.0000      -0.623462       -16.9653 
  20   2.0000      -0.618777       -16.8378 
  21   2.0000      -0.616883       -16.7862 
  22   2.0000      -0.584541       -15.9062 
  23   2.0000      -0.533566       -14.5191 
  24   2.0000      -0.529296       -14.4029 
  25   2.0000      -0.461107       -12.5474 
  26   2.0000      -0.437517       -11.9054 
  27   2.0000      -0.428767       -11.6673 
  28   2.0000      -0.414387       -11.2760 
  29   2.0000      -0.396288       -10.7835 
  30   2.0000      -0.392816       -10.6891 
  31   2.0000      -0.377959       -10.2848 
  32   2.0000      -0.372619       -10.1395 
  33   2.0000      -0.364426        -9.9165 
  34   2.0000      -0.360629        -9.8132 
  35   2.0000      -0.350086        -9.5263 
  36   2.0000      -0.347896        -9.4667 
  37   2.0000      -0.341542        -9.2938 
  38   2.0000      -0.318501        -8.6669 
  39   2.0000      -0.317332        -8.6350 
  40   2.0000      -0.313691        -8.5360 
  41   2.0000      -0.309158        -8.4126 
  42   2.0000      -0.303729        -8.2649 
  43   2.0000      -0.302394        -8.2286 
  44   2.0000      -0.286499        -7.7960 
  45   2.0000      -0.280990        -7.6461 
  46   2.0000      -0.275666        -7.5013 
  47   2.0000      -0.200511        -5.4562 
  48   2.0000      -0.199631        -5.4322 
  49   0.0000       0.018032         0.4907 
  50   0.0000       0.027998         0.7619 
  51   0.0000       0.034573         0.9408 
  52   0.0000       0.043433         1.1819 
  53   0.0000       0.058651         1.5960 
  54   0.0000       0.071048         1.9333 
  55   0.0000       0.076382         2.0784 
  56   0.0000       0.080635         2.1942 
  57   0.0000       0.082733         2.2513 
  58   0.0000       0.092835         2.5262 
  59   0.0000       0.099082         2.6962 
*Only the first 10 virtual orbitals were printed.

                    ********************************
                    * MULLIKEN POPULATION ANALYSIS *
                    ********************************

-----------------------
MULLIKEN ATOMIC CHARGES
-----------------------
   0 C :    0.019338
   1 C :   -0.248960
   2 C :    0.007894
   3 P :    0.475274
   4 O :   -0.471052
   5 C :   -0.240738
   6 C :   -0.001647
   7 C :    0.010633
   8 C :   -0.226460
   9 C :    0.011893
  10 C :   -0.000668
  11 H :    0.045903
  12 H :    0.020033
  13 H :    0.024674
  14 H :    0.041800
  15 H :    0.027115
  16 H :    0.029505
  17 H :    0.019831
  18 H :    0.049786
  19 H :    0.028000
  20 H :    0.033177
  21 H :    0.029907
  22 H :    0.025632
  23 H :    0.049217
  24 H :    0.019010
  25 H :    0.028301
  26 H :    0.020462
  27 H :    0.025671
  28 H :    0.047233
  29 H :    0.023340
  30 H :    0.048712
  31 H :    0.027185
Sum of atomic charges:   -0.0000000

--------------------------------
MULLIKEN REDUCED ORBITAL CHARGES
--------------------------------
  0 C s       :     2.985208  s :     2.985208
      pz      :     1.028403  p :     2.969052
      px      :     1.001099
      py      :     0.939550
      dz2     :     0.008211  d :     0.026402
      dxz     :     0.002612
      dyz     :     0.003170
      dx2y2   :     0.006816
      dxy     :     0.005593

  1 C s       :     3.118548  s :     3.118548
      pz      :     1.012748  p :     3.094249
      px      :     1.053947
      py      :     1.027554
      dz2     :     0.008722  d :     0.036163
      dxz     :     0.007333
      dyz     :     0.007222
      dx2y2   :     0.007298
      dxy     :     0.005588

  2 C s       :     2.978750  s :     2.978750
      pz      :     0.962597  p :     2.986334
      px      :     1.016106
      py      :     1.007631
      dz2     :     0.005886  d :     0.027023
      dxz     :     0.006580
      dyz     :     0.005650
      dx2y2   :     0.003430
      dxy     :     0.005476

  3 P s       :     5.290234  s :     5.290234
      pz      :     2.858226  p :     8.758279
      px      :     2.926842
      py      :     2.973211
      dz2     :     0.119921  d :     0.476214
      dxz     :     0.112265
      dyz     :     0.095212
      dx2y2   :     0.047816
      dxy     :     0.100999

  4 O s       :     3.817523  s :     3.817523
      pz      :     1.412732  p :     4.641521
      px      :     1.580784
      py      :     1.648004
      dz2     :     0.004009  d :     0.012008
      dxz     :     0.003703
      dyz     :     0.002686
      dx2y2   :     0.000849
      dxy     :     0.000761

  5 C s       :     3.127209  s :     3.127209
      pz      :     1.010051  p :     3.077221
      px      :     1.010447
      py      :     1.056723
      dz2     :     0.010079  d :     0.036308
      dxz     :     0.008560
      dyz     :     0.004918
      dx2y2   :     0.003359
      dxy     :     0.009392

  6 C s       :     2.994631  s :     2.994631
      pz      :     0.974284  p :     2.979962
      px      :     0.992598
      py      :     1.013080
      dz2     :     0.006876  d :     0.027054
      dxz     :     0.007356
      dyz     :     0.002464
      dx2y2   :     0.001805
      dxy     :     0.008554

  7 C s       :     2.990301  s :     2.990301
      pz      :     0.992310  p :     2.972696
      px      :     0.981582
      py      :     0.998805
      dz2     :     0.007160  d :     0.026371
      dxz     :     0.006651
      dyz     :     0.001801
      dx2y2   :     0.002086
      dxy     :     0.008673

  8 C s       :     3.107574  s :     3.107574
      pz      :     1.034102  p :     3.082710
      px      :     1.008461
      py      :     1.040148
      dz2     :     0.005594  d :     0.036176
      dxz     :     0.009322
      dyz     :     0.005062
      dx2y2   :     0.007991
      dxy     :     0.008207

  9 C s       :     2.990895  s :     2.990895
      pz      :     1.019495  p :     2.970689
      px      :     0.967616
      py      :     0.983578
      dz2     :     0.004659  d :     0.026523
      dxz     :     0.008640
      dyz     :     0.001774
      dx2y2   :     0.006615
      dxy     :     0.004835

 10 C s       :     3.001567  s :     3.001567
      pz      :     1.025031  p :     2.972525
      px      :     1.000889
      py      :     0.946605
      dz2     :     0.005317  d :     0.026576
      dxz     :     0.006223
      dyz     :     0.003438
      dx2y2   :     0.003799
      dxy     :     0.007798

 11 H s       :     0.931080  s :     0.931080
      pz      :     0.013052  p :     0.023018
      px      :     0.005077
      py      :     0.004888

 12 H s       :     0.957057  s :     0.957057
      pz      :     0.005695  p :     0.022910
      px      :     0.006787
      py      :     0.010427

 13 H s       :     0.952039  s :     0.952039
      pz      :     0.006005  p :     0.023287
      px      :     0.012362
      py      :     0.004920

 14 H s       :     0.935617  s :     0.935617
      pz      :     0.005905  p :     0.022583
      px      :     0.011852
      py      :     0.004826

 15 H s       :     0.949677  s :     0.949677
      pz      :     0.005948  p :     0.023208
      px      :     0.011462
      py      :     0.005799

 16 H s       :     0.947689  s :     0.947689
      pz      :     0.004531  p :     0.022805
      px      :     0.007890
      py      :     0.010385

 17 H s       :     0.956730  s :     0.956730
      pz      :     0.006264  p :     0.023438
      px      :     0.007213
      py      :     0.009961

 18 H s       :     0.927923  s :     0.927923
      pz      :     0.004693  p :     0.022291
      px      :     0.006521
      py      :     0.011077

 19 H s       :     0.948880  s :     0.948880
      pz      :     0.009740  p :     0.023120
      px      :     0.007649
      py      :     0.005731

 20 H s       :     0.943768  s :     0.943768
      pz      :     0.004973  p :     0.023055
      px      :     0.007660
      py      :     0.010421

 21 H s       :     0.947204  s :     0.947204
      pz      :     0.004659  p :     0.022888
      px      :     0.008024
      py      :     0.010205

 22 H s       :     0.951399  s :     0.951399
      pz      :     0.004919  p :     0.022968
      px      :     0.008387
      py      :     0.009662

 23 H s       :     0.927663  s :     0.927663
      pz      :     0.010186  p :     0.023119
      px      :     0.007627
      py      :     0.005306

 24 H s       :     0.957648  s :     0.957648
      pz      :     0.004890  p :     0.023342
      px      :     0.007406
      py      :     0.011045

 25 H s       :     0.949797  s :     0.949797
      pz      :     0.011091  p :     0.021902
      px      :     0.006477
      py      :     0.004334

 26 H s       :     0.955899  s :     0.955899
      pz      :     0.006101  p :     0.023639
      px      :     0.005394
      py      :     0.012143

 27 H s       :     0.951415  s :     0.951415
      pz      :     0.009535  p :     0.022914
      px      :     0.007806
      py      :     0.005573

 28 H s       :     0.929734  s :     0.929734
      pz      :     0.011732  p :     0.023033
      px      :     0.006377
      py      :     0.004924

 29 H s       :     0.953381  s :     0.953381
      pz      :     0.005861  p :     0.023279
      px      :     0.009623
      py      :     0.007794

 30 H s       :     0.928273  s :     0.928273
      pz      :     0.012019  p :     0.023015
      px      :     0.006563
      py      :     0.004433

 31 H s       :     0.949865  s :     0.949865
      pz      :     0.009081  p :     0.022950
      px      :     0.009009
      py      :     0.004859



                     *******************************
                     * LOEWDIN POPULATION ANALYSIS *
                     *******************************

----------------------
LOEWDIN ATOMIC CHARGES
----------------------
   0 C :   -0.060524
   1 C :   -0.190467
   2 C :   -0.067688
   3 P :    0.874881
   4 O :   -0.507371
   5 C :   -0.186621
   6 C :   -0.069645
   7 C :   -0.063394
   8 C :   -0.187395
   9 C :   -0.062385
  10 C :   -0.063991
  11 H :    0.034583
  12 H :    0.025141
  13 H :    0.025733
  14 H :    0.032064
  15 H :    0.025710
  16 H :    0.030815
  17 H :    0.021182
  18 H :    0.035574
  19 H :    0.022202
  20 H :    0.025344
  21 H :    0.031172
  22 H :    0.028629
  23 H :    0.035056
  24 H :    0.020990
  25 H :    0.022165
  26 H :    0.019841
  27 H :    0.028489
  28 H :    0.035299
  29 H :    0.021638
  30 H :    0.033246
  31 H :    0.029728

-------------------------------
LOEWDIN REDUCED ORBITAL CHARGES
-------------------------------
  0 C s       :     2.839791  s :     2.839791
      pz      :     1.068832  p :     3.150286
      px      :     1.058554
      py      :     1.022899
      dz2     :     0.021509  d :     0.070448
      dxz     :     0.006794
      dyz     :     0.009117
      dx2y2   :     0.017873
      dxy     :     0.015155

  1 C s       :     2.887482  s :     2.887482
      pz      :     1.047334  p :     3.215215
      px      :     1.084174
      py      :     1.083707
      dz2     :     0.023122  d :     0.087770
      dxz     :     0.016113
      dyz     :     0.016144
      dx2y2   :     0.017988
      dxy     :     0.014403

  2 C s       :     2.838008  s :     2.838008
      pz      :     1.017955  p :     3.157433
      px      :     1.071441
      py      :     1.068037
      dz2     :     0.017951  d :     0.072247
      dxz     :     0.015659
      dyz     :     0.014375
      dx2y2   :     0.009191
      dxy     :     0.015072

  3 P s       :     4.943659  s :     4.943659
      pz      :     2.800378  p :     8.511456
      px      :     2.843945
      py      :     2.867133
      dz2     :     0.169864  d :     0.670005
      dxz     :     0.162326
      dyz     :     0.129131
      dx2y2   :     0.061649
      dxy     :     0.147035

  4 O s       :     3.654606  s :     3.654606
      pz      :     1.527948  p :     4.834071
      px      :     1.629788
      py      :     1.676335
      dz2     :     0.006735  d :     0.018694
      dxz     :     0.006731
      dyz     :     0.003179
      dx2y2   :     0.001156
      dxy     :     0.000893

  5 C s       :     2.889055  s :     2.889055
      pz      :     1.043413  p :     3.209005
      px      :     1.070003
      py      :     1.095589
      dz2     :     0.023534  d :     0.088560
      dxz     :     0.023888
      dyz     :     0.009419
      dx2y2   :     0.007947
      dxy     :     0.023772

  6 C s       :     2.838452  s :     2.838452
      pz      :     1.032789  p :     3.158780
      px      :     1.053754
      py      :     1.072236
      dz2     :     0.018451  d :     0.072413
      dxz     :     0.021392
      dyz     :     0.005279
      dx2y2   :     0.004654
      dxy     :     0.022638

  7 C s       :     2.839776  s :     2.839776
      pz      :     1.039185  p :     3.153256
      px      :     1.048132
      py      :     1.065939
      dz2     :     0.018830  d :     0.070363
      dxz     :     0.019870
      dyz     :     0.003740
      dx2y2   :     0.005604
      dxy     :     0.022319

  8 C s       :     2.888212  s :     2.888212
      pz      :     1.091356  p :     3.211213
      px      :     1.067471
      py      :     1.052386
      dz2     :     0.015504  d :     0.087971
      dxz     :     0.023242
      dyz     :     0.009793
      dx2y2   :     0.018401
      dxy     :     0.021032

  9 C s       :     2.839200  s :     2.839200
      pz      :     1.079867  p :     3.152553
      px      :     1.030674
      py      :     1.042013
      dz2     :     0.013246  d :     0.070632
      dxz     :     0.021889
      dyz     :     0.004156
      dx2y2   :     0.016362
      dxy     :     0.014979

 10 C s       :     2.839857  s :     2.839857
      pz      :     1.079789  p :     3.153404
      px      :     1.062103
      py      :     1.011512
      dz2     :     0.015087  d :     0.070729
      dxz     :     0.016602
      dyz     :     0.007308
      dx2y2   :     0.011114
      dxy     :     0.020619

 11 H s       :     0.897696  s :     0.897696
      pz      :     0.041664  p :     0.067721
      px      :     0.012813
      py      :     0.013244

 12 H s       :     0.908618  s :     0.908618
      pz      :     0.014738  p :     0.066241
      px      :     0.018764
      py      :     0.032739

 13 H s       :     0.907415  s :     0.907415
      pz      :     0.015762  p :     0.066852
      px      :     0.038157
      py      :     0.012932

 14 H s       :     0.895103  s :     0.895103
      pz      :     0.018463  p :     0.072833
      px      :     0.038250
      py      :     0.016121

 15 H s       :     0.907116  s :     0.907116
      pz      :     0.018590  p :     0.067173
      px      :     0.034546
      py      :     0.014037

 16 H s       :     0.902848  s :     0.902848
      pz      :     0.013932  p :     0.066336
      px      :     0.021495
      py      :     0.030910

 17 H s       :     0.910716  s :     0.910716
      pz      :     0.019933  p :     0.068102
      px      :     0.018815
      py      :     0.029354

 18 H s       :     0.891818  s :     0.891818
      pz      :     0.015085  p :     0.072608
      px      :     0.020545
      py      :     0.036978

 19 H s       :     0.910555  s :     0.910555
      pz      :     0.031039  p :     0.067243
      px      :     0.022387
      py      :     0.013817

 20 H s       :     0.907626  s :     0.907626
      pz      :     0.013890  p :     0.067030
      px      :     0.022391
      py      :     0.030749

 21 H s       :     0.902417  s :     0.902417
      pz      :     0.013228  p :     0.066411
      px      :     0.023395
      py      :     0.029787

 22 H s       :     0.905089  s :     0.905089
      pz      :     0.013701  p :     0.066282
      px      :     0.024702
      py      :     0.027880

 23 H s       :     0.896725  s :     0.896725
      pz      :     0.033552  p :     0.068219
      px      :     0.021836
      py      :     0.012831

 24 H s       :     0.912160  s :     0.912160
      pz      :     0.013629  p :     0.066851
      px      :     0.020408
      py      :     0.032814

 25 H s       :     0.903476  s :     0.903476
      pz      :     0.038249  p :     0.074360
      px      :     0.021123
      py      :     0.014988

 26 H s       :     0.912419  s :     0.912419
      pz      :     0.014362  p :     0.067739
      px      :     0.015323
      py      :     0.038055

 27 H s       :     0.905358  s :     0.905358
      pz      :     0.027696  p :     0.066154
      px      :     0.023815
      py      :     0.014642

 28 H s       :     0.897006  s :     0.897006
      pz      :     0.035286  p :     0.067695
      px      :     0.019645
      py      :     0.012764

 29 H s       :     0.911164  s :     0.911164
      pz      :     0.013931  p :     0.067199
      px      :     0.028362
      py      :     0.024905

 30 H s       :     0.899220  s :     0.899220
      pz      :     0.036653  p :     0.067534
      px      :     0.017591
      py      :     0.013290

 31 H s       :     0.904085  s :     0.904085
      pz      :     0.026149  p :     0.066187
      px      :     0.025761
      py      :     0.014277



                      *****************************
                      * MAYER POPULATION ANALYSIS *
                      *****************************

  NA   - Mulliken gross atomic population
  ZA   - Total nuclear charge
  QA   - Mulliken gross atomic charge
  VA   - Mayer's total valence
  BVA  - Mayer's bonded valence
  FA   - Mayer's free valence

  ATOM       NA         ZA         QA         VA         BVA        FA
  0 C      5.9807     6.0000     0.0193     3.9907     3.9907    -0.0000
  1 C      6.2490     6.0000    -0.2490     4.0158     4.0158    -0.0000
  2 C      5.9921     6.0000     0.0079     3.9691     3.9691    -0.0000
  3 P     14.5247    15.0000     0.4753     4.8216     4.8216    -0.0000
  4 O      8.4711     8.0000    -0.4711     2.1274     2.1274    -0.0000
  5 C      6.2407     6.0000    -0.2407     4.0391     4.0391    -0.0000
  6 C      6.0016     6.0000    -0.0016     3.9396     3.9396    -0.0000
  7 C      5.9894     6.0000     0.0106     3.9761     3.9761    -0.0000
  8 C      6.2265     6.0000    -0.2265     4.0432     4.0432    -0.0000
  9 C      5.9881     6.0000     0.0119     3.9738     3.9738    -0.0000
 10 C      6.0007     6.0000    -0.0007     3.9720     3.9720    -0.0000
 11 H      0.9541     1.0000     0.0459     1.0103     1.0103    -0.0000
 12 H      0.9800     1.0000     0.0200     0.9875     0.9875     0.0000
 13 H      0.9753     1.0000     0.0247     1.0086     1.0086    -0.0000
 14 H      0.9582     1.0000     0.0418     0.9815     0.9815    -0.0000
 15 H      0.9729     1.0000     0.0271     1.0044     1.0044     0.0000
 16 H      0.9705     1.0000     0.0295     0.9887     0.9887    -0.0000
 17 H      0.9802     1.0000     0.0198     1.0069     1.0069    -0.0000
 18 H      0.9502     1.0000     0.0498     0.9857     0.9857     0.0000
 19 H      0.9720     1.0000     0.0280     0.9963     0.9963     0.0000
 20 H      0.9668     1.0000     0.0332     0.9985     0.9985    -0.0000
 21 H      0.9701     1.0000     0.0299     0.9893     0.9893    -0.0000
 22 H      0.9744     1.0000     0.0256     0.9890     0.9890     0.0000
 23 H      0.9508     1.0000     0.0492     1.0139     1.0139     0.0000
 24 H      0.9810     1.0000     0.0190     1.0038     1.0038    -0.0000
 25 H      0.9717     1.0000     0.0283     0.9807     0.9807    -0.0000
 26 H      0.9795     1.0000     0.0205     1.0042     1.0042    -0.0000
 27 H      0.9743     1.0000     0.0257     0.9889     0.9889    -0.0000
 28 H      0.9528     1.0000     0.0472     1.0133     1.0133    -0.0000
 29 H      0.9767     1.0000     0.0233     0.9944     0.9944    -0.0000
 30 H      0.9513     1.0000     0.0487     1.0086     1.0086    -0.0000
 31 H      0.9728     1.0000     0.0272     0.9915     0.9915     0.0000

  Mayer bond orders larger than 0.100000
B(  0-C ,  1-C ) :   1.0628 B(  0-C , 11-H ) :   0.9518 B(  0-C , 12-H ) :   0.9575 
B(  0-C , 13-H ) :   0.9633 B(  1-C ,  2-C ) :   1.0543 B(  1-C ,  3-P ) :   0.8872 
B(  1-C , 14-H ) :   0.8992 B(  2-C , 15-H ) :   0.9540 B(  2-C , 16-H ) :   0.9514 
B(  2-C , 17-H ) :   0.9525 B(  3-P ,  4-O ) :   1.8932 B(  3-P ,  5-C ) :   0.9187 
B(  3-P ,  8-C ) :   0.9121 B(  5-C ,  6-C ) :   1.0350 B(  5-C ,  7-C ) :   1.0669 
B(  5-C , 18-H ) :   0.8961 B(  6-C , 19-H ) :   0.9581 B(  6-C , 20-H ) :   0.9577 
B(  6-C , 21-H ) :   0.9504 B(  7-C , 22-H ) :   0.9575 B(  7-C , 23-H ) :   0.9514 
B(  7-C , 24-H ) :   0.9612 B(  8-C ,  9-C ) :   1.0664 B(  8-C , 10-C ) :   1.0658 
B(  8-C , 25-H ) :   0.8806 B(  9-C , 26-H ) :   0.9530 B(  9-C , 27-H ) :   0.9555 
B(  9-C , 28-H ) :   0.9573 B( 10-C , 29-H ) :   0.9550 B( 10-C , 30-H ) :   0.9604 
B( 10-C , 31-H ) :   0.9572 

-------
TIMINGS
-------

Total SCF time: 0 days 0 hours 0 min 9 sec 

Total time                  ....       9.378 sec
Sum of individual times     ....       9.320 sec  ( 99.4%)

SCF preparation             ....       0.092 sec  (  1.0%)
Fock matrix formation       ....       8.603 sec  ( 91.7%)
  Startup                   ....       0.039 sec  (  0.5% of F)
  Split-RI-J                ....       2.681 sec  ( 31.2% of F)
  XC integration            ....       5.701 sec  ( 66.3% of F)
    Basis function eval.    ....       1.755 sec  ( 30.8% of XC)
    Density eval.           ....       1.588 sec  ( 27.9% of XC)
    XC-Functional eval.     ....       0.152 sec  (  2.7% of XC)
    XC-Potential eval.      ....       1.290 sec  ( 22.6% of XC)
Diagonalization             ....       0.000 sec  (  0.0%)
Density matrix formation    ....       0.095 sec  (  1.0%)
Total Energy calculation    ....       0.038 sec  (  0.4%)
Population analysis         ....       0.045 sec  (  0.5%)
Orbital Transformation      ....       0.046 sec  (  0.5%)
Orbital Orthonormalization  ....       0.000 sec  (  0.0%)
DIIS solution               ....       0.222 sec  (  2.4%)
SOSCF solution              ....       0.179 sec  (  1.9%)
Finished LeanSCF after   9.4 sec

Maximum memory used throughout the entire LEANSCF-calculation: 28.6 MB


-------------------------------------------------------------------------------
                          DFT DISPERSION CORRECTION                            
                                                                               
                              DFTD3 V3.1  Rev 1                                
                          USING Becke-Johnson damping                          
-------------------------------------------------------------------------------
The BP86 functional is recognized
Active option DFTDOPT                   ...         4   

molecular C6(AA) [au] = 8256.479212 


            DFT-D V3
 parameters
 s6 scaling factor         :     1.0000 
 a1 scaling factor         :     0.3946 
 s8 scaling factor         :     3.2822 
 a2 scaling factor         :     4.8516 
 ad hoc parameters k1-k3   :    16.0000     1.3333    -4.0000 

 Edisp/kcal,au: -37.769984542068  -0.060190295245 
 E6   /kcal   : -14.400747056 
 E8   /kcal   : -23.369237486 
 % E8         :  61.872510061 

-------------------------   ----------------
Dispersion correction           -0.060190295
-------------------------   ----------------


-------------------------   --------------------
FINAL SINGLE POINT ENERGY      -771.865406336415
-------------------------   --------------------



           ************************************************************
           *        Program running with 6 parallel MPI-processes     *
           *              working on a common directory               *
           ************************************************************
------------------------------------------------------------------------------
                         ORCA SCF GRADIENT CALCULATION
------------------------------------------------------------------------------

Nuc. rep. gradient        (SHARK) ... done (  0.0 sec)
HCore & Overlap gradient  (SHARK) ... done (  0.2 sec)
Split-RIJ-J gradient      (SHARK) ... done (  0.6 sec)
XC gradient                       ... done (  3.0 sec)
Dispersion correction             ... done (  0.1 sec)

-------------------
DISPERSION GRADIENT
-------------------

   1   C   :   -0.000062607    0.000791876   -0.000297947
   2   C   :   -0.000205227    0.000794692   -0.000034102
   3   C   :   -0.000334712    0.000713163    0.000551390
   4   P   :    0.000238904   -0.000128226   -0.000706958
   5   O   :    0.000334655    0.000001389   -0.000800203
   6   C   :   -0.000510424   -0.000509383   -0.000324044
[...]
      dyz     :     0.003023
      dx2y2   :     0.001121
      dxy     :     0.000861

  5 C s       :     2.903390  s :     2.903390
      pz      :     1.041857  p :     3.197421
      px      :     1.063824
      py      :     1.091740
      dz2     :     0.023539  d :     0.085465
      dxz     :     0.022608
      dyz     :     0.009472
      dx2y2   :     0.006486
      dxy     :     0.023359

  6 C s       :     2.852412  s :     2.852412
      pz      :     1.030423  p :     3.155086
      px      :     1.054262
      py      :     1.070401
      dz2     :     0.017586  d :     0.068774
      dxz     :     0.019999
      dyz     :     0.005605
      dx2y2   :     0.004172
      dxy     :     0.021411

  7 C s       :     2.853677  s :     2.853677
      pz      :     1.038083  p :     3.152382
      px      :     1.050096
      py      :     1.064203
      dz2     :     0.016330  d :     0.067733
      dxz     :     0.019982
      dyz     :     0.005196
      dx2y2   :     0.004566
      dxy     :     0.021659

  8 C s       :     2.903573  s :     2.903573
      pz      :     1.082952  p :     3.196890
      px      :     1.066723
      py      :     1.047214
      dz2     :     0.014738  d :     0.084881
      dxz     :     0.021828
      dyz     :     0.009950
      dx2y2   :     0.017764
      dxy     :     0.020601

  9 C s       :     2.853523  s :     2.853523
      pz      :     1.080470  p :     3.152142
      px      :     1.034383
      py      :     1.037289
      dz2     :     0.013655  d :     0.067663
      dxz     :     0.018757
      dyz     :     0.004937
      dx2y2   :     0.014895
      dxy     :     0.015419

 10 C s       :     2.853771  s :     2.853771
      pz      :     1.078681  p :     3.152660
      px      :     1.061657
      py      :     1.012323
      dz2     :     0.015174  d :     0.067875
      dxz     :     0.014894
      dyz     :     0.007027
      dx2y2   :     0.011363
      dxy     :     0.019417

 11 H s       :     0.895668  s :     0.895668
      pz      :     0.039794  p :     0.067759
      px      :     0.013246
      py      :     0.014719

 12 H s       :     0.908934  s :     0.908934
      pz      :     0.012920  p :     0.063984
      px      :     0.019778
      py      :     0.031287

 13 H s       :     0.909489  s :     0.909489
      pz      :     0.017350  p :     0.064063
      px      :     0.033725
      py      :     0.012988

 14 H s       :     0.899099  s :     0.899099
      pz      :     0.017415  p :     0.069487
      px      :     0.036855
      py      :     0.015217

 15 H s       :     0.907568  s :     0.907568
      pz      :     0.017671  p :     0.064669
      px      :     0.034098
      py      :     0.012900

 16 H s       :     0.902563  s :     0.902563
      pz      :     0.013139  p :     0.064044
      px      :     0.019481
      py      :     0.031424

 17 H s       :     0.909445  s :     0.909445
      pz      :     0.018527  p :     0.065295
      px      :     0.019118
      py      :     0.027650

 18 H s       :     0.894679  s :     0.894679
      pz      :     0.013655  p :     0.069911
      px      :     0.020902
      py      :     0.035354

 19 H s       :     0.908700  s :     0.908700
      pz      :     0.029941  p :     0.064400
      px      :     0.021203
      py      :     0.013256

 20 H s       :     0.907455  s :     0.907455
      pz      :     0.012992  p :     0.064514
      px      :     0.020974
      py      :     0.030549

 21 H s       :     0.901940  s :     0.901940
      pz      :     0.012347  p :     0.064051
      px      :     0.023582
      py      :     0.028122

 22 H s       :     0.905623  s :     0.905623
      pz      :     0.013517  p :     0.064089
      px      :     0.022731
      py      :     0.027841

 23 H s       :     0.895464  s :     0.895464
      pz      :     0.031253  p :     0.067184
      px      :     0.023301
      py      :     0.012630

 24 H s       :     0.912520  s :     0.912520
      pz      :     0.012696  p :     0.064179
      px      :     0.021007
      py      :     0.030476

 25 H s       :     0.905843  s :     0.905843
      pz      :     0.036659  p :     0.070459
      px      :     0.020509
      py      :     0.013290

 26 H s       :     0.911362  s :     0.911362
      pz      :     0.014276  p :     0.065076
      px      :     0.014333
      py      :     0.036467

 27 H s       :     0.906475  s :     0.906475
      pz      :     0.024020  p :     0.064008
      px      :     0.025922
      py      :     0.014066

 28 H s       :     0.897014  s :     0.897014
      pz      :     0.037988  p :     0.066538
      px      :     0.016663
      py      :     0.011887

 29 H s       :     0.909837  s :     0.909837
      pz      :     0.013236  p :     0.064651
      px      :     0.027119
      py      :     0.024296

 30 H s       :     0.899132  s :     0.899132
      pz      :     0.037331  p :     0.065521
      px      :     0.016019
      py      :     0.012171

 31 H s       :     0.904784  s :     0.904784
      pz      :     0.023747  p :     0.064008
      px      :     0.026661
      py      :     0.013601



                      *****************************
                      * MAYER POPULATION ANALYSIS *
                      *****************************

  NA   - Mulliken gross atomic population
  ZA   - Total nuclear charge
  QA   - Mulliken gross atomic charge
  VA   - Mayer's total valence
  BVA  - Mayer's bonded valence
  FA   - Mayer's free valence

  ATOM       NA         ZA         QA         VA         BVA        FA
  0 C      6.0035     6.0000    -0.0035     3.9676     3.9676    -0.0000
  1 C      6.2661     6.0000    -0.2661     4.0137     4.0137    -0.0000
  2 C      6.0060     6.0000    -0.0060     3.9580     3.9580    -0.0000
  3 P     14.5041    15.0000     0.4959     4.6769     4.6769    -0.0000
  4 O      8.4740     8.0000    -0.4740     2.1209     2.1209    -0.0000
  5 C      6.2529     6.0000    -0.2529     4.0321     4.0321    -0.0000
  6 C      6.0161     6.0000    -0.0161     3.9357     3.9357    -0.0000
  7 C      6.0125     6.0000    -0.0125     3.9580     3.9580    -0.0000
  8 C      6.2436     6.0000    -0.2436     4.0358     4.0358    -0.0000
  9 C      6.0109     6.0000    -0.0109     3.9503     3.9503    -0.0000
 10 C      6.0207     6.0000    -0.0207     3.9561     3.9561    -0.0000
 11 H      0.9425     1.0000     0.0575     1.0199     1.0199     0.0000
 12 H      0.9727     1.0000     0.0273     0.9851     0.9851     0.0000
 13 H      0.9742     1.0000     0.0258     1.0036     1.0036    -0.0000
 14 H      0.9540     1.0000     0.0460     0.9801     0.9801    -0.0000
 15 H      0.9682     1.0000     0.0318     1.0034     1.0034    -0.0000
 16 H      0.9650     1.0000     0.0350     0.9871     0.9871     0.0000
 17 H      0.9718     1.0000     0.0282     1.0042     1.0042    -0.0000
 18 H      0.9452     1.0000     0.0548     0.9845     0.9845    -0.0000
 19 H      0.9636     1.0000     0.0364     0.9943     0.9943     0.0000
 20 H      0.9606     1.0000     0.0394     0.9968     0.9968    -0.0000
 21 H      0.9638     1.0000     0.0362     0.9874     0.9874     0.0000
 22 H      0.9684     1.0000     0.0316     0.9867     0.9867     0.0000
 23 H      0.9416     1.0000     0.0584     1.0189     1.0189     0.0000
 24 H      0.9727     1.0000     0.0273     1.0001     1.0001     0.0000
 25 H      0.9627     1.0000     0.0373     0.9804     0.9804    -0.0000
 26 H      0.9694     1.0000     0.0306     1.0017     1.0017    -0.0000
 27 H      0.9693     1.0000     0.0307     0.9887     0.9887    -0.0000
 28 H      0.9453     1.0000     0.0547     1.0181     1.0181    -0.0000
 29 H      0.9656     1.0000     0.0344     0.9918     0.9918    -0.0000
 30 H      0.9452     1.0000     0.0548     1.0086     1.0086    -0.0000
 31 H      0.9679     1.0000     0.0321     0.9902     0.9902    -0.0000

  Mayer bond orders larger than 0.100000
B(  0-C ,  1-C ) :   1.0607 B(  0-C , 11-H ) :   0.9473 B(  0-C , 12-H ) :   0.9578 
B(  0-C , 13-H ) :   0.9641 B(  1-C ,  2-C ) :   1.0529 B(  1-C ,  3-P ) :   0.8659 
B(  1-C , 14-H ) :   0.9019 B(  2-C , 15-H ) :   0.9536 B(  2-C , 16-H ) :   0.9523 
B(  2-C , 17-H ) :   0.9539 B(  3-P ,  4-O ) :   1.8313 B(  3-P ,  5-C ) :   0.8979 
B(  3-P ,  8-C ) :   0.8923 B(  5-C ,  6-C ) :   1.0385 B(  5-C ,  7-C ) :   1.0633 
B(  5-C , 18-H ) :   0.8969 B(  6-C , 19-H ) :   0.9589 B(  6-C , 20-H ) :   0.9566 
B(  6-C , 21-H ) :   0.9514 B(  7-C , 22-H ) :   0.9569 B(  7-C , 23-H ) :   0.9484 
B(  7-C , 24-H ) :   0.9604 B(  8-C ,  9-C ) :   1.0601 B(  8-C , 10-C ) :   1.0592 
B(  8-C , 25-H ) :   0.8910 B(  9-C , 26-H ) :   0.9540 B(  9-C , 27-H ) :   0.9553 
B(  9-C , 28-H ) :   0.9530 B( 10-C , 29-H ) :   0.9561 B( 10-C , 30-H ) :   0.9576 
B( 10-C , 31-H ) :   0.9562 

-------
TIMINGS
-------

Total SCF time: 0 days 0 hours 0 min 3 sec 

Total time                  ....       3.272 sec
Sum of individual times     ....       3.206 sec  ( 98.0%)

SCF preparation             ....       0.103 sec  (  3.1%)
Fock matrix formation       ....       2.835 sec  ( 86.6%)
  Startup                   ....       0.017 sec  (  0.6% of F)
  Split-RI-J                ....       0.885 sec  ( 31.2% of F)
  XC integration            ....       1.869 sec  ( 65.9% of F)
    Basis function eval.    ....       0.552 sec  ( 29.5% of XC)
    Density eval.           ....       0.538 sec  ( 28.8% of XC)
    XC-Functional eval.     ....       0.071 sec  (  3.8% of XC)
    XC-Potential eval.      ....       0.382 sec  ( 20.4% of XC)
Diagonalization             ....       0.000 sec  (  0.0%)
Density matrix formation    ....       0.035 sec  (  1.1%)
Total Energy calculation    ....       0.014 sec  (  0.4%)
Population analysis         ....       0.068 sec  (  2.1%)
Orbital Transformation      ....       0.021 sec  (  0.6%)
Orbital Orthonormalization  ....       0.000 sec  (  0.0%)
DIIS solution               ....       0.026 sec  (  0.8%)
SOSCF solution              ....       0.104 sec  (  3.2%)
Finished LeanSCF after   3.3 sec

Maximum memory used throughout the entire LEANSCF-calculation: 29.4 MB


-------------------------------------------------------------------------------
                          DFT DISPERSION CORRECTION                            
                                                                               
                              DFTD3 V3.1  Rev 1                                
                          USING Becke-Johnson damping                          
-------------------------------------------------------------------------------
The BP86 functional is recognized
Active option DFTDOPT                   ...         4   

molecular C6(AA) [au] = 8260.225152 


            DFT-D V3
 parameters
 s6 scaling factor         :     1.0000 
 a1 scaling factor         :     0.3946 
 s8 scaling factor         :     3.2822 
 a2 scaling factor         :     4.8516 
 ad hoc parameters k1-k3   :    16.0000     1.3333    -4.0000 

 Edisp/kcal,au: -37.301561152266  -0.059443815138 
 E6   /kcal   : -14.221433675 
 E8   /kcal   : -23.080127477 
 % E8         :  61.874427676 

-------------------------   ----------------
Dispersion correction           -0.059443815
-------------------------   ----------------


-------------------------   --------------------
FINAL SINGLE POINT ENERGY      -771.875635613235
-------------------------   --------------------

                                *** OPTIMIZATION RUN DONE ***



           ************************************************************
           *        Program running with 6 parallel MPI-processes     *
           *              working on a common directory               *
           ************************************************************

------------------------------------------------------------------------------
                              ORCA PROPERTY CALCULATIONS
------------------------------------------------------------------------------

GBWName                                 ... data/geom_opt_PO_BP86/80969/80969.gbw
Number of atoms                         ...     32
Number of basis functions               ...    263
Max core memory                         ...   1024 MB

Electric properties:
Dipole moment                           ... YES
Quadrupole moment                       ...  NO
Static polarizability (Dipole/Dipole)   ...  NO
Static polarizability (Dipole/Quad.)    ...  NO
Static polarizability (Quad./Quad.)     ...  NO
Static polarizability (Velocity)        ...  NO

Atomic electric properties:
Dipole moment                           ...  NO
Quadrupole moment                       ...  NO
Static polarizability                   ...  NO

Choice of electric origin               ... Center of mass
Position of electric origin             ...     0.200302    -0.044692    -0.581904

General magnetic properties:
Magnetizability                         ...  NO

EPR properties:
g-Tensor (aka g-matrix)                 ...  NO
Zero-Field splitting spin-orbit         ...  NO
Zero-field splitting spin-spin          ...  NO
Hyperfine couplings                     ...  NO (   0 nuclei)
Quadrupole couplings                    ...  NO (   0 nuclei)
Contact density                         ...  NO (   0 nuclei)

NMR properties:
Chemical shifts                         ...  NO (   0 nuclei)
Spin-rotation constants                 ...  NO (   0 nuclei)
Spin-spin couplings                     ...  NO (   0 nuclei,    0 pairs)

Choice of magnetic origin               ... GIAO
Position of magnetic origin             ...     0.000000     0.000000     0.000000

Properties with geometric perturbations:
SCF Hessian                             ...  NO
IR spectrum                             ...  NO
VCD spectrum                            ...  NO
X-ray spectroscopy properties:
SCF XES/XAS/RIXS spectra                ...  NO


-------------
DIPOLE MOMENT
-------------

Method             : SCF
Type of density    : Electron Density
Multiplicity       :   1
Irrep              :   0
Energy             :  -771.8161917980969520 Eh
Relativity type    : 
Basis              : AO
                                X                 Y                 Z
Electronic contribution:      2.379622108      -0.874103886      -6.034671279
Nuclear contribution   :     -3.065053100       0.735892059       7.270404046
                        -----------------------------------------
Total Dipole Moment    :     -0.685430992      -0.138211827       1.235732767
                        -----------------------------------------
Magnitude (a.u.)       :      1.419842817
Magnitude (Debye)      :      3.608953633



--------------------
Rotational spectrum 
--------------------
 
Rotational constants in cm-1:             0.031996             0.029136             0.022957 
Rotational constants in MHz :           959.205499           873.483736           688.243339 

Dipole components along the rotational axes: 
x,y,z [a.u.] :    -0.258179    -0.013842     1.396104 
x,y,z [Debye]:    -0.656239    -0.035183     3.548614 

 

Dipole moment calculation done in   0.0 sec 

Maximum memory used throughout the entire PROP-calculation: 14.1 MB

--------------------------------
SUGGESTED CITATIONS FOR THIS RUN
--------------------------------

Below you find a list of papers that are relevant to this ORCA run
We neither can nor want to force you to cite these papers, but we appreciate if you do
You receive ORCA, which is the product of decades of hard work by many enthusiastic individuals, for free
The only thing we kindly ask in return is that you cite our papers,
We deeply appreciate it, if you show your appreciation for ORCA by not just citing the generic ORCA reference.

Please note that relegating all ORCA citations to the supporting information does *not* help us.
SI sections are not indexed - citations you put there will not count into any citation statistics
But we need these citations in order to attract the funding resources that allow us to do what we are doing

Therefore, if you are a happy ORCA user, please consider citing a few of the papers listed below in the main body of your paper

In addition to the list printed below, the program has created the file data/geom_opt_PO_BP86/80969/80969.bibtex that contains the list in bibtex format
You can import this file easily into all common literature databanks and citation aid programs


List of essential papers. We consider these as the minimum necessary citations

  1. Neese,F.
     Software update: the ORCA program system, version 5.0
     WIRES Comput. Molec. Sci., 2022 12(1)e1606
     doi.org/10.1002/wcms.1606

List of papers to cite with high priority. The work reported in these papers was absolutely
necessary for this run to complete.
Our perspective: the developers of density functionals and basis sets usually get cited in chemistry papers
Good! But without the algorithms to do something with them, the functionals or basis sets would not do anything.
Hence, in our opinion, the algorithm design and method developments papers are equally worthy of getting cited

  1. Neese,F.
     An improvement of the resolution of the identity approximation for the formation of the Coulomb matrix
     J. Comp. Chem., 2003 24(14)1740-1747
     doi.org/10.1002/jcc.10318
  2. Neese,F.
     The SHARK Integral Generation and Digestion System
     J. Comp. Chem., 2022  1-16
     doi.org/10.1002/jcc.26942
  3. Grimme,S.; Antony,J.; Ehrlich,S.; Krieg,H.
     A consistent and accurate ab initio parametrization of density functional dispersion correction (DFT-D) for the 94 elements H-Pu
     J. Chem. Phys., 2010 132 154104-XXXX
     doi.org/10.1063/1.3382344
  4. Grimme,S.; Ehrlich,S.; Goerigk,L.
     Effect of the damping function in dispersion corrected density functional theory
     J. Comput. Chem., 2011 32(7)1456-1465
     doi.org/10.1002/jcc.21759

List of suggested additional citations. These are papers that are important in the 'surrounding' of 
of this run, or papers that preceded the highly important papers. If you like your results we are grateful for a citation.

  1. Neese,F.
     The ORCA program system
     WIRES Comput. Molec. Sci., 2012 2(1)73-78
     doi.org/10.1002/wcms.81
  2. Neese,F.
     Software update: the ORCA program system, version 4.0
     WIRES Comput. Molec. Sci., 2018 8(1)1-6
     doi.org/10.1002/wcms.1327
  3. Neese,F.; Wennmohs,F.; Becker,U.; Riplinger,C.
     The ORCA quantum chemistry program package
     J. Chem. Phys., 2020 152 Art. No. L224108
     doi.org/10.1063/5.0004608

List of optional additional citations

  1. Neese,F.
     Approximate second-order SCF convergence for spin unrestricted wavefunctions
     Chem. Phys. Lett., 2000 325(1-3)93-98
     doi.org/10.1016/s0009-2614(00)00662-x

Timings for individual modules:

Sum of individual times          ...      100.962 sec (=   1.683 min)
Startup calculation              ...        9.624 sec (=   0.160 min)   9.5 %
SCF iterations                   ...       55.496 sec (=   0.925 min)  55.0 %
Property calculations            ...        0.174 sec (=   0.003 min)   0.2 %
SCF Gradient evaluation          ...       35.550 sec (=   0.592 min)  35.2 %
Geometry relaxation              ...        0.118 sec (=   0.002 min)   0.1 %
                             ****ORCA TERMINATED NORMALLY****
TOTAL RUN TIME: 0 days 0 hours 1 minutes 42 seconds 835 msec
