
                                 *****************
                                 * O   R   C   A *
                                 *****************

                                            #,                                       
                                            ###                                      
                                            ####                                     
                                            #####                                    
                                            ######                                   
                                           ########,                                 
                                     ,,################,,,,,                         
                               ,,#################################,,                 
                          ,,##########################################,,             
                       ,#########################################, ''#####,          
                    ,#############################################,,   '####,        
                  ,##################################################,,,,####,       
                ,###########''''           ''''###############################       
              ,#####''   ,,,,##########,,,,          '''####'''          '####       
            ,##' ,,,,###########################,,,                        '##       
           ' ,,###''''                  '''############,,,                           
         ,,##''                                '''############,,,,        ,,,,,,###''
      ,#''                                            '''#######################'''  
     '                                                          ''''####''''         
             ,#######,   #######,   ,#######,      ##                                
            ,#'     '#,  ##    ##  ,#'     '#,    #''#        ,####,   ,####,        
            ##       ##  ##   ,#'  ##            #'  '#       #'       #'  '#        
            ##       ##  #######   ##           ,######,      #####,   #    #        
            '#,     ,#'  ##    ##  '#,     ,#' ,#      #,     #,   #   #,  ,#        
             '#######'   ##     ##  '#######'  #'      '#     '####' # '####'        



                #########################################################
                #                        -***-                          #
                #          Department of theory and spectroscopy        #
                #                                                       #
                #                      Frank Neese                      #
                #                                                       #
                #     Directorship, Architecture, Infrastructure        #
                #                    SHARK, DRIVERS                     #
                #        Core code/Algorithms in most modules           #
                #                                                       #
                #        Max Planck Institute fuer Kohlenforschung      #
                #                Kaiser Wilhelm Platz 1                 #
                #                 D-45470 Muelheim/Ruhr                 #
                #                      Germany                          #
                #                                                       #
                #                  All rights reserved                  #
                #                        -***-                          #
                #########################################################


                         Program Version 6.0.0  -   RELEASE   -


 With contributions from (in alphabetic order):
   Daniel Aravena         : Magnetic Suceptibility
   Michael Atanasov       : Ab Initio Ligand Field Theory (pilot matlab implementation)
   Alexander A. Auer      : GIAO ZORA, VPT2 properties, NMR spectrum
   Ute Becker             : All parallelization in ORCA, NUMFREQ, NUMCALC
   Giovanni Bistoni       : ED, misc. LED, open-shell LED, HFLD
   Martin Brehm           : Molecular dynamics
   Dmytro Bykov           : pre 5.0 version of the SCF Hessian
   Marcos Casanova-Páez   : Triplet and SCS-CIS(D). UHF-(DLPNO)-IP/EA/STEOM-CCSD. UHF-CVS-IP/STEOM-CCSD
   Vijay G. Chilkuri      : MRCI spin determinant printing, contributions to CSF-ICE
   Pauline Colinet        : FMM embedding
   Dipayan Datta          : RHF DLPNO-CCSD density
   Achintya Kumar Dutta   : EOM-CC, STEOM-CC
   Nicolas Foglia         : Exact transition moments, OPA infrastructure, MCD improvements
   Dmitry Ganyushin       : Spin-Orbit,Spin-Spin,Magnetic field MRCI
   Miquel Garcia          : C-PCM and meta-GGA Hessian, CCSD/C-PCM, Gaussian charge scheme
   Tiago L. C. Gouveia    : GS-ROHF, GS-ROCIS
   Yang Guo               : DLPNO-NEVPT2, F12-NEVPT2, CIM, IAO-localization
   Andreas Hansen         : Spin unrestricted coupled pair/coupled cluster methods
   Ingolf Harden          : AUTO-CI MPn and infrastructure 
   Benjamin Helmich-Paris : MC-RPA, TRAH-(SCF,CASSCF), AVAS, COSX integrals, SCF dyn. polar.
   Lee Huntington         : MR-EOM, pCC
   Robert Izsak           : Overlap fitted RIJCOSX, COSX-SCS-MP3, EOM
   Riya Kayal             : Wick's Theorem for AUTO-CI, AUTO-CI UHF-CCSDT
   Emily Kempfer          : AUTO-CI, RHF CISDT and CCSDT
   Christian Kollmar      : KDIIS, OOCD, Brueckner-CCSD(T), CCSD density, CASPT2, CASPT2-K, improved NEVPT2
   Axel Koslowski         : Symmetry handling
   Simone Kossmann        : Meta GGA functionals, TD-DFT gradient, OOMP2, (MP2 Hessian; deprecated post 5.0)
   Lucas Lang             : DCDCAS
   Marvin Lechner         : AUTO-CI (C++ implementation), FIC-MRCC
   Spencer Leger          : CASSCF response
   Dagmar Lenk            : GEPOL surface, SMD, ORCA-2-JSON
   Dimitrios Liakos       : Extrapolation schemes; Compound Job, initial MDCI parallelization
   Dimitrios Manganas     : Further ROCIS development; embedding schemes. LFT, Crystal Embedding
   Dimitrios Pantazis     : SARC Basis sets
   Anastasios Papadopoulos: AUTO-CI, single reference methods and gradients
   Taras Petrenko         : pre 6.0 DFT Hessian and TD-DFT gradient, (ASA, deprecated), ECA, 1-Electron XAS/XES, NRVS
   Peter Pinski           : DLPNO-MP2, DLPNO-MP2 Gradient
   Christoph Reimann      : Effective Core Potentials
   Marius Retegan         : Local ZFS, SOC
   Christoph Riplinger    : Optimizer, TS searches, QM/MM, DLPNO-CCSD(T), (RO)-DLPNO pert. Triples
   Michael Roemelt        : Original ROCIS implementation
   Masaaki Saitow         : Open-shell DLPNO-CCSD energy and density
   Barbara Sandhoefer     : DKH picture change effects
   Kantharuban Sivalingam : CASSCF convergence/infrastructure, NEVPT2 and variants, FIC-MRCI
   Bernardo de Souza      : ESD, SOC TD-DFT
   Georgi Stoychev        : AutoAux, RI-MP2 NMR, DLPNO-MP2 response, X2C
   Van Anh Tran           : RI-MP2 g-tensors
   Willem Van den Heuvel  : Paramagnetic NMR
   Zikuan Wang            : NOTCH, Electric field optimization 
   Frank Wennmohs         : Technical directorship and infrastructure
   Hang Xu                : AUTO-CI-Response properties 


 We gratefully acknowledge several colleagues who have allowed us to
 interface, adapt or use parts of their codes:
   Stefan Grimme, W. Hujo, H. Kruse, P. Pracht,  : VdW corrections, initial TS optimization,
                  C. Bannwarth, S. Ehlert,         DFT functionals, gCP, sTDA/sTD-DF
                  L. Wittmann, M. Mueller
   Ed Valeev, F. Pavosevic, A. Kumar             : LibInt (2-el integral package), F12 methods
   Garnet Chan, S. Sharma, J. Yang, R. Olivares  : DMRG
   Ulf Ekstrom                                   : XCFun DFT Library
   Mihaly Kallay                                 : mrcc  (arbitrary order and MRCC methods)
   Frank Weinhold                                : gennbo (NPA and NBO analysis)
   Simon Mueller                                 : openCOSMO-RS
   Christopher J. Cramer and Donald G. Truhlar   : smd solvation model
   Lars Goerigk                                  : TD-DFT with DH, B97 family of functionals
   V. Asgeirsson, H. Jonsson                     : NEB implementation
   FAccTs GmbH                                   : IRC, NEB, NEB-TS, DLPNO-Multilevel, CI-OPT
                                                   MM, QMMM, 2- and 3-layer-ONIOM, Crystal-QMMM,
                                                   LR-CPCM, SF, NACMEs, symmetry and pop. for TD-DFT,
                                                   nearIR, NL-DFT gradient (VV10), updates on ESD,
                                                   ML-optimized integration grids, MBIS, APM,
                                                   GOAT, DOCKER, SOLVATOR, interface openCOSMO-RS
   S Lehtola, MJT Oliveira, MAL Marques          : LibXC Library
   Liviu Ungur et al                             : ANISO software


 Your calculation uses the libint2 library for the computation of 2-el integrals
 For citations please refer to: http://libint.valeyev.net

 Your ORCA version has been built with support for libXC version: 6.2.2
 For citations please refer to: https://libxc.gitlab.io

 This ORCA versions uses:
   CBLAS   interface :  Fast vector & matrix operations
   LAPACKE interface :  Fast linear algebra routines
   Shared memory     :  Shared parallel matrices


Your calculation utilizes the atom-pairwise dispersion correction
with the Becke-Johnson damping scheme (D3BJ)


Warning: RI is on but no J-basis has been assigned. Assigning Def2/J (nothing to worry about!)
================================================================================

----- Orbital basis set information -----
Your calculation utilizes the basis: def2-SVP
   F. Weigend and R. Ahlrichs, Phys. Chem. Chem. Phys. 7, 3297 (2005).

----- AuxJ basis set information -----
Your calculation utilizes the auxiliary basis: def2/J
   F. Weigend, Phys. Chem. Chem. Phys. 8, 1057 (2006).

================================================================================
                                        WARNINGS
                       Please study these warnings very carefully!
================================================================================


WARNING: Geometry Optimization
  ===> : Switching off AutoStart
         For restart on a previous wavefunction, please use MOREAD

================================================================================
                                       INPUT FILE
================================================================================
NAME = data/geom_opt/70874/70874.inp
|  1> ! RIJONX B3LYP def2-SVP D3BJ TIGHTSCF Opt
|  2> %pal
|  3> nprocs 6
|  4> end
|  5> 
|  6> * xyz 0 1
|  7> C     -0.698366   -2.421055   -1.635688
|  8> C     -1.190981   -3.686835   -1.301863
|  9> C     -1.868795   -3.868670   -0.101375
| 10> C     -2.056891   -2.796557    0.765082
| 11> C     -1.562564   -1.530736    0.428945
| 12> C     -0.872772   -1.320769   -0.775245
| 13> P     -0.194841    0.286292   -1.302955
| 14> C      1.555433    0.216422   -0.800587
| 15> C      2.423215    1.202669   -1.306233
| 16> C      3.780320    1.215771   -0.967999
| 17> C      4.289289    0.238459   -0.119777
| 18> C      3.452953   -0.749039    0.391047
| 19> C      2.094951   -0.759803    0.051398
| 20> Cl     5.956737    0.251256    0.300201
| 21> C     -0.940584    1.483326   -0.148966
| 22> C     -2.231063    1.962272   -0.443382
| 23> C     -2.870003    2.883537    0.392880
| 24> C     -2.223880    3.341317    1.535960
| 25> C     -0.946901    2.885540    1.847643
| 26> C     -0.309643    1.963166    1.009326
| 27> Cl    -3.005903    4.472782    2.568021
| 28> Cl    -2.474944   -5.423284    0.314181
| 29> H     -0.171022   -2.303898   -2.581626
| 30> H     -1.041600   -4.520023   -1.983350
| 31> H     -2.586858   -2.933935    1.704111
| 32> H     -1.726683   -0.720448    1.134815
| 33> H      2.048395    1.978710   -1.972481
| 34> H      4.428567    1.989251   -1.371047
| 35> H      3.846682   -1.515420    1.053730
| 36> H      1.474457   -1.545596    0.474800
| 37> H     -2.757680    1.618812   -1.332948
| 38> H     -3.867098    3.236400    0.143419
| 39> H     -0.437766    3.241324    2.739669
| 40> H      0.685839    1.628762    1.290296
| 41> **                         ****END OF INPUT****
================================================================================

                       *****************************
                       * Geometry Optimization Run *
                       *****************************

Geometry optimization settings:
Update method            Update   .... BFGS
Choice of coordinates    CoordSys .... (2022) Redundant Internals
Initial Hessian          InHess   .... Almloef's Model
Max. no of cycles        MaxIter  .... 102

Convergence Tolerances:
Energy Change            TolE     ....  5.0000e-06 Eh
Max. Gradient            TolMAXG  ....  3.0000e-04 Eh/bohr
RMS Gradient             TolRMSG  ....  1.0000e-04 Eh/bohr
Max. Displacement        TolMAXD  ....  4.0000e-03 bohr
RMS Displacement         TolRMSD  ....  2.0000e-03 bohr
Strict Convergence                .... False

------------------------------------------------------------------------------
                        ORCA OPTIMIZATION COORDINATE SETUP
------------------------------------------------------------------------------

The optimization will be done in redundant internal coordinates (2022)
Making redundant internal coordinates   ...  (2022 redundants) done
Evaluating the initial hessian          ...  (Almloef) done
Evaluating the coordinates              ...  done
Calculating the B-matrix                .... done
Calculating the G-matrix                .... done
Diagonalizing the G-matrix              .... done
Small eigenvalue found = 5.285e-03
Small eigenvalue found = 5.285e-03
Small eigenvalue found = 9.739e-03
Small eigenvalue found = 2.990e-02
Small eigenvalue found = 2.990e-02
The first mode is                       ....   81
The number of degrees of freedom        ....   96

    -----------------------------------------------------------------
                    Redundant Internal Coordinates


    -----------------------------------------------------------------
         Definition                    Initial Value    Approx d2E/dq
    -----------------------------------------------------------------
      1. B(C   1,C   0)                  1.3987         0.605186   
      2. B(C   2,C   1)                  1.3906         0.623504   
      3. B(C   3,C   2)                  1.3912         0.621952   
      4. B(C   4,C   3)                  1.3999         0.602537   
      5. B(C   5,C   4)                  1.4036         0.594441   
      6. B(C   5,C   0)                  1.4076         0.585624   
      7. B(P   6,C   5)                  1.8223         0.429095   
      8. B(C   7,P   6)                  1.8223         0.429094   
      9. B(C   8,C   7)                  1.4076         0.585625   
     10. B(C   9,C   8)                  1.3987         0.605186   
     11. B(C  10,C   9)                  1.3906         0.623503   
     12. B(C  11,C  10)                  1.3912         0.621955   
     13. B(C  12,C  11)                  1.3999         0.602539   
     14. B(C  12,C   7)                  1.4036         0.594441   
     15. B(Cl 13,C  10)                  1.7196         0.417757   
     16. B(C  14,P   6)                  1.8223         0.429095   
     17. B(C  15,C  14)                  1.4076         0.585626   
     18. B(C  16,C  15)                  1.3987         0.605186   
     19. B(C  17,C  16)                  1.3906         0.623502   
     20. B(C  18,C  17)                  1.3912         0.621952   
     21. B(C  19,C  18)                  1.3999         0.602539   
     22. B(C  19,C  14)                  1.4036         0.594441   
     23. B(Cl 20,C  17)                  1.7196         0.417759   
     24. B(Cl 21,C   2)                  1.7196         0.417757   
     25. B(H  22,C   0)                  1.0893         0.361002   
     26. B(H  23,C   1)                  1.0867         0.364477   
     27. B(H  24,C   3)                  1.0870         0.364125   
     28. B(H  25,C   4)                  1.0871         0.363977   
     29. B(H  26,C   8)                  1.0893         0.361002   
     30. B(H  27,C   9)                  1.0867         0.364476   
     31. B(H  28,C  11)                  1.0870         0.364126   
     32. B(H  29,C  12)                  1.0871         0.363978   
     33. B(H  30,C  15)                  1.0893         0.361001   
     34. B(H  31,C  16)                  1.0867         0.364477   
     35. B(H  32,C  18)                  1.0870         0.364126   
     36. B(H  33,C  19)                  1.0871         0.363976   
     37. A(C   1,C   0,C   5)          121.1887         0.427780   
     38. A(C   1,C   0,H  22)          118.3652         0.351617   
     39. A(C   5,C   0,H  22)          120.4461         0.349671   
     40. A(C   0,C   1,H  23)          119.7204         0.352187   
     41. A(C   0,C   1,C   2)          119.7398         0.432620   
     42. A(C   2,C   1,H  23)          120.5398         0.353969   
     43. A(C   1,C   2,C   3)          120.1853         0.434752   
     44. A(C   3,C   2,Cl 21)          119.9026         0.423009   
     45. A(C   1,C   2,Cl 21)          119.9121         0.423197   
     46. A(C   2,C   3,C   4)          119.9691         0.432086   
     47. A(C   4,C   3,H  24)          119.5965         0.351868   
     48. A(C   2,C   3,H  24)          120.4343         0.353762   
     49. A(C   5,C   4,H  25)          121.3176         0.351041   
     50. A(C   3,C   4,C   5)          120.9860         0.428591   
     51. A(C   3,C   4,H  25)          117.6955         0.351844   
     52. A(C   0,C   5,P   6)          117.7900         0.429042   
     53. A(C   0,C   5,C   4)          117.9307         0.426409   
     54. A(C   4,C   5,P   6)          124.2785         0.430194   
     55. A(C   7,P   6,C  14)          104.1034         0.432856   
     56. A(C   5,P   6,C  14)          104.1035         0.432856   
     57. A(C   5,P   6,C   7)          104.1035         0.432856   
     58. A(C   8,C   7,C  12)          117.9308         0.426409   
     59. A(P   6,C   7,C  12)          124.2784         0.430194   
     60. A(P   6,C   7,C   8)          117.7900         0.429042   
     61. A(C   7,C   8,C   9)          121.1886         0.427780   
     62. A(C   9,C   8,H  26)          118.3651         0.351617   
     63. A(C   7,C   8,H  26)          120.4461         0.349671   
     64. A(C  10,C   9,H  27)          120.5398         0.353969   
     65. A(C   8,C   9,C  10)          119.7398         0.432620   
     66. A(C   8,C   9,H  27)          119.7204         0.352187   
     67. A(C   9,C  10,C  11)          120.1852         0.434753   
     68. A(C  11,C  10,Cl 13)          119.9027         0.423009   
     69. A(C   9,C  10,Cl 13)          119.9120         0.423197   
     70. A(C  12,C  11,H  28)          119.5966         0.351869   
     71. A(C  10,C  11,H  28)          120.4342         0.353762   
     72. A(C  10,C  11,C  12)          119.9692         0.432086   
     73. A(C  11,C  12,H  29)          117.6955         0.351845   
     74. A(C   7,C  12,H  29)          121.3176         0.351041   
     75. A(C   7,C  12,C  11)          120.9859         0.428591   
     76. A(P   6,C  14,C  19)          124.2784         0.430194   
     77. A(C  15,C  14,C  19)          117.9308         0.426410   
     78. A(P   6,C  14,C  15)          117.7900         0.429042   
     79. A(C  16,C  15,H  30)          118.3652         0.351617   
     80. A(C  14,C  15,H  30)          120.4461         0.349671   
     81. A(C  14,C  15,C  16)          121.1886         0.427780   
     82. A(C  17,C  16,H  31)          120.5398         0.353969   
     83. A(C  15,C  16,H  31)          119.7204         0.352187   
     84. A(C  15,C  16,C  17)          119.7398         0.432620   
     85. A(C  18,C  17,Cl 20)          119.9026         0.423009   
     86. A(C  16,C  17,Cl 20)          119.9121         0.423198   
     87. A(C  16,C  17,C  18)          120.1853         0.434752   
     88. A(C  17,C  18,C  19)          119.9691         0.432086   
     89. A(C  19,C  18,H  32)          119.5966         0.351869   
     90. A(C  17,C  18,H  32)          120.4343         0.353762   
     91. A(C  14,C  19,C  18)          120.9860         0.428591   
     92. A(C  18,C  19,H  33)          117.6955         0.351844   
     93. A(C  14,C  19,H  33)          121.3176         0.351041   
     94. D(H  23,C   1,C   0,C   5)   -179.9137         0.025272   
     95. D(C   2,C   1,C   0,H  22)   -179.9892         0.025272   
     96. D(H  23,C   1,C   0,H  22)     -0.0438         0.025272   
     97. D(C   2,C   1,C   0,C   5)      0.1409         0.025272   
     98. D(C   3,C   2,C   1,C   0)      0.0018         0.026919   
     99. D(C   3,C   2,C   1,H  23)   -179.9431         0.026919   
    100. D(Cl 21,C   2,C   1,C   0)   -179.9402         0.026919   
    101. D(Cl 21,C   2,C   1,H  23)      0.1149         0.026919   
    102. D(H  24,C   3,C   2,Cl 21)     -0.1103         0.026777   
    103. D(C   4,C   3,C   2,C   1)     -0.0216         0.026777   
    104. D(C   4,C   3,C   2,Cl 21)    179.9204         0.026777   
    105. D(H  24,C   3,C   2,C   1)    179.9476         0.026777   
    106. D(H  25,C   4,C   3,C   2)   -179.7465         0.025039   
    107. D(C   5,C   4,C   3,C   2)     -0.1009         0.025039   
    108. D(C   5,C   4,C   3,H  24)    179.9296         0.025039   
    109. D(H  25,C   4,C   3,H  24)      0.2840         0.025039   
    110. D(P   6,C   5,C   4,H  25)     -0.4687         0.024336   
    111. D(C   0,C   5,C   4,H  25)    179.8682         0.024336   
    112. D(P   6,C   5,C   0,H  22)      0.1914         0.023584   
    113. D(P   6,C   5,C   0,C   1)   -179.9414         0.023584   
    114. D(C   4,C   5,C   0,H  22)    179.8767         0.023584   
    115. D(P   6,C   5,C   4,C   3)    179.8986         0.024336   
    116. D(C   4,C   5,C   0,C   1)     -0.2561         0.023584   
    117. D(C   0,C   5,C   4,C   3)      0.2356         0.024336   
    118. D(C  14,P   6,C   5,C   4)    -12.1639         0.003792   
    119. D(C  14,P   6,C   5,C   0)    167.4996         0.003792   
    120. D(C   7,P   6,C   5,C   4)     96.6309         0.003792   
    121. D(C   7,P   6,C   5,C   0)    -83.7056         0.003792   
    122. D(C  12,C   7,P   6,C   5)    -12.1631         0.003792   
    123. D(C   8,C   7,P   6,C  14)    -83.7046         0.003792   
    124. D(C   8,C   7,P   6,C   5)    167.5005         0.003792   
    125. D(C  12,C   7,P   6,C  14)     96.6318         0.003792   
    126. D(H  26,C   8,C   7,C  12)    179.8767         0.023584   
    127. D(H  26,C   8,C   7,P   6)      0.1913         0.023584   
    128. D(C   9,C   8,C   7,C  12)     -0.2562         0.023584   
    129. D(C   9,C   8,C   7,P   6)   -179.9416         0.023584   
    130. D(H  27,C   9,C   8,H  26)     -0.0441         0.025272   
    131. D(H  27,C   9,C   8,C   7)   -179.9139         0.025272   
    132. D(C  10,C   9,C   8,H  26)   -179.9892         0.025272   
    133. D(C  10,C   9,C   8,C   7)      0.1410         0.025272   
    134. D(Cl 13,C  10,C   9,H  27)      0.1152         0.026919   
    135. D(Cl 13,C  10,C   9,C   8)   -179.9402         0.026919   
    136. D(C  11,C  10,C   9,H  27)   -179.9429         0.026919   
    137. D(C  11,C  10,C   9,C   8)      0.0018         0.026919   
    138. D(H  28,C  11,C  10,Cl 13)     -0.1105         0.026778   
    139. D(H  28,C  11,C  10,C   9)    179.9475         0.026778   
    140. D(C  12,C  11,C  10,Cl 13)    179.9203         0.026778   
    141. D(C  12,C  11,C  10,C   9)     -0.0216         0.026778   
    142. D(H  29,C  12,C  11,H  28)      0.2843         0.025040   
    143. D(C   7,C  12,C  11,H  28)    179.9297         0.025040   
    144. D(C   7,C  12,C  11,C  10)     -0.1009         0.025040   
    145. D(H  29,C  12,C   7,C   8)    179.8681         0.024336   
    146. D(H  29,C  12,C   7,P   6)     -0.4687         0.024336   
    147. D(H  29,C  12,C  11,C  10)   -179.7463         0.025040   
    148. D(C  11,C  12,C   7,C   8)      0.2356         0.024336   
    149. D(C  11,C  12,C   7,P   6)    179.8987         0.024336   
    150. D(C  19,C  14,P   6,C   7)    -12.1663         0.003792   
    151. D(C  19,C  14,P   6,C   5)     96.6286         0.003792   
    152. D(C  15,C  14,P   6,C   7)    167.4973         0.003792   
    153. D(C  15,C  14,P   6,C   5)    -83.7078         0.003792   
    154. D(H  30,C  15,C  14,P   6)      0.1913         0.023584   
    155. D(C  16,C  15,C  14,C  19)     -0.2561         0.023584   
    156. D(C  16,C  15,C  14,P   6)   -179.9415         0.023584   
    157. D(H  30,C  15,C  14,C  19)    179.8767         0.023584   
    158. D(H  31,C  16,C  15,H  30)     -0.0440         0.025272   
    159. D(H  31,C  16,C  15,C  14)   -179.9139         0.025272   
    160. D(C  17,C  16,C  15,H  30)   -179.9891         0.025272   
    161. D(C  17,C  16,C  15,C  14)      0.1410         0.025272   
    162. D(Cl 20,C  17,C  16,H  31)      0.1151         0.026919   
    163. D(Cl 20,C  17,C  16,C  15)   -179.9403         0.026919   
    164. D(C  18,C  17,C  16,H  31)   -179.9430         0.026919   
    165. D(C  18,C  17,C  16,C  15)      0.0016         0.026919   
    166. D(H  32,C  18,C  17,Cl 20)     -0.1106         0.026777   
    167. D(H  32,C  18,C  17,C  16)    179.9475         0.026777   
    168. D(C  19,C  18,C  17,Cl 20)    179.9204         0.026777   
    169. D(C  19,C  18,C  17,C  16)     -0.0215         0.026777   
    170. D(H  33,C  19,C  18,H  32)      0.2843         0.025040   
    171. D(H  33,C  19,C  18,C  17)   -179.7463         0.025040   
    172. D(C  14,C  19,C  18,H  32)    179.9299         0.025040   
    173. D(C  14,C  19,C  18,C  17)     -0.1008         0.025040   
    174. D(H  33,C  19,C  14,C  15)    179.8680         0.024336   
    175. D(H  33,C  19,C  14,P   6)     -0.4688         0.024336   
    176. D(C  18,C  19,C  14,C  15)      0.2354         0.024336   
    177. D(C  18,C  19,C  14,P   6)    179.8986         0.024336   
    -----------------------------------------------------------------

Number of atoms                         .... 34
Number of degrees of freedom            .... 177


         *************************************************************
         *                GEOMETRY OPTIMIZATION CYCLE   1            *
         *************************************************************
---------------------------------
CARTESIAN COORDINATES (ANGSTROEM)
---------------------------------
  C     -0.698366   -2.421055   -1.635688
  C     -1.190981   -3.686835   -1.301863
  C     -1.868795   -3.868670   -0.101375
  C     -2.056891   -2.796557    0.765082
  C     -1.562564   -1.530736    0.428945
  C     -0.872772   -1.320769   -0.775245
  P     -0.194841    0.286292   -1.302955
  C      1.555433    0.216422   -0.800587
  C      2.423215    1.202669   -1.306233
  C      3.780320    1.215771   -0.967999
  C      4.289289    0.238459   -0.119777
  C      3.452953   -0.749039    0.391047
  C      2.094951   -0.759803    0.051398
  Cl     5.956737    0.251256    0.300201
  C     -0.940584    1.483326   -0.148966
  C     -2.231063    1.962272   -0.443382
  C     -2.870003    2.883537    0.392880
  C     -2.223880    3.341317    1.535960
  C     -0.946901    2.885540    1.847643
  C     -0.309643    1.963166    1.009326
  Cl    -3.005903    4.472782    2.568021
  Cl    -2.474944   -5.423284    0.314181
  H     -0.171022   -2.303898   -2.581626
  H     -1.041600   -4.520023   -1.983350
  H     -2.586858   -2.933935    1.704111
  H     -1.726683   -0.720448    1.134815
  H      2.048395    1.978710   -1.972481
  H      4.428567    1.989251   -1.371047
  H      3.846682   -1.515420    1.053730
  H      1.474457   -1.545596    0.474800
  H     -2.757680    1.618812   -1.332948
  H     -3.867098    3.236400    0.143419
  H     -0.437766    3.241324    2.739669
  H      0.685839    1.628762    1.290296

----------------------------
CARTESIAN COORDINATES (A.U.)
----------------------------
  NO LB      ZA    FRAG     MASS         X           Y           Z
   0 C     6.0000    0    12.011   -1.319720   -4.575131   -3.091002
   1 C     6.0000    0    12.011   -2.250628   -6.967108   -2.460165
   2 C     6.0000    0    12.011   -3.531511   -7.310727   -0.191571
   3 C     6.0000    0    12.011   -3.886961   -5.284727    1.445795
   4 C     6.0000    0    12.011   -2.952818   -2.892672    0.810589
   5 C     6.0000    0    12.011   -1.649300   -2.495892   -1.465001
   6 P    15.0000    0    30.974   -0.368196    0.541013   -2.462228
   7 C     6.0000    0    12.011    2.939342    0.408978   -1.512890
   8 C     6.0000    0    12.011    4.579213    2.272715   -2.468423
   9 C     6.0000    0    12.011    7.143769    2.297474   -1.829253
  10 C     6.0000    0    12.011    8.105582    0.450622   -0.226346
  11 C     6.0000    0    12.011    6.525136   -1.415479    0.738972
  12 C     6.0000    0    12.011    3.958884   -1.435820    0.097128
  13 Cl   17.0000    0    35.453   11.256602    0.474805    0.567298
  14 C     6.0000    0    12.011   -1.777446    2.803080   -0.281505
  15 C     6.0000    0    12.011   -4.216098    3.708157   -0.837871
  16 C     6.0000    0    12.011   -5.423520    5.449095    0.742436
  17 C     6.0000    0    12.011   -4.202524    6.314174    2.902544
  18 C     6.0000    0    12.011   -1.789384    5.452880    3.491539
  19 C     6.0000    0    12.011   -0.585140    3.709846    1.907350
  20 Cl   17.0000    0    35.453   -5.680333    8.452333    4.852856
  21 Cl   17.0000    0    35.453   -4.676966  -10.248522    0.593716
  22 H     1.0000    0     1.008   -0.323185   -4.353736   -4.878566
  23 H     1.0000    0     1.008   -1.968339   -8.541606   -3.747988
  24 H     1.0000    0     1.008   -4.888453   -5.544334    3.220303
  25 H     1.0000    0     1.008   -3.262958   -1.361449    2.144490
  26 H     1.0000    0     1.008    3.870906    3.739220   -3.727449
  27 H     1.0000    0     1.008    8.368779    3.759140   -2.590903
  28 H     1.0000    0     1.008    7.269176   -2.863729    1.991261
  29 H     1.0000    0     1.008    2.786320   -2.920753    0.897242
  30 H     1.0000    0     1.008   -5.211260    3.059111   -2.518907
  31 H     1.0000    0     1.008   -7.307756    6.115910    0.271023
  32 H     1.0000    0     1.008   -0.827258    6.125215    5.177224
  33 H     1.0000    0     1.008    1.296048    3.077914    2.438306

--------------------------------
INTERNAL COORDINATES (ANGSTROEM)
--------------------------------
 C      0   0   0     0.000000000000     0.00000000     0.00000000
 C      1   0   0     1.398680691670     0.00000000     0.00000000
 C      2   1   0     1.390563635353   119.73978162     0.00000000
 C      3   2   1     1.391241935407   120.18526707     0.00000000
 C      4   3   2     1.399875019328   119.96914430     0.00000000
 C      5   4   3     1.403557159667   120.98595339   359.89907413
 P      6   5   4     1.822282454117   124.27848031   179.89862007
 C      7   6   5     1.822282771526   104.10354510    96.63090373
 C      8   7   6     1.407624460518   117.78998101   167.50053132
 C      9   8   7     1.398680764930   121.18863426   180.05842134
 C     10   9   8     1.390564183916   119.73976008     0.14098907
 C     11  10   9     1.391240943861   120.18524468     0.00000000
 C     12  11  10     1.399873829636   119.96921516     0.00000000
 Cl    11  10   9     1.719572073627   119.91204279   180.05983777
 C      7   6   5     1.822282533343   104.10350767   347.83613484
 C     15   7   6     1.407624275655   117.79000601   276.29223838
 C     16  15   7     1.398680684241   121.18862366   180.05851288
 C     17  16  15     1.390564398339   119.73975951     0.14104808
 C     18  17  16     1.391242010816   120.18527593     0.00000000
 C     19  18  17     1.399873903939   119.96912872     0.00000000
 Cl    18  17  16     1.719570564552   119.91206747   180.05970788
 Cl     3   2   1     1.719572065467   119.91211809   180.05980007
 H      1   2   3     1.089319125339   118.36515054   180.01082374
 H      2   1   3     1.086711303739   119.72038020   179.94538619
 H      4   3   2     1.086974332178   120.43433617   179.94763619
 H      5   4   3     1.087085160420   117.69545850   180.25350045
 H      9   8   7     1.089319082540   120.44609388     0.19126297
 H     10   9   8     1.086712093295   119.72039184   180.08609225
 H     12  11  10     1.086973376441   120.43422125   179.94753074
 H     13  12  11     1.087084493721   117.69551159   180.25368980
 H     16  15   7     1.089319927590   120.44607889     0.19131769
 H     17  16  15     1.086711335321   119.72044317   180.08612538
 H     19  18  17     1.086973361015   120.43426315   179.94752548
 H     20  19  18     1.087085363916   117.69549413   180.25365311

---------------------------
INTERNAL COORDINATES (A.U.)
---------------------------
 C      0   0   0     0.000000000000     0.00000000     0.00000000
 C      1   0   0     2.643123456060     0.00000000     0.00000000
 C      2   1   0     2.627784442606   119.73978162     0.00000000
 C      3   2   1     2.629066243945   120.18526707     0.00000000
 C      4   3   2     2.645380408248   119.96914430     0.00000000
 C      5   4   3     2.652338645075   120.98595339   359.89907413
 P      6   5   4     3.443614776931   124.27848031   179.89862007
 C      7   6   5     3.443615376747   104.10354510    96.63090373
 C      8   7   6     2.660024729788   117.78998101   167.50053132
 C      9   8   7     2.643123594501   121.18863426   180.05842134
 C     10   9   8     2.627785479240   119.73976008     0.14098907
 C     11  10   9     2.629064370196   120.18524468     0.00000000
 C     12  11  10     2.645378160056   119.96921516     0.00000000
 Cl    11  10   9     3.249520286694   119.91204279   180.05983777
 C      7   6   5     3.443614926646   104.10350767   347.83613484
 C     15   7   6     2.660024380447   117.79000601   276.29223838
 C     16  15   7     2.643123442021   121.18862366   180.05851288
 C     17  16  15     2.627785884442   119.73975951     0.14104808
 C     18  17  16     2.629066386448   120.18527593     0.00000000
 C     19  18  17     2.645378300468   119.96912872     0.00000000
 Cl    18  17  16     3.249517434956   119.91206747   180.05970788
 Cl     3   2   1     3.249520271273   119.91211809   180.05980007
 H      1   2   3     2.058514819333   118.36515054   180.01082374
 H      2   1   3     2.053586750703   119.72038020   179.94538619
 H      4   3   2     2.054083802419   120.43433617   179.94763619
 H      5   4   3     2.054293237443   117.69545850   180.25350045
 H      9   8   7     2.058514738454   120.44609388     0.19126297
 H     10   9   8     2.053588242747   119.72039184   180.08609225
 H     12  11  10     2.054081996337   120.43422125   179.94753074
 H     13  12  11     2.054291977565   117.69551159   180.25368980
 H     16  15   7     2.058516335368   120.44607889     0.19131769
 H     17  16  15     2.053586810384   119.72044317   180.08612538
 H     19  18  17     2.054081967187   120.43426315   179.94752548
 H     20  19  18     2.054293621995   117.69549413   180.25365311

---------------------
BASIS SET INFORMATION
---------------------
There are 4 groups of distinct atoms

 Group   1 Type C   : 7s4p1d contracted to 3s2p1d pattern {511/31/1}
 Group   2 Type P   : 10s7p1d contracted to 4s3p1d pattern {5311/511/1}
 Group   3 Type Cl  : 10s7p1d contracted to 4s3p1d pattern {5311/511/1}
 Group   4 Type H   : 4s1p contracted to 2s1p pattern {31/1}

Atom   0C    basis set group =>   1
Atom   1C    basis set group =>   1
Atom   2C    basis set group =>   1
Atom   3C    basis set group =>   1
Atom   4C    basis set group =>   1
Atom   5C    basis set group =>   1
Atom   6P    basis set group =>   2
Atom   7C    basis set group =>   1
Atom   8C    basis set group =>   1
Atom   9C    basis set group =>   1
Atom  10C    basis set group =>   1
Atom  11C    basis set group =>   1
Atom  12C    basis set group =>   1
Atom  13Cl   basis set group =>   3
Atom  14C    basis set group =>   1
Atom  15C    basis set group =>   1
Atom  16C    basis set group =>   1
Atom  17C    basis set group =>   1
Atom  18C    basis set group =>   1
Atom  19C    basis set group =>   1
Atom  20Cl   basis set group =>   3
Atom  21Cl   basis set group =>   3
Atom  22H    basis set group =>   4
Atom  23H    basis set group =>   4
Atom  24H    basis set group =>   4
Atom  25H    basis set group =>   4
Atom  26H    basis set group =>   4
Atom  27H    basis set group =>   4
Atom  28H    basis set group =>   4
Atom  29H    basis set group =>   4
Atom  30H    basis set group =>   4
Atom  31H    basis set group =>   4
Atom  32H    basis set group =>   4
Atom  33H    basis set group =>   4
---------------------------------
AUXILIARY/J BASIS SET INFORMATION
---------------------------------
There are 4 groups of distinct atoms

 Group   1 Type C   : 12s5p4d2f1g contracted to 6s4p3d1f1g pattern {711111/2111/211/2/1}
 Group   2 Type P   : 14s5p5d2f1g contracted to 8s4p3d1f1g pattern {71111111/2111/311/2/1}
 Group   3 Type Cl  : 14s5p5d2f1g contracted to 8s4p3d1f1g pattern {71111111/2111/311/2/1}
 Group   4 Type H   : 5s2p1d contracted to 3s1p1d pattern {311/2/1}

Atom   0C    basis set group =>   1
Atom   1C    basis set group =>   1
Atom   2C    basis set group =>   1
Atom   3C    basis set group =>   1
Atom   4C    basis set group =>   1
Atom   5C    basis set group =>   1
Atom   6P    basis set group =>   2
Atom   7C    basis set group =>   1
Atom   8C    basis set group =>   1
Atom   9C    basis set group =>   1
Atom  10C    basis set group =>   1
Atom  11C    basis set group =>   1
Atom  12C    basis set group =>   1
Atom  13Cl   basis set group =>   3
Atom  14C    basis set group =>   1
Atom  15C    basis set group =>   1
Atom  16C    basis set group =>   1
Atom  17C    basis set group =>   1
Atom  18C    basis set group =>   1
Atom  19C    basis set group =>   1
Atom  20Cl   basis set group =>   3
Atom  21Cl   basis set group =>   3
Atom  22H    basis set group =>   4
Atom  23H    basis set group =>   4
Atom  24H    basis set group =>   4
Atom  25H    basis set group =>   4
Atom  26H    basis set group =>   4
Atom  27H    basis set group =>   4
Atom  28H    basis set group =>   4
Atom  29H    basis set group =>   4
Atom  30H    basis set group =>   4
Atom  31H    basis set group =>   4
Atom  32H    basis set group =>   4
Atom  33H    basis set group =>   4


           ************************************************************
           *        Program running with 6 parallel MPI-processes     *
           *              working on a common directory               *
           ************************************************************
------------------------------------------------------------------------------
                             ORCA STARTUP CALCULATIONS
                           -- RI-GTO INTEGRALS CHOSEN --
------------------------------------------------------------------------------
------------------------------------------------------------------------------
                   ___                                                        
                  /   \      - P O W E R E D   B Y -                         
                 /     \                                                     
                 |  |  |   _    _      __       _____    __    __             
                 |  |  |  | |  | |    /  \     |  _  \  |  |  /  |          
                  \  \/   | |  | |   /    \    | | | |  |  | /  /          
                 / \  \   | |__| |  /  /\  \   | |_| |  |  |/  /          
                |  |  |   |  __  | /  /__\  \  |    /   |      \           
                |  |  |   | |  | | |   __   |  |    \   |  |\   \          
                \     /   | |  | | |  |  |  |  | |\  \  |  | \   \       
                 \___/    |_|  |_| |__|  |__|  |_| \__\ |__|  \__/        
                                                                              
                      - O R C A' S   B I G   F R I E N D -                    
                                      &                                       
                       - I N T E G R A L  F E E D E R -                       
                                                                              
 v1 FN, 2020, v2 2021, v3 2022-2024                                           
------------------------------------------------------------------------------


----------------------
SHARK INTEGRAL PACKAGE
----------------------

Number of atoms                             ...     34
Number of basis functions                   ...    384
Number of shells                            ...    176
Maximum angular momentum                    ...      2
Integral batch strategy                     ... SHARK/LIBINT Hybrid
RI-J (if used) integral strategy            ... SPLIT-RIJ (Revised 2003 algorithm where possible)
Printlevel                                  ...      1
Contraction scheme used                     ... SEGMENTED contraction
Prescreening option                         ... SCHWARTZ
   Thresh                                   ... 2.500e-11
   Tcut                                     ... 2.500e-12
   Tpresel                                  ... 2.500e-12 
Coulomb Range Separation                    ... NOT USED
Exchange Range Separation                   ... NOT USED
Multipole approximations                    ... NOT USED
Finite Nucleus Model                        ... NOT USED
CABS basis                                  ... NOT available
Auxiliary Coulomb fitting basis             ... AVAILABLE
   # of basis functions in Aux-J            ...   1218
   # of shells in Aux-J                     ...    398
   Maximum angular momentum in Aux-J        ...      4
Auxiliary J/K fitting basis                 ... NOT available
Auxiliary Correlation fitting basis         ... NOT available
Auxiliary 'external' fitting basis          ... NOT available

Checking pre-screening integrals            ... done (  0.0 sec) Dimension = 176
Check shell pair data                       ... done (  0.0 sec)
Shell pair information
Shell pair cut-off parameter TPreSel        ...   2.5e-12
Total number of shell pairs                 ...     15576
Shell pairs after pre-screening             ...     11089
Total number of primitive shell pairs       ...     61088
Primitive shell pairs kept                  ...     26842
          la=0 lb=0:   3256 shell pairs
          la=1 lb=0:   4126 shell pairs
          la=1 lb=1:   1351 shell pairs
          la=2 lb=0:   1342 shell pairs
          la=2 lb=1:    875 shell pairs
          la=2 lb=2:    139 shell pairs

Calculating one electron integrals          ... done (  0.0 sec)
Calculating RI/J V-Matrix + Cholesky decomp.... done (  0.1 sec)
Calculating Nuclear repulsion               ... done (  0.0 sec) ENN=   2098.887953899335 Eh

Diagonalization of the overlap matrix:
Smallest eigenvalue                        ... 2.527e-04
Time for diagonalization                   ...    0.020 sec
Threshold for overlap eigenvalues          ... 1.000e-07
Number of eigenvalues below threshold      ... 0
Time for construction of square roots      ...    0.010 sec
Total time needed                          ...    0.031 sec

-------------------
DFT GRID GENERATION
-------------------

General Integration Accuracy     IntAcc      ... 4.388
Radial Grid Type                 RadialGrid  ... OptM3 with GC (2021)
Angular Grid (max. ang.)         AngularGrid ... 4 (Lebedev-302)
Angular grid pruning method      GridPruning ... 4 (adaptive)
Weight generation scheme         WeightScheme... mBecke (2022)
Basis function cutoff            BFCut       ... 1.0000e-11
Integration weight cutoff        WCut        ... 1.0000e-14
Partially contracted basis set               ... off
Rotationally invariant grid construction     ... off
Angular grids for H and He will be reduced by one unit

Total number of grid points                  ...   174865
Total number of batches                      ...     2749
Average number of points per batch           ...       63
Average number of grid points per atom       ...     5143
Initializing property integral containers    ... done (  0.0 sec)

SHARK setup successfully completed in   1.3 seconds

Maximum memory used throughout the entire STARTUP-calculation: 47.9 MB


           ************************************************************
           *        Program running with 6 parallel MPI-processes     *
           *              working on a common directory               *
           ************************************************************
-------------------------------------------------------------------------------
                                 ORCA GUESS
                   Start orbitals & Density for SCF / CASSCF
-------------------------------------------------------------------------------

------------
SCF SETTINGS
------------
Hamiltonian:
 Density Functional     Method          .... DFT(GTOs)
 Exchange Functional    Exchange        .... B88
   X-Alpha parameter    XAlpha          ....  0.666667
   Becke's b parameter  XBeta           ....  0.004200
 Correlation Functional Correlation     .... LYP
 LDA part of GGA corr.  LDAOpt          .... VWN-5
 Gradients option       PostSCFGGA      .... off
 Hybrid DFT is turned on
   Fraction HF Exchange ScalHFX         ....  0.200000
   Scaling of DF-GGA-X  ScalDFX         ....  0.720000
   Scaling of DF-GGA-C  ScalDFC         ....  0.810000
   Scaling of DF-LDA-C  ScalLDAC        ....  1.000000
   Perturbative correction              ....  0.000000
   NL short-range parameter             ....  4.800000
 RI-approximation to the Coulomb term is turned on
   Number of AuxJ basis functions       .... 1218
   RIJ-ON(X) (HFX calculated with O(N)) .... on


General Settings:
 Integral files         IntName         .... data/geom_opt/70874/70874
 Hartree-Fock type      HFTyp           .... RHF
 Total Charge           Charge          ....    0
 Multiplicity           Mult            ....    1
 Number of Electrons    NEL             ....  186
 Basis Dimension        Dim             ....  384
 Nuclear Repulsion      ENuc            ....   2098.8879538993 Eh

Convergence Acceleration:
 AO-DIIS                CNVDIIS         .... on
   Start iteration      DIISMaxIt       ....    12
   Startup error        DIISStart       ....  0.200000
   # of expansion vecs  DIISMaxEq       ....     5
   Bias factor          DIISBfac        ....   1.050
   Max. coefficient     DIISMaxC        ....  10.000
 MO-DIIS                CNVKDIIS        .... off
 Trust-Rad. Augm. Hess. CNVTRAH         .... auto
   Auto Start mean grad. ratio tolernc. ....  1.125000
   Auto Start start iteration           ....    50
   Auto Start num. interpolation iter.  ....    10
   Max. Number of Micro iterations      ....    24
   Max. Number of Macro iterations      .... Maxiter - #DIIS iter
   Number of Davidson start vectors     ....     2
   Converg. threshold    (grad. norm)   ....   1.000e-05
   Grad. Scal. Fac. for Micro threshold ....   0.100
   Minimum threshold for Micro iter.    ....   1.000e-02
   NR start threshold (gradient norm)   ....   1.000e-04
   Initial trust radius                 ....   0.400
   Minimum AH scaling param. (alpha)    ....   1.000
   Maximum AH scaling param. (alpha)    .... 1000.000
   Quad. conv. algorithm                .... NR
   White noise on init. David. guess    .... on
   Maximum white noise                  ....   0.010
   Pseudo random numbers                .... off
   Inactive MOs                         .... canonical
   Orbital update algorithm             .... Taylor
   Preconditioner                       .... Diag
   Full preconditioner red. dimension   ....   250
   COSX micro iterations for RIJONX calc.... off
 SOSCF                  CNVSOSCF        .... on
   Start iteration      SOSCFMaxIt      ....   150
   Startup grad/error   SOSCFStart      ....  0.003300
   Hessian update       SOSCFHessUp     .... L-BFGS
 Level Shifting         CNVShift        .... on
   Level shift para.    LevelShift      ....    0.2500
   Turn off err/grad.   ShiftErr        ....    0.0010
 Zerner damping         CNVZerner       .... off
 Static damping         CNVDamp         .... on
   Fraction old density DampFac         ....    0.7000
   Max. Damping (<1)    DampMax         ....    0.9800
   Min. Damping (>=0)   DampMin         ....    0.0000
   Turn off err/grad.   DampErr         ....    0.1000

SCF Procedure:
 Maximum # iterations   MaxIter         ....   125
 SCF integral mode      SCFMode         .... Direct
   Integral package                     .... SHARK and LIBINT hybrid scheme
 Reset frequency        DirectResetFreq ....    20
 Integral Threshold     Thresh          ....  2.500e-11 Eh
 Primitive CutOff       TCut            ....  2.500e-12 Eh

Convergence Tolerance:
 Convergence Check Mode ConvCheckMode   .... Total+1el-Energy
 Convergence forced     ConvForced      .... 0
 Energy Change          TolE            ....  1.000e-08 Eh
 1-El. energy change                    ....  1.000e-05 Eh
 Orbital Gradient       TolG            ....  1.000e-05
 Orbital Rotation angle TolX            ....  1.000e-05
 DIIS Error             TolErr          ....  5.000e-07

------------------------------
INITIAL GUESS: MODEL POTENTIAL
------------------------------
Loading Hartree-Fock densities                     ... done
Calculating cut-offs                               ... done
Initializing the effective Hamiltonian             ... done
Setting up the integral package (SHARK)            ... done
Starting the Coulomb interaction                   ... done (   0.2 sec)
Making the grid                                    ... done (   0.2 sec)
Mapping shells                                     ... done
Starting the XC term evaluation                    ... done (   0.1 sec)
  promolecular density results
     # of electrons  =    185.989426078
     EX              =   -201.357238958
     EC              =     -6.791586847
     EX+EC           =   -208.148825805
Transforming the Hamiltonian                       ... done (   0.0 sec)
Diagonalizing the Hamiltonian                      ... done (   0.0 sec)
Back transforming the eigenvectors                 ... done (   0.0 sec)
Now organizing SCF variables                       ... done
                      ------------------
                      INITIAL GUESS DONE (   0.6 sec)
                      ------------------
             **** ENERGY FILE WAS UPDATED (data/geom_opt/70874/70874.en.tmp) ****
Finished Guess after   0.7 sec
Maximum memory used throughout the entire GUESS-calculation: 26.6 MB


           ************************************************************
           *        Program running with 6 parallel MPI-processes     *
           *              working on a common directory               *
           ************************************************************

-------------------------------------------------------------------------------------------
                                      ORCA LEAN-SCF
                              memory conserving SCF solver
-------------------------------------------------------------------------------------------

----------------------------------------D-I-I-S--------------------------------------------
Iteration    Energy (Eh)           Delta-E    RMSDP     MaxDP     DIISErr   Damp  Time(sec)
-------------------------------------------------------------------------------------------
               ***  Starting incremental Fock matrix formation  ***
    1    -2413.0418102388998705     0.00e+00  2.29e-03  5.52e-02  1.09e-01  0.700   5.1
    2    -2413.2117825593873022    -1.70e-01  1.61e-03  4.32e-02  6.07e-02  0.700   4.3
                               ***Turning on AO-DIIS***
    3    -2413.2830935754614075    -7.13e-02  7.49e-04  3.08e-02  2.69e-02  0.700   4.4
    4    -2413.3243897558800199    -4.13e-02  1.49e-03  6.97e-02  1.43e-02  0.000   4.2
    5    -2413.4138561618105996    -8.95e-02  2.13e-04  9.44e-03  4.86e-03  0.000   4.1
                              *** Initializing SOSCF ***
---------------------------------------S-O-S-C-F--------------------------------------
Iteration    Energy (Eh)           Delta-E    RMSDP     MaxDP     MaxGrad    Time(sec)
--------------------------------------------------------------------------------------
    6    -2413.4144273542501651    -5.71e-04  7.13e-05  3.78e-03  1.17e-03     3.6
               *** Restarting incremental Fock matrix formation ***
    7    -2413.4144664367236146    -3.91e-05  5.33e-05  1.54e-03  2.45e-04     4.9
    8    -2413.4144596325854764     6.80e-06  2.52e-05  6.44e-04  5.35e-04     3.3
    9    -2413.4144720083190805    -1.24e-05  1.36e-05  4.07e-04  1.16e-04     3.1
   10    -2413.4144716005353075     4.08e-07  7.07e-06  1.67e-04  1.37e-04     2.9
   11    -2413.4144725471355741    -9.47e-07  2.52e-06  1.42e-04  1.66e-05     2.7
   12    -2413.4144725361961719     1.09e-08  1.45e-06  7.58e-05  2.67e-05     2.5
   13    -2413.4144725658366042    -2.96e-08  6.32e-07  3.84e-05  3.16e-06     2.3
   14    -2413.4144725535811631     1.23e-08  3.29e-07  2.18e-05  2.75e-06     2.0
   15    -2413.4144725724650016    -1.89e-08  1.72e-07  6.15e-06  4.78e-07     1.8
                  *** Gradient check signals convergence ***

               *****************************************************
               *                     SUCCESS                       *
               *           SCF CONVERGED AFTER  15 CYCLES          *
               *****************************************************

             **** ENERGY FILE WAS UPDATED (data/geom_opt/70874/70874.en.tmp) ****

----------------
TOTAL SCF ENERGY
----------------

Total Energy       :      -2413.41447257246500 Eh          -65672.34652 eV

Components:
Nuclear Repulsion  :       2098.88795389933466 Eh           57113.64483 eV
Electronic Energy  :      -4512.30242647179966 Eh         -122785.99134 eV
One Electron Energy:      -7489.57726848641323 Eh         -203801.75856 eV
Two Electron Energy:       2977.27484201461357 Eh           81015.76721 eV

Virial components:
Potential Energy   :      -4816.20093257319513 Eh         -131055.49011 eV
Kinetic Energy     :       2402.78646000073013 Eh           65383.14359 eV
Virial Ratio       :          2.00442320312215

DFT components:
N(Alpha)           :       92.999971051475 electrons
N(Beta)            :       92.999971051475 electrons
N(Total)           :      185.999942102949 electrons
E(X)               :     -160.954180948493 Eh       
E(C)               :       -7.974712738256 Eh       
E(XC)              :     -168.928893686749 Eh       

---------------
SCF CONVERGENCE
---------------

  Last Energy change         ...    1.8884e-08  Tolerance :   1.0000e-08
  Last MAX-Density change    ...    6.1457e-06  Tolerance :   1.0000e-07
  Last RMS-Density change    ...    1.7229e-07  Tolerance :   5.0000e-09
  Last DIIS Error            ...    1.1734e-03  Tolerance :   5.0000e-07
  Last Orbital Gradient      ...    4.7815e-07  Tolerance :   1.0000e-05
  Last Orbital Rotation      ...    8.1520e-07  Tolerance :   1.0000e-05


----------------
ORBITAL ENERGIES
----------------

  NO   OCC          E(Eh)            E(eV) 
   0   2.0000    -101.506407     -2762.1298 
   1   2.0000    -101.506406     -2762.1297 
   2   2.0000    -101.506405     -2762.1297 
   3   2.0000     -77.059805     -2096.9039 
   4   2.0000     -10.249002      -278.8895 
   5   2.0000     -10.248997      -278.8894 
   6   2.0000     -10.248996      -278.8894 
   7   2.0000     -10.207885      -277.7707 
   8   2.0000     -10.207873      -277.7704 
   9   2.0000     -10.207870      -277.7703 
  10   2.0000     -10.206403      -277.7303 
  11   2.0000     -10.206382      -277.7298 
  12   2.0000     -10.206377      -277.7296 
  13   2.0000     -10.205614      -277.7089 
  14   2.0000     -10.205608      -277.7087 
  15   2.0000     -10.205606      -277.7087 
  16   2.0000     -10.205104      -277.6950 
  17   2.0000     -10.205099      -277.6949 
  18   2.0000     -10.205090      -277.6946 
  19   2.0000     -10.204786      -277.6863 
  20   2.0000     -10.204784      -277.6863 
  21   2.0000     -10.204713      -277.6844 
  22   2.0000      -9.461544      -257.4617 
  23   2.0000      -9.461543      -257.4617 
  24   2.0000      -9.461542      -257.4617 
  25   2.0000      -7.230446      -196.7504 
  26   2.0000      -7.230444      -196.7504 
  27   2.0000      -7.230442      -196.7503 
  28   2.0000      -7.220866      -196.4898 
  29   2.0000      -7.220865      -196.4897 
  30   2.0000      -7.220865      -196.4897 
  31   2.0000      -7.220361      -196.4760 
  32   2.0000      -7.220358      -196.4759 
  33   2.0000      -7.220357      -196.4759 
  34   2.0000      -6.556445      -178.4099 
  35   2.0000      -4.721876      -128.4888 
  36   2.0000      -4.721875      -128.4888 
  37   2.0000      -4.718897      -128.4077 
  38   2.0000      -0.896385       -24.3919 
  39   2.0000      -0.895137       -24.3579 
  40   2.0000      -0.895134       -24.3578 
  41   2.0000      -0.847301       -23.0562 
  42   2.0000      -0.836506       -22.7625 
  43   2.0000      -0.836502       -22.7624 
  44   2.0000      -0.762736       -20.7551 
  45   2.0000      -0.755685       -20.5632 
  46   2.0000      -0.755683       -20.5632 
  47   2.0000      -0.755367       -20.5546 
  48   2.0000      -0.729649       -19.8547 
  49   2.0000      -0.729646       -19.8547 
  50   2.0000      -0.645635       -17.5686 
  51   2.0000      -0.622379       -16.9358 
  52   2.0000      -0.622378       -16.9358 
  53   2.0000      -0.622029       -16.9263 
  54   2.0000      -0.598353       -16.2820 
  55   2.0000      -0.598350       -16.2819 
  56   2.0000      -0.570354       -15.5201 
  57   2.0000      -0.521824       -14.1996 
  58   2.0000      -0.521819       -14.1994 
  59   2.0000      -0.493572       -13.4308 
  60   2.0000      -0.482035       -13.1168 
  61   2.0000      -0.481575       -13.1043 
  62   2.0000      -0.481574       -13.1043 
  63   2.0000      -0.464689       -12.6448 
  64   2.0000      -0.464687       -12.6448 
  65   2.0000      -0.456121       -12.4117 
  66   2.0000      -0.437671       -11.9096 
  67   2.0000      -0.437185       -11.8964 
  68   2.0000      -0.437180       -11.8963 
  69   2.0000      -0.429259       -11.6807 
  70   2.0000      -0.429257       -11.6807 
  71   2.0000      -0.404772       -11.0144 
  72   2.0000      -0.403893       -10.9905 
  73   2.0000      -0.403890       -10.9904 
  74   2.0000      -0.394982       -10.7480 
  75   2.0000      -0.370697       -10.0872 
  76   2.0000      -0.370696       -10.0872 
  77   2.0000      -0.369475       -10.0539 
  78   2.0000      -0.351235        -9.5576 
  79   2.0000      -0.351234        -9.5576 
  80   2.0000      -0.341847        -9.3021 
  81   2.0000      -0.334815        -9.1108 
  82   2.0000      -0.334814        -9.1108 
  83   2.0000      -0.312306        -8.4983 
  84   2.0000      -0.312280        -8.4976 
  85   2.0000      -0.312279        -8.4976 
  86   2.0000      -0.275311        -7.4916 
  87   2.0000      -0.273720        -7.4483 
  88   2.0000      -0.270331        -7.3561 
  89   2.0000      -0.270330        -7.3561 
  90   2.0000      -0.255563        -6.9542 
  91   2.0000      -0.255561        -6.9542 
  92   2.0000      -0.215614        -5.8672 
  93   0.0000      -0.038977        -1.0606 
  94   0.0000      -0.038976        -1.0606 
  95   0.0000      -0.036701        -0.9987 
  96   0.0000      -0.020309        -0.5526 
  97   0.0000      -0.020307        -0.5526 
  98   0.0000      -0.020074        -0.5462 
  99   0.0000       0.040546         1.1033 
 100   0.0000       0.040554         1.1035 
 101   0.0000       0.043020         1.1706 
 102   0.0000       0.072861         1.9826 
 103   0.0000       0.072863         1.9827 
*Only the first 10 virtual orbitals were printed.

                    ********************************
                    * MULLIKEN POPULATION ANALYSIS *
                    ********************************

-----------------------
MULLIKEN ATOMIC CHARGES
-----------------------
   0 C :    0.015213
   1 C :    0.031639
   2 C :    0.065552
   3 C :    0.037330
   4 C :    0.006035
   5 C :   -0.133467
   6 P :    0.348191
   7 C :   -0.133430
   8 C :    0.015272
   9 C :    0.031758
  10 C :    0.065359
  11 C :    0.037410
  12 C :    0.005893
  13 Cl:   -0.089645
  14 C :   -0.133416
  15 C :    0.015245
  16 C :    0.031655
  17 C :    0.065566
  18 C :    0.037268
  19 C :    0.005983
  20 Cl:   -0.089657
  21 Cl:   -0.089649
  22 H :   -0.009367
  23 H :   -0.018101
  24 H :   -0.020216
  25 H :   -0.001042
  26 H :   -0.009375
  27 H :   -0.018097
  28 H :   -0.020194
  29 H :   -0.001014
  30 H :   -0.009406
  31 H :   -0.018079
  32 H :   -0.020214
  33 H :   -0.000999
Sum of atomic charges:   -0.0000000

--------------------------------
MULLIKEN REDUCED ORBITAL CHARGES
--------------------------------
  0 C s       :     3.219204  s :     3.219204
      pz      :     0.885518  p :     2.730544
      px      :     0.933576
      py      :     0.911450
      dz2     :     0.007026  d :     0.035039
      dxz     :     0.004474
      dyz     :     0.009444
      dx2y2   :     0.006839
      dxy     :     0.007257

  1 C s       :     3.228213  s :     3.228213
      pz      :     0.909607  p :     2.705833
      px      :     0.976593
      py      :     0.819633
      dz2     :     0.007480  d :     0.034314
      dxz     :     0.005191
      dyz     :     0.009991
      dx2y2   :     0.006409
      dxy     :     0.005243

  2 C s       :     2.973535  s :     2.973535
      pz      :     1.033696  p :     2.906763
      px      :     1.013422
      py      :     0.859645
      dz2     :     0.011897  d :     0.054150
      dxz     :     0.006931
      dyz     :     0.014427
      dx2y2   :     0.010285
      dxy     :     0.010609

  3 C s       :     3.228498  s :     3.228498
      pz      :     0.849783  p :     2.699863
      px      :     0.943951
      py      :     0.906130
      dz2     :     0.006511  d :     0.034309
      dxz     :     0.004299
      dyz     :     0.009978
      dx2y2   :     0.006528
      dxy     :     0.006993

  4 C s       :     3.231923  s :     3.231923
      pz      :     0.920776  p :     2.726825
      px      :     0.965193
      py      :     0.840856
      dz2     :     0.007359  d :     0.035217
      dxz     :     0.004733
      dyz     :     0.010989
      dx2y2   :     0.006287
      dxy     :     0.005848

  5 C s       :     3.072667  s :     3.072667
      pz      :     0.991995  p :     3.024349
      px      :     1.027965
      py      :     1.004389
      dz2     :     0.008790  d :     0.036452
      dxz     :     0.005805
      dyz     :     0.010984
      dx2y2   :     0.005406
      dxy     :     0.005467

  6 P s       :     5.636607  s :     5.636607
      pz      :     3.305760  p :     8.833610
      px      :     2.756653
      py      :     2.771197
      dz2     :     0.019746  d :     0.181592
      dxz     :     0.032224
      dyz     :     0.037145
      dx2y2   :     0.054027
      dxy     :     0.038449

  7 C s       :     3.072603  s :     3.072603
      pz      :     0.999514  p :     3.024376
      px      :     1.002733
      py      :     1.022129
      dz2     :     0.006009  d :     0.036452
      dxz     :     0.007636
      dyz     :     0.005618
      dx2y2   :     0.009282
      dxy     :     0.007907

  8 C s       :     3.219140  s :     3.219140
      pz      :     0.924144  p :     2.730549
      px      :     0.892889
      py      :     0.913517
      dz2     :     0.003612  d :     0.035039
      dxz     :     0.007765
      dyz     :     0.004894
      dx2y2   :     0.009422
      dxy     :     0.009345

  9 C s       :     3.228158  s :     3.228158
      pz      :     0.957792  p :     2.705770
      px      :     0.846827
      py      :     0.901151
      dz2     :     0.005236  d :     0.034314
      dxz     :     0.007157
      dyz     :     0.004607
      dx2y2   :     0.007584
      dxy     :     0.009729

 10 C s       :     2.973618  s :     2.973618
      pz      :     1.028447  p :     2.906872
      px      :     0.827979
      py      :     1.050446
      dz2     :     0.008123  d :     0.054150
      dxz     :     0.011185
      dyz     :     0.006491
      dx2y2   :     0.015549
      dxy     :     0.012803

 11 C s       :     3.228441  s :     3.228441
      pz      :     0.919888  p :     2.699840
      px      :     0.882667
      py      :     0.897285
      dz2     :     0.003723  d :     0.034309
      dxz     :     0.007650
      dyz     :     0.004582
      dx2y2   :     0.008377
      dxy     :     0.009977

 12 C s       :     3.231964  s :     3.231964
      pz      :     0.939727  p :     2.726926
      px      :     0.860277
      py      :     0.926922
      dz2     :     0.005083  d :     0.035217
      dxz     :     0.007544
      dyz     :     0.004568
      dx2y2   :     0.008241
      dxy     :     0.009781

 13 Cls       :     5.941568  s :     5.941568
      pz      :     3.887126  p :    11.109577
      px      :     3.279539
      py      :     3.942911
      dz2     :     0.005236  d :     0.038500
      dxz     :     0.010328
      dyz     :     0.000562
      dx2y2   :     0.015598
      dxy     :     0.006775

 14 C s       :     3.072679  s :     3.072679
      pz      :     0.985195  p :     3.024285
      px      :     1.018459
      py      :     1.020630
      dz2     :     0.008548  d :     0.036452
      dxz     :     0.008574
      dyz     :     0.006161
      dx2y2   :     0.006189
      dxy     :     0.006981

 15 C s       :     3.219181  s :     3.219181
      pz      :     0.876075  p :     2.730535
      px      :     0.927435
      py      :     0.927025
      dz2     :     0.006261  d :     0.035039
      dxz     :     0.009154
      dyz     :     0.004983
      dx2y2   :     0.007381
      dxy     :     0.007260

 16 C s       :     3.228196  s :     3.228196
      pz      :     0.939764  p :     2.705835
      px      :     0.829715
      py      :     0.936356
      dz2     :     0.008768  d :     0.034314
      dxz     :     0.007602
      dyz     :     0.006317
      dx2y2   :     0.005725
      dxy     :     0.005902

 17 C s       :     2.973571  s :     2.973571
      pz      :     0.960584  p :     2.906713
      px      :     1.005162
      py      :     0.940967
      dz2     :     0.010833  d :     0.054150
      dxz     :     0.013057
      dyz     :     0.009963
      dx2y2   :     0.009890
      dxy     :     0.010407

 18 C s       :     3.228507  s :     3.228507
      pz      :     0.844880  p :     2.699916
      px      :     0.917669
      py      :     0.937368
      dz2     :     0.006484  d :     0.034309
      dxz     :     0.008100
      dyz     :     0.005134
      dx2y2   :     0.007531
      dxy     :     0.007060

 19 C s       :     3.231929  s :     3.231929
      pz      :     0.925951  p :     2.726872
      px      :     0.870444
      py      :     0.930476
      dz2     :     0.008524  d :     0.035217
      dxz     :     0.008070
      dyz     :     0.006704
      dx2y2   :     0.006425
      dxy     :     0.005493

 20 Cls       :     5.941567  s :     5.941567
      pz      :     3.685466  p :    11.109590
      px      :     3.801633
      py      :     3.622491
      dz2     :     0.005278  d :     0.038500
      dxz     :     0.007756
      dyz     :     0.011522
      dx2y2   :     0.006215
      dxy     :     0.007729

 21 Cls       :     5.941563  s :     5.941563
      pz      :     3.905522  p :    11.109587
      px      :     3.836711
      py      :     3.367353
      dz2     :     0.005134  d :     0.038500
      dxz     :     0.001452
      dyz     :     0.008200
      dx2y2   :     0.011740
      dxy     :     0.011973

 22 H s       :     0.986259  s :     0.986259
      pz      :     0.012488  p :     0.023108
      px      :     0.007026
      py      :     0.003593

 23 H s       :     0.994879  s :     0.994879
      pz      :     0.008182  p :     0.023222
      px      :     0.004558
      py      :     0.010482

 24 H s       :     0.997038  s :     0.997038
      pz      :     0.012372  p :     0.023177
      px      :     0.007203
      py      :     0.003602

 25 H s       :     0.977372  s :     0.977372
      pz      :     0.008472  p :     0.023670
      px      :     0.004588
      py      :     0.010609

 26 H s       :     0.986267  s :     0.986267
      pz      :     0.008572  p :     0.023108
      px      :     0.004927
      py      :     0.009608

 27 H s       :     0.994875  s :     0.994875
      pz      :     0.005791  p :     0.023222
      px      :     0.007723
      py      :     0.009708

 28 H s       :     0.997017  s :     0.997017
      pz      :     0.008553  p :     0.023177
      px      :     0.005027
      py      :     0.009597

 29 H s       :     0.977344  s :     0.977344
      pz      :     0.005887  p :     0.023671
      px      :     0.007789
      py      :     0.009995

 30 H s       :     0.986299  s :     0.986299
      pz      :     0.011631  p :     0.023108
      px      :     0.006170
      py      :     0.005307

 31 H s       :     0.994857  s :     0.994857
      pz      :     0.004298  p :     0.023221
      px      :     0.013516
      py      :     0.005408

 32 H s       :     0.997037  s :     0.997037
      pz      :     0.011720  p :     0.023177
      px      :     0.006023
      py      :     0.005434

 33 H s       :     0.977329  s :     0.977329
      pz      :     0.004513  p :     0.023670
      px      :     0.013788
      py      :     0.005368



                     *******************************
                     * LOEWDIN POPULATION ANALYSIS *
                     *******************************

----------------------
LOEWDIN ATOMIC CHARGES
----------------------
   0 C :   -0.016676
   1 C :   -0.040247
   2 C :   -0.123650
   3 C :   -0.040507
   4 C :   -0.021716
   5 C :   -0.184154
   6 P :    0.522038
   7 C :   -0.184153
   8 C :   -0.016681
   9 C :   -0.040239
  10 C :   -0.123666
  11 C :   -0.040500
  12 C :   -0.021729
  13 Cl:    0.130610
  14 C :   -0.184141
  15 C :   -0.016682
  16 C :   -0.040241
  17 C :   -0.123649
  18 C :   -0.040514
  19 C :   -0.021723
  20 Cl:    0.130607
  21 Cl:    0.130606
  22 H :    0.028779
  23 H :    0.031759
  24 H :    0.031134
  25 H :    0.030660
  26 H :    0.028779
  27 H :    0.031759
  28 H :    0.031138
  29 H :    0.030661
  30 H :    0.028774
  31 H :    0.031761
  32 H :    0.031136
  33 H :    0.030666

-------------------------------
LOEWDIN REDUCED ORBITAL CHARGES
-------------------------------
  0 C s       :     2.865992  s :     2.865992
      pz      :     1.025691  p :     3.059485
      px      :     0.975953
      py      :     1.057841
      dz2     :     0.018360  d :     0.091199
      dxz     :     0.010397
      dyz     :     0.026068
      dx2y2   :     0.018781
      dxy     :     0.017593

  1 C s       :     2.864614  s :     2.864614
      pz      :     1.031693  p :     3.085346
      px      :     1.000862
      py      :     1.052790
      dz2     :     0.019792  d :     0.090287
      dxz     :     0.013822
      dyz     :     0.027291
      dx2y2   :     0.016296
      dxy     :     0.013086

  2 C s       :     2.900943  s :     2.900943
      pz      :     1.096455  p :     3.095938
      px      :     1.028506
      py      :     0.970977
      dz2     :     0.028186  d :     0.126769
      dxz     :     0.016780
      dyz     :     0.036038
      dx2y2   :     0.023150
      dxy     :     0.022616

  3 C s       :     2.865203  s :     2.865203
      pz      :     1.027039  p :     3.085040
      px      :     0.997827
      py      :     1.060174
      dz2     :     0.016884  d :     0.090264
      dxz     :     0.009944
      dyz     :     0.028024
      dx2y2   :     0.018217
      dxy     :     0.017194

  4 C s       :     2.865077  s :     2.865077
      pz      :     1.030564  p :     3.064851
      px      :     0.988187
      py      :     1.046100
      dz2     :     0.019245  d :     0.091788
      dxz     :     0.012460
      dyz     :     0.029715
      dx2y2   :     0.015717
      dxy     :     0.014651

  5 C s       :     2.912029  s :     2.912029
      pz      :     1.072726  p :     3.180513
      px      :     1.028668
      py      :     1.079120
      dz2     :     0.021888  d :     0.091612
      dxz     :     0.014884
      dyz     :     0.029666
      dx2y2   :     0.013066
      dxy     :     0.012109

  6 P s       :     5.230079  s :     5.230079
      pz      :     3.377878  p :     8.995943
      px      :     2.801390
      py      :     2.816675
      dz2     :     0.028474  d :     0.251940
      dxz     :     0.043278
      dyz     :     0.050279
      dx2y2   :     0.076960
      dxy     :     0.052950

  7 C s       :     2.912027  s :     2.912027
      pz      :     1.034571  p :     3.180514
      px      :     1.086364
      py      :     1.059579
      dz2     :     0.012581  d :     0.091611
      dxz     :     0.018702
      dyz     :     0.015545
      dx2y2   :     0.022994
      dxy     :     0.021790

  8 C s       :     2.865987  s :     2.865987
      pz      :     0.988677  p :     3.059493
      px      :     1.054403
      py      :     1.016413
      dz2     :     0.008573  d :     0.091201
      dxz     :     0.019121
      dyz     :     0.011957
      dx2y2   :     0.025971
      dxy     :     0.025580

  9 C s       :     2.864613  s :     2.864613
      pz      :     1.006767  p :     3.085338
      px      :     1.058211
      py      :     1.020359
      dz2     :     0.011896  d :     0.090289
      dxz     :     0.018846
      dyz     :     0.012398
      dx2y2   :     0.021254
      dxy     :     0.025894

 10 C s       :     2.900940  s :     2.900940
      pz      :     1.053453  p :     3.095958
      px      :     0.948377
      py      :     1.094128
      dz2     :     0.017251  d :     0.126768
      dxz     :     0.025462
      dyz     :     0.016627
      dx2y2   :     0.035316
      dxy     :     0.032112

 11 C s       :     2.865200  s :     2.865200
      pz      :     1.003882  p :     3.085035
      px      :     1.061062
      py      :     1.020091
      dz2     :     0.008762  d :     0.090265
      dxz     :     0.019121
      dyz     :     0.011390
      dx2y2   :     0.023436
      dxy     :     0.027556

 12 C s       :     2.865075  s :     2.865075
      pz      :     0.988694  p :     3.064865
      px      :     1.051199
      py      :     1.024972
      dz2     :     0.011555  d :     0.091789
      dxz     :     0.019744
      dyz     :     0.011882
      dx2y2   :     0.022833
      dxy     :     0.025774

 13 Cls       :     5.748910  s :     5.748910
      pz      :     3.865424  p :    11.075855
      px      :     3.297570
      py      :     3.912861
      dz2     :     0.006109  d :     0.044625
      dxz     :     0.011695
      dyz     :     0.000601
      dx2y2   :     0.018786
      dxy     :     0.007433

 14 C s       :     2.912030  s :     2.912030
      pz      :     1.067234  p :     3.180499
      px      :     1.068587
      py      :     1.044678
      dz2     :     0.020980  d :     0.091612
      dxz     :     0.023076
      dyz     :     0.015121
      dx2y2   :     0.015577
      dxy     :     0.016859

 15 C s       :     2.865991  s :     2.865991
      pz      :     1.020485  p :     3.059492
      px      :     1.041949
      py      :     0.997058
      dz2     :     0.016027  d :     0.091199
      dxz     :     0.023992
      dyz     :     0.012801
      dx2y2   :     0.018348
      dxy     :     0.020031

 16 C s       :     2.864616  s :     2.864616
      pz      :     1.036407  p :     3.085338
      px      :     1.031719
      py      :     1.017211
      dz2     :     0.022561  d :     0.090288
      dxz     :     0.020937
      dyz     :     0.017910
      dx2y2   :     0.013879
      dxy     :     0.015001

 17 C s       :     2.900944  s :     2.900944
      pz      :     1.032780  p :     3.095936
      px      :     1.073948
      py      :     0.989208
      dz2     :     0.025752  d :     0.126769
      dxz     :     0.031604
      dyz     :     0.022262
      dx2y2   :     0.022986
      dxy     :     0.024165

 18 C s       :     2.865203  s :     2.865203
      pz      :     1.028728  p :     3.085047
      px      :     1.039359
      py      :     1.016961
      dz2     :     0.016503  d :     0.090263
      dxz     :     0.021674
      dyz     :     0.013301
      dx2y2   :     0.019246
      dxy     :     0.019539

 19 C s       :     2.865078  s :     2.865078
      pz      :     1.027651  p :     3.064857
      px      :     1.034810
      py      :     1.002397
      dz2     :     0.021707  d :     0.091788
      dxz     :     0.021725
      dyz     :     0.018942
      dx2y2   :     0.015532
      dxy     :     0.013882

 20 Cls       :     5.748908  s :     5.748908
      pz      :     3.674995  p :    11.075860
      px      :     3.780172
      py      :     3.620694
      dz2     :     0.005763  d :     0.044625
      dxz     :     0.009148
      dyz     :     0.013693
      dx2y2   :     0.006946
      dxy     :     0.009074

 21 Cls       :     5.748909  s :     5.748909
[...]
      py      :     1.023648
      dz2     :     0.012428  d :     0.091937
      dxz     :     0.020019
      dyz     :     0.012179
      dx2y2   :     0.021715
      dxy     :     0.025596

 13 Cls       :     5.762187  s :     5.762187
      pz      :     3.856186  p :    11.083861
      px      :     3.310602
      py      :     3.917074
      dz2     :     0.005481  d :     0.041169
      dxz     :     0.011506
      dyz     :     0.000692
      dx2y2   :     0.017030
      dxy     :     0.006461

 14 C s       :     2.915720  s :     2.915720
      pz      :     1.068162  p :     3.173765
      px      :     1.068122
      py      :     1.037482
      dz2     :     0.020884  d :     0.090480
      dxz     :     0.023385
      dyz     :     0.014405
      dx2y2   :     0.015418
      dxy     :     0.016388

 15 C s       :     2.866005  s :     2.866005
      pz      :     1.023069  p :     3.062226
      px      :     1.044733
      py      :     0.994425
      dz2     :     0.017203  d :     0.091930
      dxz     :     0.024876
      dyz     :     0.012599
      dx2y2   :     0.017864
      dxy     :     0.019387

 16 C s       :     2.866995  s :     2.866995
      pz      :     1.038003  p :     3.083044
      px      :     1.031891
      py      :     1.013149
      dz2     :     0.023252  d :     0.089631
      dxz     :     0.021716
      dyz     :     0.017235
      dx2y2   :     0.012940
      dxy     :     0.014488

 17 C s       :     2.909020  s :     2.909020
      pz      :     1.021839  p :     3.081388
      px      :     1.072015
      py      :     0.987534
      dz2     :     0.025098  d :     0.120754
      dxz     :     0.031210
      dyz     :     0.020821
      dx2y2   :     0.021285
      dxy     :     0.022340

 18 C s       :     2.867186  s :     2.867186
      pz      :     1.030407  p :     3.083188
      px      :     1.039173
      py      :     1.013609
      dz2     :     0.017414  d :     0.089756
      dxz     :     0.021729
      dyz     :     0.013033
      dx2y2   :     0.018798
      dxy     :     0.018783

 19 C s       :     2.865914  s :     2.865914
      pz      :     1.032616  p :     3.065418
      px      :     1.035624
      py      :     0.997179
      dz2     :     0.022870  d :     0.091931
      dxz     :     0.022075
      dyz     :     0.018700
      dx2y2   :     0.014687
      dxy     :     0.013600

 20 Cls       :     5.762203  s :     5.762203
      pz      :     3.652132  p :    11.083955
      px      :     3.788060
      py      :     3.643762
      dz2     :     0.005527  d :     0.041165
      dxz     :     0.008933
      dyz     :     0.013164
      dx2y2   :     0.005835
      dxy     :     0.007706

 21 Cls       :     5.762199  s :     5.762199
      pz      :     3.868467  p :    11.083850
      px      :     3.833411
      py      :     3.381972
      dz2     :     0.005399  d :     0.041165
      dxz     :     0.001566
      dyz     :     0.009400
      dx2y2   :     0.012555
      dxy     :     0.012246

 22 H s       :     0.903196  s :     0.903196
      pz      :     0.036800  p :     0.067421
      px      :     0.019637
      py      :     0.010984

 23 H s       :     0.898538  s :     0.898538
      pz      :     0.022837  p :     0.068040
      px      :     0.013782
      py      :     0.031421

 24 H s       :     0.898845  s :     0.898845
      pz      :     0.036751  p :     0.068082
      px      :     0.020398
      py      :     0.010933

 25 H s       :     0.897798  s :     0.897798
      pz      :     0.023483  p :     0.069700
      px      :     0.013712
      py      :     0.032506

 26 H s       :     0.903199  s :     0.903199
      pz      :     0.025664  p :     0.067422
      px      :     0.014357
      py      :     0.027401

 27 H s       :     0.898546  s :     0.898546
      pz      :     0.016498  p :     0.068037
      px      :     0.023766
      py      :     0.027773

 28 H s       :     0.898853  s :     0.898853
      pz      :     0.025872  p :     0.068076
      px      :     0.014558
      py      :     0.027646

 29 H s       :     0.897822  s :     0.897822
      pz      :     0.016610  p :     0.069698
      px      :     0.024791
      py      :     0.028297

 30 H s       :     0.903229  s :     0.903229
      pz      :     0.033674  p :     0.067413
      px      :     0.018382
      py      :     0.015356

 31 H s       :     0.898554  s :     0.898554
      pz      :     0.012363  p :     0.068037
      px      :     0.039107
      py      :     0.016566

 32 H s       :     0.898873  s :     0.898873
      pz      :     0.034161  p :     0.068079
      px      :     0.018078
      py      :     0.015840

 33 H s       :     0.897773  s :     0.897773
      pz      :     0.012792  p :     0.069729
      px      :     0.040067
      py      :     0.016870



                      *****************************
                      * MAYER POPULATION ANALYSIS *
                      *****************************

  NA   - Mulliken gross atomic population
  ZA   - Total nuclear charge
  QA   - Mulliken gross atomic charge
  VA   - Mayer's total valence
  BVA  - Mayer's bonded valence
  FA   - Mayer's free valence

  ATOM       NA         ZA         QA         VA         BVA        FA
  0 C      5.9828     6.0000     0.0172     3.8660     3.8660    -0.0000
  1 C      5.9634     6.0000     0.0366     3.9020     3.9020     0.0000
  2 C      5.9480     6.0000     0.0520     3.8448     3.8448    -0.0000
  3 C      5.9576     6.0000     0.0424     3.8794     3.8794    -0.0000
  4 C      5.9907     6.0000     0.0093     3.8716     3.8716    -0.0000
  5 C      6.1542     6.0000    -0.1542     3.7806     3.7806    -0.0000
  6 P     14.6254    15.0000     0.3746     2.9292     2.9292    -0.0000
  7 C      6.1542     6.0000    -0.1542     3.7798     3.7798    -0.0000
  8 C      5.9830     6.0000     0.0170     3.8665     3.8665    -0.0000
  9 C      5.9633     6.0000     0.0367     3.9022     3.9022    -0.0000
 10 C      5.9481     6.0000     0.0519     3.8447     3.8447    -0.0000
 11 C      5.9575     6.0000     0.0425     3.8796     3.8796    -0.0000
 12 C      5.9911     6.0000     0.0089     3.8723     3.8723    -0.0000
 13 Cl    17.0960    17.0000    -0.0960     1.1260     1.1260    -0.0000
 14 C      6.1541     6.0000    -0.1541     3.7804     3.7804    -0.0000
 15 C      5.9829     6.0000     0.0171     3.8664     3.8664    -0.0000
 16 C      5.9633     6.0000     0.0367     3.9024     3.9024    -0.0000
 17 C      5.9481     6.0000     0.0519     3.8448     3.8448    -0.0000
 18 C      5.9576     6.0000     0.0424     3.8794     3.8794    -0.0000
 19 C      5.9913     6.0000     0.0087     3.8723     3.8723    -0.0000
 20 Cl    17.0961    17.0000    -0.0961     1.1259     1.1259    -0.0000
 21 Cl    17.0960    17.0000    -0.0960     1.1260     1.1260    -0.0000
 22 H      1.0071     1.0000    -0.0071     0.9908     0.9908    -0.0000
 23 H      1.0136     1.0000    -0.0136     0.9974     0.9974     0.0000
 24 H      1.0154     1.0000    -0.0154     0.9972     0.9972    -0.0000
 25 H      0.9955     1.0000     0.0045     0.9918     0.9918    -0.0000
 26 H      1.0071     1.0000    -0.0071     0.9908     0.9908    -0.0000
 27 H      1.0136     1.0000    -0.0136     0.9974     0.9974    -0.0000
 28 H      1.0155     1.0000    -0.0155     0.9972     0.9972     0.0000
 29 H      0.9957     1.0000     0.0043     0.9919     0.9919    -0.0000
 30 H      1.0072     1.0000    -0.0072     0.9907     0.9907    -0.0000
 31 H      1.0136     1.0000    -0.0136     0.9974     0.9974     0.0000
 32 H      1.0155     1.0000    -0.0155     0.9972     0.9972    -0.0000
 33 H      0.9953     1.0000     0.0047     0.9916     0.9916    -0.0000

  Mayer bond orders larger than 0.100000
B(  0-C ,  1-C ) :   1.3931 B(  0-C ,  5-C ) :   1.3601 B(  0-C , 22-H ) :   0.9794 
B(  1-C ,  2-C ) :   1.3806 B(  1-C , 23-H ) :   0.9887 B(  2-C ,  3-C ) :   1.3842 
B(  2-C , 21-Cl) :   0.9721 B(  3-C ,  4-C ) :   1.3711 B(  3-C , 24-H ) :   0.9886 
B(  4-C ,  5-C ) :   1.3737 B(  4-C , 25-H ) :   0.9771 B(  5-C ,  6-P ) :   0.9312 
B(  6-P ,  7-C ) :   0.9307 B(  6-P , 14-C ) :   0.9305 B(  7-C ,  8-C ) :   1.3598 
B(  7-C , 12-C ) :   1.3741 B(  8-C ,  9-C ) :   1.3936 B(  8-C , 26-H ) :   0.9793 
B(  9-C , 10-C ) :   1.3802 B(  9-C , 27-H ) :   0.9888 B( 10-C , 11-C ) :   1.3845 
B( 10-C , 13-Cl) :   0.9720 B( 11-C , 12-C ) :   1.3711 B( 11-C , 28-H ) :   0.9885 
B( 12-C , 29-H ) :   0.9772 B( 14-C , 15-C ) :   1.3595 B( 14-C , 19-C ) :   1.3748 
B( 15-C , 16-C ) :   1.3940 B( 15-C , 30-H ) :   0.9793 B( 16-C , 17-C ) :   1.3800 
B( 16-C , 31-H ) :   0.9887 B( 17-C , 18-C ) :   1.3848 B( 17-C , 20-Cl) :   0.9719 
B( 18-C , 19-C ) :   1.3705 B( 18-C , 32-H ) :   0.9885 B( 19-C , 33-H ) :   0.9770 


-------
TIMINGS
-------

Total SCF time: 0 days 0 hours 0 min 21 sec 

Total time                  ....      21.950 sec
Sum of individual times     ....      21.856 sec  ( 99.6%)

SCF preparation             ....       0.132 sec  (  0.6%)
Fock matrix formation       ....      21.217 sec  ( 96.7%)
  Startup                   ....       0.026 sec  (  0.1% of F)
  Exchange formation        ....      16.246 sec  ( 76.6% of F)
  Split-RI-J                ....       1.795 sec  (  8.5% of F)
  XC integration            ....       3.047 sec  ( 14.4% of F)
    Basis function eval.    ....       0.974 sec  ( 32.0% of XC)
    Density eval.           ....       0.932 sec  ( 30.6% of XC)
    XC-Functional eval.     ....       0.074 sec  (  2.4% of XC)
    XC-Potential eval.      ....       0.617 sec  ( 20.2% of XC)
Diagonalization             ....       0.000 sec  (  0.0%)
Density matrix formation    ....       0.069 sec  (  0.3%)
Total Energy calculation    ....       0.027 sec  (  0.1%)
Population analysis         ....       0.081 sec  (  0.4%)
Orbital Transformation      ....       0.039 sec  (  0.2%)
Orbital Orthonormalization  ....       0.000 sec  (  0.0%)
DIIS solution               ....       0.050 sec  (  0.2%)
SOSCF solution              ....       0.241 sec  (  1.1%)
Finished LeanSCF after  22.0 sec

Maximum memory used throughout the entire LEANSCF-calculation: 39.0 MB


-------------------------------------------------------------------------------
                          DFT DISPERSION CORRECTION                            
                                                                               
                              DFTD3 V3.1  Rev 1                                
                          USING Becke-Johnson damping                          
-------------------------------------------------------------------------------
The B3LYP functional is recognized
Active option DFTDOPT                   ...         4   

molecular C6(AA) [au] = 23043.303349 


            DFT-D V3
 parameters
 s6 scaling factor         :     1.0000 
 a1 scaling factor         :     0.3981 
 s8 scaling factor         :     1.9889 
 a2 scaling factor         :     4.4211 
 ad hoc parameters k1-k3   :    16.0000     1.3333    -4.0000 

 Edisp/kcal,au: -60.941524491017  -0.097116490681 
 E6   /kcal   : -27.013571091 
 E8   /kcal   : -33.927953400 
 % E8         :  55.672964671 

-------------------------   ----------------
Dispersion correction           -0.097116491
-------------------------   ----------------


-------------------------   --------------------
FINAL SINGLE POINT ENERGY     -2413.514482596659
-------------------------   --------------------

                                *** OPTIMIZATION RUN DONE ***



           ************************************************************
           *        Program running with 6 parallel MPI-processes     *
           *              working on a common directory               *
           ************************************************************

------------------------------------------------------------------------------
                              ORCA PROPERTY CALCULATIONS
------------------------------------------------------------------------------

GBWName                                 ... data/geom_opt/70874/70874.gbw
Number of atoms                         ...     34
Number of basis functions               ...    384
Max core memory                         ...   1024 MB

Electric properties:
Dipole moment                           ... YES
Quadrupole moment                       ...  NO
Static polarizability (Dipole/Dipole)   ...  NO
Static polarizability (Dipole/Quad.)    ...  NO
Static polarizability (Quad./Quad.)     ...  NO
Static polarizability (Velocity)        ...  NO

Atomic electric properties:
Dipole moment                           ...  NO
Quadrupole moment                       ...  NO
Static polarizability                   ...  NO

Choice of electric origin               ... Center of mass
Position of electric origin             ...     0.050012    -0.073238     0.335931

General magnetic properties:
Magnetizability                         ...  NO

EPR properties:
g-Tensor (aka g-matrix)                 ...  NO
Zero-Field splitting spin-orbit         ...  NO
Zero-field splitting spin-spin          ...  NO
Hyperfine couplings                     ...  NO (   0 nuclei)
Quadrupole couplings                    ...  NO (   0 nuclei)
Contact density                         ...  NO (   0 nuclei)

NMR properties:
Chemical shifts                         ...  NO (   0 nuclei)
Spin-rotation constants                 ...  NO (   0 nuclei)
Spin-spin couplings                     ...  NO (   0 nuclei,    0 pairs)

Choice of magnetic origin               ... GIAO
Position of magnetic origin             ...     0.000000     0.000000     0.000000

Properties with geometric perturbations:
SCF Hessian                             ...  NO
IR spectrum                             ...  NO
VCD spectrum                            ...  NO
X-ray spectroscopy properties:
SCF XES/XAS/RIXS spectra                ...  NO


-------------
DIPOLE MOMENT
-------------

Method             : SCF
Type of density    : Electron Density
Multiplicity       :   1
Irrep              :   0
Energy             : -2413.4173661059776350 Eh
Relativity type    : 
Basis              : AO
                                X                 Y                 Z
Electronic contribution:      0.778270706      -1.143072602       5.223697925
Nuclear contribution   :     -0.800787393       1.173202255      -5.379632960
                        -----------------------------------------
Total Dipole Moment    :     -0.022516687       0.030129653      -0.155935035
                        -----------------------------------------
Magnitude (a.u.)       :      0.160407395
Magnitude (Debye)      :      0.407723195



--------------------
Rotational spectrum 
--------------------
 
Rotational constants in cm-1:             0.005083             0.005075             0.002873 
Rotational constants in MHz :           152.380582           152.155072            86.127875 

Dipole components along the rotational axes: 
x,y,z [a.u.] :    -0.003157    -0.002640    -0.160355 
x,y,z [Debye]:    -0.008025    -0.006709    -0.407589 

 

Dipole moment calculation done in   0.0 sec 

Maximum memory used throughout the entire PROP-calculation: 20.0 MB

--------------------------------
SUGGESTED CITATIONS FOR THIS RUN
--------------------------------

Below you find a list of papers that are relevant to this ORCA run
We neither can nor want to force you to cite these papers, but we appreciate if you do
You receive ORCA, which is the product of decades of hard work by many enthusiastic individuals, for free
The only thing we kindly ask in return is that you cite our papers,
We deeply appreciate it, if you show your appreciation for ORCA by not just citing the generic ORCA reference.

Please note that relegating all ORCA citations to the supporting information does *not* help us.
SI sections are not indexed - citations you put there will not count into any citation statistics
But we need these citations in order to attract the funding resources that allow us to do what we are doing

Therefore, if you are a happy ORCA user, please consider citing a few of the papers listed below in the main body of your paper

In addition to the list printed below, the program has created the file data/geom_opt/70874/70874.bibtex that contains the list in bibtex format
You can import this file easily into all common literature databanks and citation aid programs


List of essential papers. We consider these as the minimum necessary citations

  1. Neese,F.
     Software update: the ORCA program system, version 5.0
     WIRES Comput. Molec. Sci., 2022 12(1)e1606
     doi.org/10.1002/wcms.1606

List of papers to cite with high priority. The work reported in these papers was absolutely
necessary for this run to complete.
Our perspective: the developers of density functionals and basis sets usually get cited in chemistry papers
Good! But without the algorithms to do something with them, the functionals or basis sets would not do anything.
Hence, in our opinion, the algorithm design and method developments papers are equally worthy of getting cited

  1. Neese,F.
     An improvement of the resolution of the identity approximation for the formation of the Coulomb matrix
     J. Comp. Chem., 2003 24(14)1740-1747
     doi.org/10.1002/jcc.10318
  2. Neese,F.
     The SHARK Integral Generation and Digestion System
     J. Comp. Chem., 2022  1-16
     doi.org/10.1002/jcc.26942
  3. Grimme,S.; Antony,J.; Ehrlich,S.; Krieg,H.
     A consistent and accurate ab initio parametrization of density functional dispersion correction (DFT-D) for the 94 elements H-Pu
     J. Chem. Phys., 2010 132 154104-XXXX
     doi.org/10.1063/1.3382344
  4. Grimme,S.; Ehrlich,S.; Goerigk,L.
     Effect of the damping function in dispersion corrected density functional theory
     J. Comput. Chem., 2011 32(7)1456-1465
     doi.org/10.1002/jcc.21759

List of suggested additional citations. These are papers that are important in the 'surrounding' of 
of this run, or papers that preceded the highly important papers. If you like your results we are grateful for a citation.

  1. Neese,F.
     The ORCA program system
     WIRES Comput. Molec. Sci., 2012 2(1)73-78
     doi.org/10.1002/wcms.81
  2. Neese,F.
     Software update: the ORCA program system, version 4.0
     WIRES Comput. Molec. Sci., 2018 8(1)1-6
     doi.org/10.1002/wcms.1327
  3. Neese,F.; Wennmohs,F.; Becker,U.; Riplinger,C.
     The ORCA quantum chemistry program package
     J. Chem. Phys., 2020 152 Art. No. L224108
     doi.org/10.1063/5.0004608

List of optional additional citations

  1. Neese,F.
     Approximate second-order SCF convergence for spin unrestricted wavefunctions
     Chem. Phys. Lett., 2000 325(1-3)93-98
     doi.org/10.1016/s0009-2614(00)00662-x

Timings for individual modules:

Sum of individual times          ...      358.670 sec (=   5.978 min)
Startup calculation              ...        9.636 sec (=   0.161 min)   2.7 %
SCF iterations                   ...      241.859 sec (=   4.031 min)  67.4 %
Property calculations            ...        0.169 sec (=   0.003 min)   0.0 %
SCF Gradient evaluation          ...      106.907 sec (=   1.782 min)  29.8 %
Geometry relaxation              ...        0.099 sec (=   0.002 min)   0.0 %
                             ****ORCA TERMINATED NORMALLY****
TOTAL RUN TIME: 0 days 0 hours 5 minutes 59 seconds 969 msec
