
                                 *****************
                                 * O   R   C   A *
                                 *****************

                                            #,                                       
                                            ###                                      
                                            ####                                     
                                            #####                                    
                                            ######                                   
                                           ########,                                 
                                     ,,################,,,,,                         
                               ,,#################################,,                 
                          ,,##########################################,,             
                       ,#########################################, ''#####,          
                    ,#############################################,,   '####,        
                  ,##################################################,,,,####,       
                ,###########''''           ''''###############################       
              ,#####''   ,,,,##########,,,,          '''####'''          '####       
            ,##' ,,,,###########################,,,                        '##       
           ' ,,###''''                  '''############,,,                           
         ,,##''                                '''############,,,,        ,,,,,,###''
      ,#''                                            '''#######################'''  
     '                                                          ''''####''''         
             ,#######,   #######,   ,#######,      ##                                
            ,#'     '#,  ##    ##  ,#'     '#,    #''#        ,####,   ,####,        
            ##       ##  ##   ,#'  ##            #'  '#       #'       #'  '#        
            ##       ##  #######   ##           ,######,      #####,   #    #        
            '#,     ,#'  ##    ##  '#,     ,#' ,#      #,     #,   #   #,  ,#        
             '#######'   ##     ##  '#######'  #'      '#     '####' # '####'        



                #########################################################
                #                        -***-                          #
                #          Department of theory and spectroscopy        #
                #                                                       #
                #                      Frank Neese                      #
                #                                                       #
                #     Directorship, Architecture, Infrastructure        #
                #                    SHARK, DRIVERS                     #
                #        Core code/Algorithms in most modules           #
                #                                                       #
                #        Max Planck Institute fuer Kohlenforschung      #
                #                Kaiser Wilhelm Platz 1                 #
                #                 D-45470 Muelheim/Ruhr                 #
                #                      Germany                          #
                #                                                       #
                #                  All rights reserved                  #
                #                        -***-                          #
                #########################################################


                         Program Version 6.0.0  -   RELEASE   -


 With contributions from (in alphabetic order):
   Daniel Aravena         : Magnetic Suceptibility
   Michael Atanasov       : Ab Initio Ligand Field Theory (pilot matlab implementation)
   Alexander A. Auer      : GIAO ZORA, VPT2 properties, NMR spectrum
   Ute Becker             : All parallelization in ORCA, NUMFREQ, NUMCALC
   Giovanni Bistoni       : ED, misc. LED, open-shell LED, HFLD
   Martin Brehm           : Molecular dynamics
   Dmytro Bykov           : pre 5.0 version of the SCF Hessian
   Marcos Casanova-Páez   : Triplet and SCS-CIS(D). UHF-(DLPNO)-IP/EA/STEOM-CCSD. UHF-CVS-IP/STEOM-CCSD
   Vijay G. Chilkuri      : MRCI spin determinant printing, contributions to CSF-ICE
   Pauline Colinet        : FMM embedding
   Dipayan Datta          : RHF DLPNO-CCSD density
   Achintya Kumar Dutta   : EOM-CC, STEOM-CC
   Nicolas Foglia         : Exact transition moments, OPA infrastructure, MCD improvements
   Dmitry Ganyushin       : Spin-Orbit,Spin-Spin,Magnetic field MRCI
   Miquel Garcia          : C-PCM and meta-GGA Hessian, CCSD/C-PCM, Gaussian charge scheme
   Tiago L. C. Gouveia    : GS-ROHF, GS-ROCIS
   Yang Guo               : DLPNO-NEVPT2, F12-NEVPT2, CIM, IAO-localization
   Andreas Hansen         : Spin unrestricted coupled pair/coupled cluster methods
   Ingolf Harden          : AUTO-CI MPn and infrastructure 
   Benjamin Helmich-Paris : MC-RPA, TRAH-(SCF,CASSCF), AVAS, COSX integrals, SCF dyn. polar.
   Lee Huntington         : MR-EOM, pCC
   Robert Izsak           : Overlap fitted RIJCOSX, COSX-SCS-MP3, EOM
   Riya Kayal             : Wick's Theorem for AUTO-CI, AUTO-CI UHF-CCSDT
   Emily Kempfer          : AUTO-CI, RHF CISDT and CCSDT
   Christian Kollmar      : KDIIS, OOCD, Brueckner-CCSD(T), CCSD density, CASPT2, CASPT2-K, improved NEVPT2
   Axel Koslowski         : Symmetry handling
   Simone Kossmann        : Meta GGA functionals, TD-DFT gradient, OOMP2, (MP2 Hessian; deprecated post 5.0)
   Lucas Lang             : DCDCAS
   Marvin Lechner         : AUTO-CI (C++ implementation), FIC-MRCC
   Spencer Leger          : CASSCF response
   Dagmar Lenk            : GEPOL surface, SMD, ORCA-2-JSON
   Dimitrios Liakos       : Extrapolation schemes; Compound Job, initial MDCI parallelization
   Dimitrios Manganas     : Further ROCIS development; embedding schemes. LFT, Crystal Embedding
   Dimitrios Pantazis     : SARC Basis sets
   Anastasios Papadopoulos: AUTO-CI, single reference methods and gradients
   Taras Petrenko         : pre 6.0 DFT Hessian and TD-DFT gradient, (ASA, deprecated), ECA, 1-Electron XAS/XES, NRVS
   Peter Pinski           : DLPNO-MP2, DLPNO-MP2 Gradient
   Christoph Reimann      : Effective Core Potentials
   Marius Retegan         : Local ZFS, SOC
   Christoph Riplinger    : Optimizer, TS searches, QM/MM, DLPNO-CCSD(T), (RO)-DLPNO pert. Triples
   Michael Roemelt        : Original ROCIS implementation
   Masaaki Saitow         : Open-shell DLPNO-CCSD energy and density
   Barbara Sandhoefer     : DKH picture change effects
   Kantharuban Sivalingam : CASSCF convergence/infrastructure, NEVPT2 and variants, FIC-MRCI
   Bernardo de Souza      : ESD, SOC TD-DFT
   Georgi Stoychev        : AutoAux, RI-MP2 NMR, DLPNO-MP2 response, X2C
   Van Anh Tran           : RI-MP2 g-tensors
   Willem Van den Heuvel  : Paramagnetic NMR
   Zikuan Wang            : NOTCH, Electric field optimization 
   Frank Wennmohs         : Technical directorship and infrastructure
   Hang Xu                : AUTO-CI-Response properties 


 We gratefully acknowledge several colleagues who have allowed us to
 interface, adapt or use parts of their codes:
   Stefan Grimme, W. Hujo, H. Kruse, P. Pracht,  : VdW corrections, initial TS optimization,
                  C. Bannwarth, S. Ehlert,         DFT functionals, gCP, sTDA/sTD-DF
                  L. Wittmann, M. Mueller
   Ed Valeev, F. Pavosevic, A. Kumar             : LibInt (2-el integral package), F12 methods
   Garnet Chan, S. Sharma, J. Yang, R. Olivares  : DMRG
   Ulf Ekstrom                                   : XCFun DFT Library
   Mihaly Kallay                                 : mrcc  (arbitrary order and MRCC methods)
   Frank Weinhold                                : gennbo (NPA and NBO analysis)
   Simon Mueller                                 : openCOSMO-RS
   Christopher J. Cramer and Donald G. Truhlar   : smd solvation model
   Lars Goerigk                                  : TD-DFT with DH, B97 family of functionals
   V. Asgeirsson, H. Jonsson                     : NEB implementation
   FAccTs GmbH                                   : IRC, NEB, NEB-TS, DLPNO-Multilevel, CI-OPT
                                                   MM, QMMM, 2- and 3-layer-ONIOM, Crystal-QMMM,
                                                   LR-CPCM, SF, NACMEs, symmetry and pop. for TD-DFT,
                                                   nearIR, NL-DFT gradient (VV10), updates on ESD,
                                                   ML-optimized integration grids, MBIS, APM,
                                                   GOAT, DOCKER, SOLVATOR, interface openCOSMO-RS
   S Lehtola, MJT Oliveira, MAL Marques          : LibXC Library
   Liviu Ungur et al                             : ANISO software


 Your calculation uses the libint2 library for the computation of 2-el integrals
 For citations please refer to: http://libint.valeyev.net

 Your ORCA version has been built with support for libXC version: 6.2.2
 For citations please refer to: https://libxc.gitlab.io

 This ORCA versions uses:
   CBLAS   interface :  Fast vector & matrix operations
   LAPACKE interface :  Fast linear algebra routines
   Shared memory     :  Shared parallel matrices


Your calculation utilizes the atom-pairwise dispersion correction
with the Becke-Johnson damping scheme (D3BJ)


Warning: RI is on but no J-basis has been assigned. Assigning Def2/J (nothing to worry about!)
================================================================================

----- Orbital basis set information -----
Your calculation utilizes the basis: def2-SVP
   F. Weigend and R. Ahlrichs, Phys. Chem. Chem. Phys. 7, 3297 (2005).

----- AuxJ basis set information -----
Your calculation utilizes the auxiliary basis: def2/J
   F. Weigend, Phys. Chem. Chem. Phys. 8, 1057 (2006).

================================================================================
                                        WARNINGS
                       Please study these warnings very carefully!
================================================================================


WARNING: Geometry Optimization
  ===> : Switching off AutoStart
         For restart on a previous wavefunction, please use MOREAD

================================================================================
                                       INPUT FILE
================================================================================
NAME = data/geom_opt_PO_BP86/75226/75226.inp
|  1> ! RI BP86 def2-SVP D3BJ TIGHTSCF Opt
|  2> %pal
|  3> nprocs 6
|  4> end
|  5> 
|  6> * xyz 0 1
|  7> C     -3.967506   -0.873980   -0.841056
|  8> C     -2.581088   -0.417841   -1.262363
|  9> C     -1.500278   -0.974997   -0.344706
| 10> P      0.169646   -0.520214   -0.824999
| 11> O      0.502803   -0.979645   -2.217315
| 12> C      0.320727    1.258425   -0.649321
| 13> C      0.004129    1.827112    0.727439
| 14> C      0.164795    3.338315    0.759803
| 15> C      1.229270   -1.281348    0.409515
| 16> C      2.714068   -1.012137    0.200784
| 17> C      3.566157   -1.719515    1.240629
| 18> H     -4.198232   -0.539640    0.175469
| 19> H     -4.047615   -1.965309   -0.870665
| 20> H     -4.724001   -0.459653   -1.514792
| 21> H     -2.542629    0.676623   -1.257753
| 22> H     -2.388093   -0.736063   -2.292889
| 23> H     -1.556004   -2.069945   -0.343085
| 24> H     -1.681198   -0.652620    0.686143
| 25> H     -0.336218    1.724426   -1.392696
| 26> H      1.343668    1.535884   -0.928513
| 27> H      0.664472    1.380221    1.477370
| 28> H     -1.021041    1.569393    1.011633
| 29> H     -0.509610    3.820052    0.044651
| 30> H      1.191263    3.629156    0.514632
| 31> H     -0.067807    3.722836    1.757783
| 32> H      1.049367   -2.362358    0.376820
| 33> H      0.923935   -0.945010    1.405987
| 34> H      3.009994   -1.341908   -0.801301
| 35> H      2.905156    0.065196    0.247571
| 36> H      3.423248   -2.803796    1.193664
| 37> H      4.626392   -1.509085    1.068887
| 38> H      3.312228   -1.382574    2.250743
| 39> **                         ****END OF INPUT****
================================================================================

                       *****************************
                       * Geometry Optimization Run *
                       *****************************

Geometry optimization settings:
Update method            Update   .... BFGS
Choice of coordinates    CoordSys .... (2022) Redundant Internals
Initial Hessian          InHess   .... Almloef's Model
Max. no of cycles        MaxIter  .... 96

Convergence Tolerances:
Energy Change            TolE     ....  5.0000e-06 Eh
Max. Gradient            TolMAXG  ....  3.0000e-04 Eh/bohr
RMS Gradient             TolRMSG  ....  1.0000e-04 Eh/bohr
Max. Displacement        TolMAXD  ....  4.0000e-03 bohr
RMS Displacement         TolRMSD  ....  2.0000e-03 bohr
Strict Convergence                .... False

------------------------------------------------------------------------------
                        ORCA OPTIMIZATION COORDINATE SETUP
------------------------------------------------------------------------------

The optimization will be done in redundant internal coordinates (2022)
Making redundant internal coordinates   ...  (2022 redundants) done
Evaluating the initial hessian          ...  (Almloef) done
Evaluating the coordinates              ...  done
Calculating the B-matrix                .... done
Calculating the G-matrix                .... done
Diagonalizing the G-matrix              .... done
Small eigenvalue found = 6.393e-03
Small eigenvalue found = 8.906e-03
Small eigenvalue found = 1.239e-02
Small eigenvalue found = 2.628e-02
The first mode is                       ....   55
The number of degrees of freedom        ....   90

    -----------------------------------------------------------------
                    Redundant Internal Coordinates


    -----------------------------------------------------------------
         Definition                    Initial Value    Approx d2E/dq
    -----------------------------------------------------------------
      1. B(C   1,C   0)                  1.5191         0.388812   
      2. B(C   2,C   1)                  1.5234         0.382780   
      3. B(P   3,C   2)                  1.7962         0.472330   
      4. B(O   4,P   3)                  1.5035         1.239462   
      5. B(C   5,P   3)                  1.7937         0.476657   
      6. B(C   6,C   5)                  1.5229         0.383501   
      7. B(C   7,C   6)                  1.5201         0.387462   
      8. B(C   8,P   3)                  1.7961         0.472332   
      9. B(C   9,C   8)                  1.5234         0.382780   
     10. B(C  10,C   9)                  1.5191         0.388813   
     11. B(H  11,C   0)                  1.0947         0.353952   
     12. B(H  12,C   0)                  1.0947         0.353980   
     13. B(H  13,C   0)                  1.0945         0.354231   
     14. B(H  14,C   1)                  1.0951         0.353352   
     15. B(H  15,C   1)                  1.0957         0.352675   
     16. B(H  16,C   2)                  1.0964         0.351776   
     17. B(H  17,C   2)                  1.0951         0.353378   
     18. B(H  18,C   5)                  1.0961         0.352176   
     19. B(H  19,C   5)                  1.0961         0.352176   
     20. B(H  20,C   6)                  1.0946         0.354059   
     21. B(H  21,C   6)                  1.0946         0.354060   
     22. B(H  22,C   7)                  1.0947         0.353956   
     23. B(H  23,C   7)                  1.0947         0.353956   
     24. B(H  24,C   7)                  1.0945         0.354200   
     25. B(H  25,C   8)                  1.0964         0.351777   
     26. B(H  26,C   8)                  1.0951         0.353378   
     27. B(H  27,C   9)                  1.0957         0.352675   
     28. B(H  28,C   9)                  1.0951         0.353353   
     29. B(H  29,C  10)                  1.0947         0.353980   
     30. B(H  30,C  10)                  1.0945         0.354229   
     31. B(H  31,C  10)                  1.0947         0.353953   
     32. A(H  12,C   0,H  13)          108.0698         0.289311   
     33. A(C   1,C   0,H  12)          111.0166         0.325538   
     34. A(H  11,C   0,H  12)          108.3115         0.289276   
     35. A(H  11,C   0,H  13)          108.0787         0.289308   
     36. A(C   1,C   0,H  11)          110.9888         0.325534   
     37. A(C   1,C   0,H  13)          110.2688         0.325576   
     38. A(C   0,C   1,C   2)          111.7543         0.367375   
     39. A(C   0,C   1,H  14)          109.3271         0.325443   
     40. A(C   0,C   1,H  15)          109.5358         0.325341   
     41. A(C   2,C   1,H  14)          109.7586         0.324608   
     42. A(H  14,C   1,H  15)          106.7399         0.289032   
     43. A(C   2,C   1,H  15)          109.5953         0.324506   
     44. A(H  16,C   2,H  17)          106.5113         0.288919   
     45. A(C   1,C   2,H  17)          110.0081         0.324612   
     46. A(P   3,C   2,H  16)          107.4890         0.356811   
     47. A(C   1,C   2,H  16)          109.2745         0.324370   
     48. A(P   3,C   2,H  17)          109.3152         0.357087   
     49. A(C   1,C   2,P   3)          113.9502         0.404625   
     50. A(C   2,P   3,O   4)          112.1024         0.532744   
     51. A(O   4,P   3,C   5)          112.0269         0.533661   
     52. A(C   5,P   3,C   8)          107.6499         0.448871   
     53. A(C   2,P   3,C   5)          107.6498         0.448871   
     54. A(C   2,P   3,C   8)          104.9158         0.448129   
     55. A(O   4,P   3,C   8)          112.1024         0.532744   
     56. A(C   6,C   5,H  18)          109.2555         0.324531   
     57. A(P   3,C   5,H  18)          107.7393         0.357434   
     58. A(P   3,C   5,C   6)          116.1894         0.405412   
     59. A(H  18,C   5,H  19)          106.2006         0.288817   
     60. A(C   6,C   5,H  19)          109.2556         0.324531   
     61. A(P   3,C   5,H  19)          107.7392         0.357434   
     62. A(C   5,C   6,C   7)          111.6250         0.367274   
     63. A(H  20,C   6,H  21)          106.9179         0.289300   
     64. A(C   7,C   6,H  21)          109.1193         0.325364   
     65. A(C   5,C   6,H  21)          109.9688         0.324815   
     66. A(C   7,C   6,H  20)          109.1193         0.325364   
     67. A(C   5,C   6,H  20)          109.9688         0.324815   
     68. A(H  23,C   7,H  24)          108.0683         0.289304   
     69. A(C   6,C   7,H  24)          110.2566         0.325385   
     70. A(H  22,C   7,H  23)          108.3274         0.289273   
     71. A(C   6,C   7,H  23)          111.0067         0.325349   
     72. A(C   6,C   7,H  22)          111.0067         0.325348   
     73. A(H  22,C   7,H  24)          108.0683         0.289304   
     74. A(H  25,C   8,H  26)          106.5113         0.288919   
     75. A(C   9,C   8,H  26)          110.0080         0.324612   
     76. A(P   3,C   8,H  26)          109.3152         0.357087   
     77. A(C   9,C   8,H  25)          109.2745         0.324370   
     78. A(P   3,C   8,H  25)          107.4890         0.356812   
     79. A(P   3,C   8,C   9)          113.9502         0.404625   
     80. A(H  27,C   9,H  28)          106.7399         0.289032   
     81. A(C  10,C   9,H  28)          109.3271         0.325444   
     82. A(C   8,C   9,H  28)          109.7587         0.324608   
     83. A(C  10,C   9,H  27)          109.5358         0.325341   
     84. A(C   8,C   9,H  27)          109.5953         0.324506   
     85. A(C   8,C   9,C  10)          111.7543         0.367375   
     86. A(H  30,C  10,H  31)          108.0787         0.289308   
     87. A(H  29,C  10,H  31)          108.3115         0.289276   
     88. A(C   9,C  10,H  31)          110.9888         0.325534   
     89. A(H  29,C  10,H  30)          108.0698         0.289311   
     90. A(C   9,C  10,H  30)          110.2687         0.325576   
     91. A(C   9,C  10,H  29)          111.0166         0.325538   
     92. D(H  14,C   1,C   0,H  11)    -61.5083         0.012022   
     93. D(C   2,C   1,C   0,H  11)     60.2053         0.012022   
     94. D(H  14,C   1,C   0,H  12)    177.9688         0.012022   
     95. D(C   2,C   1,C   0,H  13)    179.9405         0.012022   
     96. D(H  14,C   1,C   0,H  13)     58.2269         0.012022   
     97. D(C   2,C   1,C   0,H  12)    -60.3176         0.012022   
     98. D(H  16,C   2,C   1,C   0)     57.6583         0.011669   
     99. D(P   3,C   2,C   1,C   0)    177.9029         0.011669   
    100. D(H  16,C   2,C   1,H  15)    -63.9579         0.011669   
    101. D(H  16,C   2,C   1,H  14)    179.1228         0.011669   
    102. D(P   3,C   2,C   1,H  14)    -60.6326         0.011669   
    103. D(P   3,C   2,C   1,H  15)     56.2867         0.011669   
    104. D(O   4,P   3,C   2,H  16)     62.6771         0.004794   
    105. D(O   4,P   3,C   2,C   1)    -58.5651         0.004794   
    106. D(O   4,P   3,C   2,H  17)    177.9029         0.004794   
    107. D(C   5,P   3,C   2,H  16)   -173.6813         0.004794   
    108. D(C   5,P   3,C   2,H  17)    -58.4555         0.004794   
    109. D(C   5,P   3,C   2,C   1)     65.0765         0.004794   
    110. D(H  18,C   5,P   3,C   8)   -179.2136         0.004857   
    111. D(H  18,C   5,P   3,O   4)     57.0988         0.004857   
    112. D(H  18,C   5,P   3,C   2)    -66.5888         0.004857   
    113. D(C   6,C   5,P   3,O   4)    179.9999         0.004857   
    114. D(C   6,C   5,P   3,C   2)     56.3123         0.004857   
    115. D(C   6,C   5,P   3,C   8)    -56.3124         0.004857   
    116. D(H  20,C   6,C   5,H  19)    -63.3647         0.011711   
    117. D(H  20,C   6,C   5,H  18)   -179.1547         0.011711   
    118. D(H  20,C   6,C   5,P   3)     58.7403         0.011711   
    119. D(C   7,C   6,C   5,H  19)     57.8951         0.011711   
    120. D(C   7,C   6,C   5,H  18)    -57.8950         0.011711   
    121. D(C   7,C   6,C   5,P   3)    180.0000         0.011711   
    122. D(H  22,C   7,C   6,C   5)     60.2743         0.011942   
    123. D(H  23,C   7,C   6,H  21)    177.9740         0.011942   
    124. D(H  23,C   7,C   6,H  20)     61.4775         0.011942   
    125. D(H  23,C   7,C   6,C   5)    -60.2742         0.011942   
    126. D(H  22,C   7,C   6,H  21)    -61.4775         0.011942   
    127. D(H  22,C   7,C   6,H  20)   -177.9740         0.011942   
    128. D(H  25,C   8,P   3,C   5)    173.6815         0.004794   
    129. D(H  25,C   8,P   3,O   4)    -62.6768         0.004794   
    130. D(H  25,C   8,P   3,C   2)     59.2236         0.004794   
    131. D(C   9,C   8,P   3,C   5)    -65.0763         0.004794   
    132. D(C   9,C   8,P   3,O   4)     58.5654         0.004794   
    133. D(C   9,C   8,P   3,C   2)   -179.5342         0.004794   
    134. D(H  27,C   9,C   8,H  26)   -179.4424         0.011669   
    135. D(H  27,C   9,C   8,H  25)     63.9579         0.011669   
    136. D(H  27,C   9,C   8,P   3)    -56.2867         0.011669   
    137. D(C  10,C   9,C   8,H  26)     58.9414         0.011669   
    138. D(C  10,C   9,C   8,H  25)    -57.6583         0.011669   
    139. D(C  10,C   9,C   8,P   3)   -177.9029         0.011669   
    140. D(H  30,C  10,C   9,H  28)    -58.2269         0.012022   
    141. D(H  30,C  10,C   9,H  27)     58.4089         0.012022   
    142. D(H  30,C  10,C   9,C   8)   -179.9406         0.012022   
    143. D(H  29,C  10,C   9,H  28)   -177.9688         0.012022   
    144. D(H  29,C  10,C   9,H  27)    -61.3330         0.012022   
    145. D(H  29,C  10,C   9,C   8)     60.3175         0.012022   
    -----------------------------------------------------------------

Number of atoms                         .... 32
Number of degrees of freedom            .... 145


         *************************************************************
         *                GEOMETRY OPTIMIZATION CYCLE   1            *
         *************************************************************
---------------------------------
CARTESIAN COORDINATES (ANGSTROEM)
---------------------------------
  C     -3.967506   -0.873980   -0.841056
  C     -2.581088   -0.417841   -1.262363
  C     -1.500278   -0.974997   -0.344706
  P      0.169646   -0.520214   -0.824999
  O      0.502803   -0.979645   -2.217315
  C      0.320727    1.258425   -0.649321
  C      0.004129    1.827112    0.727439
  C      0.164795    3.338315    0.759803
  C      1.229270   -1.281348    0.409515
  C      2.714068   -1.012137    0.200784
  C      3.566157   -1.719515    1.240629
  H     -4.198232   -0.539640    0.175469
  H     -4.047615   -1.965309   -0.870665
  H     -4.724001   -0.459653   -1.514792
  H     -2.542629    0.676623   -1.257753
  H     -2.388093   -0.736063   -2.292889
  H     -1.556004   -2.069945   -0.343085
  H     -1.681198   -0.652620    0.686143
  H     -0.336218    1.724426   -1.392696
  H      1.343668    1.535884   -0.928513
  H      0.664472    1.380221    1.477370
  H     -1.021041    1.569393    1.011633
  H     -0.509610    3.820052    0.044651
  H      1.191263    3.629156    0.514632
  H     -0.067807    3.722836    1.757783
  H      1.049367   -2.362358    0.376820
  H      0.923935   -0.945010    1.405987
  H      3.009994   -1.341908   -0.801301
  H      2.905156    0.065196    0.247571
  H      3.423248   -2.803796    1.193664
  H      4.626392   -1.509085    1.068887
  H      3.312228   -1.382574    2.250743

----------------------------
CARTESIAN COORDINATES (A.U.)
----------------------------
  NO LB      ZA    FRAG     MASS         X           Y           Z
   0 C     6.0000    0    12.011   -7.497500   -1.651583   -1.589366
   1 C     6.0000    0    12.011   -4.877549   -0.789605   -2.385520
   2 C     6.0000    0    12.011   -2.835115   -1.842477   -0.651400
   3 P    15.0000    0    30.974    0.320584   -0.983062   -1.559022
   4 O     8.0000    0    15.999    0.950160   -1.851261   -4.190118
   5 C     6.0000    0    12.011    0.606086    2.378079   -1.227039
   6 C     6.0000    0    12.011    0.007803    3.452741    1.374660
   7 C     6.0000    0    12.011    0.311417    6.308501    1.435820
   8 C     6.0000    0    12.011    2.322984   -2.421397    0.773871
   9 C     6.0000    0    12.011    5.128845   -1.912662    0.379427
  10 C     6.0000    0    12.011    6.739060   -3.249412    2.344449
  11 H     1.0000    0     1.008   -7.933509   -1.019772    0.331588
  12 H     1.0000    0     1.008   -7.648884   -3.713896   -1.645318
  13 H     1.0000    0     1.008   -8.927068   -0.868618   -2.862542
  14 H     1.0000    0     1.008   -4.804872    1.278632   -2.376809
  15 H     1.0000    0     1.008   -4.512842   -1.390957   -4.332932
  16 H     1.0000    0     1.008   -2.940421   -3.911629   -0.648337
  17 H     1.0000    0     1.008   -3.177004   -1.233273    1.296622
  18 H     1.0000    0     1.008   -0.635360    3.258693   -2.631814
  19 H     1.0000    0     1.008    2.539165    2.902400   -1.754635
  20 H     1.0000    0     1.008    1.255670    2.608240    2.791825
  21 H     1.0000    0     1.008   -1.929488    2.965723    1.911709
  22 H     1.0000    0     1.008   -0.963023    7.218852    0.084378
  23 H     1.0000    0     1.008    2.251161    6.858111    0.972514
  24 H     1.0000    0     1.008   -0.128137    7.035140    3.321728
  25 H     1.0000    0     1.008    1.983016   -4.464210    0.712087
  26 H     1.0000    0     1.008    1.745984   -1.785810    2.656930
  27 H     1.0000    0     1.008    5.688064   -2.535839   -1.514239
  28 H     1.0000    0     1.008    5.489949    0.123203    0.467841
  29 H     1.0000    0     1.008    6.469001   -5.298407    2.255698
  30 H     1.0000    0     1.008    8.742614   -2.851757    2.019904
  31 H     1.0000    0     1.008    6.259204   -2.612686    4.253288

--------------------------------
INTERNAL COORDINATES (ANGSTROEM)
--------------------------------
 C      0   0   0     0.000000000000     0.00000000     0.00000000
 C      1   0   0     1.519117258902     0.00000000     0.00000000
 C      2   1   0     1.523373701389   111.75428407     0.00000000
 P      3   2   1     1.796150079674   113.95016163   177.90289675
 O      4   3   2     1.503533928538   112.10238511   301.43489717
 C      4   3   2     1.793668007343   107.64977637    65.07654501
 C      6   4   3     1.522861548261   116.18940082    56.31233759
 C      7   6   4     1.520064307607   111.62503193   179.99999373
 C      4   3   2     1.796149437972   104.91584831   179.53452654
 C      9   4   3     1.523373983527   113.95015137   180.46578587
 C     10   9   4     1.519117152438   111.75427284   182.09708970
 H      1   2   3     1.094687534551   110.98875002    60.20531288
 H      1   2   3     1.094665762232   111.01655489   299.68241017
 H      1   2   3     1.094473273155   110.26881356   179.94045201
 H      2   1   3     1.095149210874   109.32708325   238.28641619
 H      2   1   3     1.095671551143   109.53579424   121.65058210
 H      3   2   1     1.096366333586   109.27448806    57.65833436
 H      3   2   1     1.095129507104   110.00811685   301.05866572
 H      6   4   3     1.096056593270   107.73927459   293.41115957
 H      6   4   3     1.096056549192   107.73919710   179.21351957
 H      7   6   4     1.094605384735   109.96877115    58.74029063
 H      7   6   4     1.094604422381   109.96884905   301.25979294
 H      8   7   6     1.094684897264   111.00671519    60.27432262
 H      8   7   6     1.094684366174   111.00673762   299.72579575
 H      8   7   6     1.094497222584   110.25659279   180.00009836
 H      9   4   3     1.096365209469   107.48904456    59.22357134
 H      9   4   3     1.095129745397   109.31520772   303.99769841
 H     10   9   4     1.095671235883   109.59528568   303.71327517
 H     10   9   4     1.095148410035   109.75867230    60.63251797
 H     11  10   9     1.094666150233   111.01659361    60.31752248
 H     11  10   9     1.094474465069   110.26872146   180.05942100
 H     11  10   9     1.094686926714   110.98879955   299.79455619

---------------------------
INTERNAL COORDINATES (A.U.)
---------------------------
 C      0   0   0     0.000000000000     0.00000000     0.00000000
 C      1   0   0     2.870715584638     0.00000000     0.00000000
 C      2   1   0     2.878759095244   111.75428407     0.00000000
 P      3   2   1     3.394231746005   113.95016163   177.90289675
 O      4   3   2     2.841267357996   112.10238511   301.43489717
 C      4   3   2     3.389541309055   107.64977637    65.07654501
 C      6   4   3     2.877791266093   116.18940082    56.31233759
 C      7   6   4     2.872505247326   111.62503193   179.99999373
 C      4   3   2     3.394230533364   104.91584831   179.53452654
 C      9   4   3     2.878759628406   113.95015137   180.46578587
 C     10   9   4     2.870715383449   111.75427284   182.09708970
 H      1   2   3     2.068659642519   110.98875002    60.20531288
 H      1   2   3     2.068618498799   111.01655489   299.68241017
 H      1   2   3     2.068254747159   110.26881356   179.94045201
 H      2   1   3     2.069532084331   109.32708325   238.28641619
 H      2   1   3     2.070519164390   109.53579424   121.65058210
 H      3   2   1     2.071832112929   109.27448806    57.65833436
 H      3   2   1     2.069494849603   110.00811685   301.05866572
 H      6   4   3     2.071246788559   107.73927459   293.41115957
 H      6   4   3     2.071246705263   107.73919710   179.21351957
 H      7   6   4     2.068504401865   109.96877115    58.74029063
 H      7   6   4     2.068502583280   109.96884905   301.25979294
 H      8   7   6     2.068654658769   111.00671519    60.27432262
 H      8   7   6     2.068653655154   111.00673762   299.72579575
 H      8   7   6     2.068300005022   110.25659279   180.00009836
 H      9   4   3     2.071829988656   107.48904456    59.22357134
 H      9   4   3     2.069495299911   109.31520772   303.99769841
 H     10   9   4     2.070518568634   109.59528568   303.71327517
 H     10   9   4     2.069530570965   109.75867230    60.63251797
 H     11  10   9     2.068619232015   111.01659361    60.31752248
 H     11  10   9     2.068256999551   110.26872146   180.05942100
 H     11  10   9     2.068658493873   110.98879955   299.79455619

---------------------
BASIS SET INFORMATION
---------------------
There are 4 groups of distinct atoms

 Group   1 Type C   : 7s4p1d contracted to 3s2p1d pattern {511/31/1}
 Group   2 Type P   : 10s7p1d contracted to 4s3p1d pattern {5311/511/1}
 Group   3 Type O   : 7s4p1d contracted to 3s2p1d pattern {511/31/1}
 Group   4 Type H   : 4s1p contracted to 2s1p pattern {31/1}

Atom   0C    basis set group =>   1
Atom   1C    basis set group =>   1
Atom   2C    basis set group =>   1
Atom   3P    basis set group =>   2
Atom   4O    basis set group =>   3
Atom   5C    basis set group =>   1
Atom   6C    basis set group =>   1
Atom   7C    basis set group =>   1
Atom   8C    basis set group =>   1
Atom   9C    basis set group =>   1
Atom  10C    basis set group =>   1
Atom  11H    basis set group =>   4
Atom  12H    basis set group =>   4
Atom  13H    basis set group =>   4
Atom  14H    basis set group =>   4
Atom  15H    basis set group =>   4
Atom  16H    basis set group =>   4
Atom  17H    basis set group =>   4
Atom  18H    basis set group =>   4
Atom  19H    basis set group =>   4
Atom  20H    basis set group =>   4
Atom  21H    basis set group =>   4
Atom  22H    basis set group =>   4
Atom  23H    basis set group =>   4
Atom  24H    basis set group =>   4
Atom  25H    basis set group =>   4
Atom  26H    basis set group =>   4
Atom  27H    basis set group =>   4
Atom  28H    basis set group =>   4
Atom  29H    basis set group =>   4
Atom  30H    basis set group =>   4
Atom  31H    basis set group =>   4
---------------------------------
AUXILIARY/J BASIS SET INFORMATION
---------------------------------
There are 4 groups of distinct atoms

 Group   1 Type C   : 12s5p4d2f1g contracted to 6s4p3d1f1g pattern {711111/2111/211/2/1}
 Group   2 Type P   : 14s5p5d2f1g contracted to 8s4p3d1f1g pattern {71111111/2111/311/2/1}
 Group   3 Type O   : 12s5p4d2f1g contracted to 6s4p3d1f1g pattern {711111/2111/211/2/1}
 Group   4 Type H   : 5s2p1d contracted to 3s1p1d pattern {311/2/1}

Atom   0C    basis set group =>   1
Atom   1C    basis set group =>   1
Atom   2C    basis set group =>   1
Atom   3P    basis set group =>   2
Atom   4O    basis set group =>   3
Atom   5C    basis set group =>   1
Atom   6C    basis set group =>   1
Atom   7C    basis set group =>   1
Atom   8C    basis set group =>   1
Atom   9C    basis set group =>   1
Atom  10C    basis set group =>   1
Atom  11H    basis set group =>   4
Atom  12H    basis set group =>   4
Atom  13H    basis set group =>   4
Atom  14H    basis set group =>   4
Atom  15H    basis set group =>   4
Atom  16H    basis set group =>   4
Atom  17H    basis set group =>   4
Atom  18H    basis set group =>   4
Atom  19H    basis set group =>   4
Atom  20H    basis set group =>   4
Atom  21H    basis set group =>   4
Atom  22H    basis set group =>   4
Atom  23H    basis set group =>   4
Atom  24H    basis set group =>   4
Atom  25H    basis set group =>   4
Atom  26H    basis set group =>   4
Atom  27H    basis set group =>   4
Atom  28H    basis set group =>   4
Atom  29H    basis set group =>   4
Atom  30H    basis set group =>   4
Atom  31H    basis set group =>   4


           ************************************************************
           *        Program running with 6 parallel MPI-processes     *
           *              working on a common directory               *
           ************************************************************
------------------------------------------------------------------------------
                             ORCA STARTUP CALCULATIONS
                           -- RI-GTO INTEGRALS CHOSEN --
------------------------------------------------------------------------------
------------------------------------------------------------------------------
                   ___                                                        
                  /   \      - P O W E R E D   B Y -                         
                 /     \                                                     
                 |  |  |   _    _      __       _____    __    __             
                 |  |  |  | |  | |    /  \     |  _  \  |  |  /  |          
                  \  \/   | |  | |   /    \    | | | |  |  | /  /          
                 / \  \   | |__| |  /  /\  \   | |_| |  |  |/  /          
                |  |  |   |  __  | /  /__\  \  |    /   |      \           
                |  |  |   | |  | | |   __   |  |    \   |  |\   \          
                \     /   | |  | | |  |  |  |  | |\  \  |  | \   \       
                 \___/    |_|  |_| |__|  |__|  |_| \__\ |__|  \__/        
                                                                              
                      - O R C A' S   B I G   F R I E N D -                    
                                      &                                       
                       - I N T E G R A L  F E E D E R -                       
                                                                              
 v1 FN, 2020, v2 2021, v3 2022-2024                                           
------------------------------------------------------------------------------


----------------------
SHARK INTEGRAL PACKAGE
----------------------

Number of atoms                             ...     32
Number of basis functions                   ...    263
Number of shells                            ...    131
Maximum angular momentum                    ...      2
Integral batch strategy                     ... SHARK/LIBINT Hybrid
RI-J (if used) integral strategy            ... SPLIT-RIJ (Revised 2003 algorithm where possible)
Printlevel                                  ...      1
Contraction scheme used                     ... SEGMENTED contraction
Prescreening option                         ... SCHWARTZ
   Thresh                                   ... 2.500e-11
   Tcut                                     ... 2.500e-12
   Tpresel                                  ... 2.500e-12 
Coulomb Range Separation                    ... NOT USED
Exchange Range Separation                   ... NOT USED
Multipole approximations                    ... NOT USED
Finite Nucleus Model                        ... NOT USED
CABS basis                                  ... NOT available
Auxiliary Coulomb fitting basis             ... AVAILABLE
   # of basis functions in Aux-J            ...    772
   # of shells in Aux-J                     ...    272
   Maximum angular momentum in Aux-J        ...      4
Auxiliary J/K fitting basis                 ... NOT available
Auxiliary Correlation fitting basis         ... NOT available
Auxiliary 'external' fitting basis          ... NOT available

Checking pre-screening integrals            ... done (  0.0 sec) Dimension = 131
Check shell pair data                       ... done (  0.0 sec)
Shell pair information
Shell pair cut-off parameter TPreSel        ...   2.5e-12
Total number of shell pairs                 ...      8646
Shell pairs after pre-screening             ...      7320
Total number of primitive shell pairs       ...     29862
Primitive shell pairs kept                  ...     17464
          la=0 lb=0:   2590 shell pairs
          la=1 lb=0:   2826 shell pairs
          la=1 lb=1:    785 shell pairs
          la=2 lb=0:    692 shell pairs
          la=2 lb=1:    376 shell pairs
          la=2 lb=2:     51 shell pairs

Calculating one electron integrals          ... done (  0.0 sec)
Calculating RI/J V-Matrix + Cholesky decomp.... done (  0.0 sec)
Calculating Nuclear repulsion               ... done (  0.0 sec) ENN=    790.653649194877 Eh

Diagonalization of the overlap matrix:
Smallest eigenvalue                        ... 1.402e-03
Time for diagonalization                   ...    0.009 sec
Threshold for overlap eigenvalues          ... 1.000e-07
Number of eigenvalues below threshold      ... 0
Time for construction of square roots      ...    0.007 sec
Total time needed                          ...    0.017 sec

-------------------
DFT GRID GENERATION
-------------------

General Integration Accuracy     IntAcc      ... 4.388
Radial Grid Type                 RadialGrid  ... OptM3 with GC (2021)
Angular Grid (max. ang.)         AngularGrid ... 4 (Lebedev-302)
Angular grid pruning method      GridPruning ... 4 (adaptive)
Weight generation scheme         WeightScheme... mBecke (2022)
Basis function cutoff            BFCut       ... 1.0000e-11
Integration weight cutoff        WCut        ... 1.0000e-14
Partially contracted basis set               ... off
Rotationally invariant grid construction     ... off
Angular grids for H and He will be reduced by one unit

Total number of grid points                  ...   133807
Total number of batches                      ...     2108
Average number of points per batch           ...       63
Average number of grid points per atom       ...     4181
Initializing property integral containers    ... done (  0.0 sec)

SHARK setup successfully completed in   0.8 seconds

Maximum memory used throughout the entire STARTUP-calculation: 37.7 MB


           ************************************************************
           *        Program running with 6 parallel MPI-processes     *
           *              working on a common directory               *
           ************************************************************
-------------------------------------------------------------------------------
                                 ORCA GUESS
                   Start orbitals & Density for SCF / CASSCF
-------------------------------------------------------------------------------

------------
SCF SETTINGS
------------
Hamiltonian:
 Density Functional     Method          .... DFT(GTOs)
 Exchange Functional    Exchange        .... B88
   X-Alpha parameter    XAlpha          ....  0.666667
   Becke's b parameter  XBeta           ....  0.004200
 Correlation Functional Correlation     .... P86
 LDA part of GGA corr.  LDAOpt          .... PW91-LDA
 Gradients option       PostSCFGGA      .... off
   NL short-range parameter             ....  4.400000
 RI-approximation to the Coulomb term is turned on
   Number of AuxJ basis functions       .... 772


General Settings:
 Integral files         IntName         .... data/geom_opt_PO_BP86/75226/75226
 Hartree-Fock type      HFTyp           .... RHF
 Total Charge           Charge          ....    0
 Multiplicity           Mult            ....    1
 Number of Electrons    NEL             ....   98
 Basis Dimension        Dim             ....  263
 Nuclear Repulsion      ENuc            ....    790.6536491949 Eh

Convergence Acceleration:
 AO-DIIS                CNVDIIS         .... on
   Start iteration      DIISMaxIt       ....    12
   Startup error        DIISStart       ....  0.200000
   # of expansion vecs  DIISMaxEq       ....     5
   Bias factor          DIISBfac        ....   1.050
   Max. coefficient     DIISMaxC        ....  10.000
 MO-DIIS                CNVKDIIS        .... off
 Trust-Rad. Augm. Hess. CNVTRAH         .... auto
   Auto Start mean grad. ratio tolernc. ....  1.125000
   Auto Start start iteration           ....    50
   Auto Start num. interpolation iter.  ....    10
   Max. Number of Micro iterations      ....    24
   Max. Number of Macro iterations      .... Maxiter - #DIIS iter
   Number of Davidson start vectors     ....     2
   Converg. threshold    (grad. norm)   ....   1.000e-05
   Grad. Scal. Fac. for Micro threshold ....   0.100
   Minimum threshold for Micro iter.    ....   1.000e-02
   NR start threshold (gradient norm)   ....   1.000e-04
   Initial trust radius                 ....   0.400
   Minimum AH scaling param. (alpha)    ....   1.000
   Maximum AH scaling param. (alpha)    .... 1000.000
   Quad. conv. algorithm                .... NR
   White noise on init. David. guess    .... on
   Maximum white noise                  ....   0.010
   Pseudo random numbers                .... off
   Inactive MOs                         .... canonical
   Orbital update algorithm             .... Taylor
   Preconditioner                       .... Diag
   Full preconditioner red. dimension   ....   250
 SOSCF                  CNVSOSCF        .... on
   Start iteration      SOSCFMaxIt      ....   150
   Startup grad/error   SOSCFStart      ....  0.003300
   Hessian update       SOSCFHessUp     .... L-BFGS
 Level Shifting         CNVShift        .... on
   Level shift para.    LevelShift      ....    0.2500
   Turn off err/grad.   ShiftErr        ....    0.0010
 Zerner damping         CNVZerner       .... off
 Static damping         CNVDamp         .... on
   Fraction old density DampFac         ....    0.7000
   Max. Damping (<1)    DampMax         ....    0.9800
   Min. Damping (>=0)   DampMin         ....    0.0000
   Turn off err/grad.   DampErr         ....    0.1000

SCF Procedure:
 Maximum # iterations   MaxIter         ....   125
 SCF integral mode      SCFMode         .... Direct
   Integral package                     .... SHARK and LIBINT hybrid scheme
 Reset frequency        DirectResetFreq ....    20
 Integral Threshold     Thresh          ....  2.500e-11 Eh
 Primitive CutOff       TCut            ....  2.500e-12 Eh

Convergence Tolerance:
 Convergence Check Mode ConvCheckMode   .... Total+1el-Energy
 Convergence forced     ConvForced      .... 0
 Energy Change          TolE            ....  1.000e-08 Eh
 1-El. energy change                    ....  1.000e-05 Eh
 Orbital Gradient       TolG            ....  1.000e-05
 Orbital Rotation angle TolX            ....  1.000e-05
 DIIS Error             TolErr          ....  5.000e-07

------------------------------
INITIAL GUESS: MODEL POTENTIAL
------------------------------
Loading Hartree-Fock densities                     ... done
Calculating cut-offs                               ... done
Initializing the effective Hamiltonian             ... done
Setting up the integral package (SHARK)            ... done
Starting the Coulomb interaction                   ... done (   0.1 sec)
Making the grid                                    ... done (   0.2 sec)
Mapping shells                                     ... done
Starting the XC term evaluation                    ... done (   0.1 sec)
  promolecular density results
     # of electrons  =     97.995533678
     EX              =    -83.440659535
     EC              =     -3.623442482
     EX+EC           =    -87.064102017
Transforming the Hamiltonian                       ... done (   0.0 sec)
Diagonalizing the Hamiltonian                      ... done (   0.0 sec)
Back transforming the eigenvectors                 ... done (   0.0 sec)
Now organizing SCF variables                       ... done
                      ------------------
                      INITIAL GUESS DONE (   0.4 sec)
                      ------------------
             **** ENERGY FILE WAS UPDATED (data/geom_opt_PO_BP86/75226/75226.en.tmp) ****
Finished Guess after   0.5 sec
Maximum memory used throughout the entire GUESS-calculation: 20.1 MB


           ************************************************************
           *        Program running with 6 parallel MPI-processes     *
           *              working on a common directory               *
           ************************************************************

-------------------------------------------------------------------------------------------
                                      ORCA LEAN-SCF
                              memory conserving SCF solver
-------------------------------------------------------------------------------------------

----------------------------------------D-I-I-S--------------------------------------------
Iteration    Energy (Eh)           Delta-E    RMSDP     MaxDP     DIISErr   Damp  Time(sec)
-------------------------------------------------------------------------------------------
               ***  Starting incremental Fock matrix formation  ***
    1    -771.3558472439518710     0.00e+00  4.64e-03  2.26e-01  3.40e-01  0.700   0.5
    2    -771.5871937803154879    -2.31e-01  2.79e-03  1.29e-01  8.87e-02  0.700   0.5
                               ***Turning on AO-DIIS***
    3    -771.6580782686597786    -7.09e-02  8.58e-04  2.50e-02  2.68e-02  0.700   0.6
    4    -771.7047542706351351    -4.67e-02  1.39e-03  5.40e-02  1.12e-02  0.000   0.5
    5    -771.8113270659495129    -1.07e-01  3.93e-04  1.21e-02  9.06e-03  0.000   0.6
                              *** Initializing SOSCF ***
---------------------------------------S-O-S-C-F--------------------------------------
Iteration    Energy (Eh)           Delta-E    RMSDP     MaxDP     MaxGrad    Time(sec)
--------------------------------------------------------------------------------------
    6    -771.8125198162891820    -1.19e-03  1.34e-04  2.74e-03  2.00e-03     0.5
               *** Restarting incremental Fock matrix formation ***
    7    -771.8126096498366451    -8.98e-05  1.25e-04  4.28e-03  3.48e-04     0.5
    8    -771.8126090327108386     6.17e-07  4.62e-05  2.13e-03  5.48e-04     0.5
    9    -771.8126205923018688    -1.16e-05  2.77e-05  1.10e-03  1.80e-04     0.4
   10    -771.8126189599223608     1.63e-06  1.88e-05  7.90e-04  3.35e-04     0.4
   11    -771.8126211690070022    -2.21e-06  5.14e-06  1.54e-04  1.52e-05     0.5
   12    -771.8126211565573840     1.24e-08  2.27e-06  1.06e-04  1.96e-05     0.5
   13    -771.8126211980728613    -4.15e-08  8.28e-07  1.94e-05  3.34e-06     0.4
   14    -771.8126212049195374    -6.85e-09  4.21e-07  1.12e-05  3.45e-06     0.4
                 **** Energy Check signals convergence ****

               *****************************************************
               *                     SUCCESS                       *
               *           SCF CONVERGED AFTER  14 CYCLES          *
               *****************************************************

             **** ENERGY FILE WAS UPDATED (data/geom_opt_PO_BP86/75226/75226.en.tmp) ****

----------------
TOTAL SCF ENERGY
----------------

Total Energy       :       -771.81262120491954 Eh          -21002.08915 eV

Components:
Nuclear Repulsion  :        790.65364919487740 Eh           21514.77958 eV
Electronic Energy  :      -1562.46627039979694 Eh          -42516.86873 eV
One Electron Energy:      -2623.39674880724942 Eh          -71386.25474 eV
Two Electron Energy:       1060.93047840745248 Eh           28869.38601 eV

Virial components:
Potential Energy   :      -1537.56722050384133 Eh          -41839.33114 eV
Kinetic Energy     :        765.75459929892168 Eh           20837.24199 eV
Virial Ratio       :          2.00791117926232

DFT components:
N(Alpha)           :       48.999939213662 electrons
N(Beta)            :       48.999939213662 electrons
N(Total)           :       97.999878427324 electrons
E(X)               :      -85.055861695622 Eh       
E(C)               :       -3.618285055063 Eh       
E(XC)              :      -88.674146750685 Eh       

---------------
SCF CONVERGENCE
---------------

  Last Energy change         ...    6.8467e-09  Tolerance :   1.0000e-08
  Last MAX-Density change    ...    1.1240e-05  Tolerance :   1.0000e-07
  Last RMS-Density change    ...    4.2138e-07  Tolerance :   5.0000e-09
  Last DIIS Error            ...    1.9973e-03  Tolerance :   5.0000e-07
  Last Orbital Gradient      ...    3.4457e-06  Tolerance :   1.0000e-05
  Last Orbital Rotation      ...    4.1994e-06  Tolerance :   1.0000e-05


----------------
ORBITAL ENERGIES
----------------

  NO   OCC          E(Eh)            E(eV) 
   0   2.0000     -76.389592     -2078.6665 
   1   2.0000     -18.690321      -508.5895 
   2   2.0000      -9.924670      -270.0640 
   3   2.0000      -9.915321      -269.8096 
   4   2.0000      -9.915310      -269.8093 
   5   2.0000      -9.913737      -269.7665 
   6   2.0000      -9.912129      -269.7227 
   7   2.0000      -9.911675      -269.7104 
   8   2.0000      -9.911652      -269.7098 
   9   2.0000      -9.906181      -269.5609 
  10   2.0000      -9.906173      -269.5607 
  11   2.0000      -6.351622      -172.8364 
  12   2.0000      -4.572578      -124.4262 
  13   2.0000      -4.572506      -124.4242 
  14   2.0000      -4.572458      -124.4229 
  15   2.0000      -0.836244       -22.7553 
  16   2.0000      -0.734623       -19.9901 
  17   2.0000      -0.717850       -19.5337 
  18   2.0000      -0.717668       -19.5288 
  19   2.0000      -0.653345       -17.7784 
  20   2.0000      -0.621943       -16.9239 
  21   2.0000      -0.617133       -16.7931 
  22   2.0000      -0.544829       -14.8255 
  23   2.0000      -0.542651       -14.7663 
  24   2.0000      -0.524994       -14.2858 
  25   2.0000      -0.476203       -12.9582 
  26   2.0000      -0.441787       -12.0216 
  27   2.0000      -0.431865       -11.7517 
  28   2.0000      -0.419487       -11.4148 
  29   2.0000      -0.401805       -10.9337 
  30   2.0000      -0.397771       -10.8239 
  31   2.0000      -0.380910       -10.3651 
  32   2.0000      -0.374410       -10.1882 
  33   2.0000      -0.373898       -10.1743 
  34   2.0000      -0.352660        -9.5964 
  35   2.0000      -0.350673        -9.5423 
  36   2.0000      -0.345067        -9.3898 
  37   2.0000      -0.339581        -9.2405 
  38   2.0000      -0.322332        -8.7711 
  39   2.0000      -0.316736        -8.6188 
  40   2.0000      -0.308700        -8.4002 
  41   2.0000      -0.305674        -8.3178 
  42   2.0000      -0.302543        -8.2326 
  43   2.0000      -0.294674        -8.0185 
  44   2.0000      -0.294148        -8.0042 
  45   2.0000      -0.286500        -7.7961 
  46   2.0000      -0.276660        -7.5283 
  47   2.0000      -0.198326        -5.3967 
  48   2.0000      -0.196235        -5.3398 
  49   0.0000       0.013401         0.3646 
  50   0.0000       0.036793         1.0012 
  51   0.0000       0.037410         1.0180 
  52   0.0000       0.054490         1.4828 
  53   0.0000       0.057566         1.5664 
  54   0.0000       0.061643         1.6774 
  55   0.0000       0.066501         1.8096 
  56   0.0000       0.071247         1.9387 
  57   0.0000       0.082327         2.2402 
  58   0.0000       0.094352         2.5675 
  59   0.0000       0.094696         2.5768 
*Only the first 10 virtual orbitals were printed.

                    ********************************
                    * MULLIKEN POPULATION ANALYSIS *
                    ********************************

-----------------------
MULLIKEN ATOMIC CHARGES
-----------------------
   0 C :   -0.023834
   1 C :   -0.039050
   2 C :   -0.123211
   3 P :    0.415072
   4 O :   -0.472585
   5 C :   -0.136841
   6 C :   -0.069050
   7 C :   -0.021544
   8 C :   -0.123601
   9 C :   -0.038929
  10 C :   -0.023848
  11 H :    0.018737
  12 H :    0.027271
  13 H :    0.028336
  14 H :    0.017239
  15 H :    0.044429
  16 H :    0.047092
  17 H :    0.024275
  18 H :    0.053870
  19 H :    0.053853
  20 H :    0.026643
  21 H :    0.026714
  22 H :    0.026991
  23 H :    0.026985
  24 H :    0.027478
  25 H :    0.047110
  26 H :    0.024371
  27 H :    0.044433
  28 H :    0.017259
  29 H :    0.027251
  30 H :    0.028343
  31 H :    0.018743
Sum of atomic charges:   -0.0000000

--------------------------------
MULLIKEN REDUCED ORBITAL CHARGES
--------------------------------
  0 C s       :     2.995981  s :     2.995981
      pz      :     1.004171  p :     3.001013
      px      :     0.983902
      py      :     1.012940
      dz2     :     0.006277  d :     0.026840
      dxz     :     0.006551
      dyz     :     0.002339
      dx2y2   :     0.007500
      dxy     :     0.004174

  1 C s       :     3.026587  s :     3.026587
      pz      :     1.020512  p :     2.976892
      px      :     0.949560
      py      :     1.006820
      dz2     :     0.009224  d :     0.035572
      dxz     :     0.007482
      dyz     :     0.002969
      dx2y2   :     0.010449
      dxy     :     0.005448

  2 C s       :     3.045029  s :     3.045029
      pz      :     1.005717  p :     3.050845
      px      :     1.012756
      py      :     1.032372
      dz2     :     0.008607  d :     0.027337
      dxz     :     0.004416
      dyz     :     0.002991
      dx2y2   :     0.008080
      dxy     :     0.003243

  3 P s       :     5.283147  s :     5.283147
      pz      :     2.871028  p :     8.802256
      px      :     2.961748
      py      :     2.969480
      dz2     :     0.117086  d :     0.499525
      dxz     :     0.133193
      dyz     :     0.107488
      dx2y2   :     0.096320
      dxy     :     0.045439

  4 O s       :     3.813448  s :     3.813448
      pz      :     1.388897  p :     4.647041
      px      :     1.630459
      py      :     1.627685
      dz2     :     0.004428  d :     0.012096
      dxz     :     0.003191
      dyz     :     0.003444
      dx2y2   :     0.000487
      dxy     :     0.000545

  5 C s       :     3.061167  s :     3.061167
      pz      :     0.981640  p :     3.048574
      px      :     1.034178
      py      :     1.032755
      dz2     :     0.006213  d :     0.027100
      dxz     :     0.006954
      dyz     :     0.004921
      dx2y2   :     0.006457
      dxy     :     0.002555

  6 C s       :     3.041393  s :     3.041393
      pz      :     0.981434  p :     2.991610
      px      :     1.015240
      py      :     0.994936
      dz2     :     0.007011  d :     0.036047
      dxz     :     0.006976
      dyz     :     0.008327
      dx2y2   :     0.007843
      dxy     :     0.005889

  7 C s       :     2.994160  s :     2.994160
      pz      :     1.009615  p :     3.000685
      px      :     1.018343
      py      :     0.972726
      dz2     :     0.005132  d :     0.026700
      dxz     :     0.003779
      dyz     :     0.005984
      dx2y2   :     0.006221
      dxy     :     0.005584

  8 C s       :     3.045209  s :     3.045209
      pz      :     1.018004  p :     3.051054
      px      :     1.001661
      py      :     1.031389
      dz2     :     0.005888  d :     0.027338
      dxz     :     0.006902
      dyz     :     0.002572
      dx2y2   :     0.006784
      dxy     :     0.005191

  9 C s       :     3.026491  s :     3.026491
      pz      :     1.025194  p :     2.976867
      px      :     0.941569
      py      :     1.010103
      dz2     :     0.009259  d :     0.035571
      dxz     :     0.007096
      dyz     :     0.003513
      dx2y2   :     0.010242
      dxy     :     0.005461

 10 C s       :     2.996014  s :     2.996014
      pz      :     0.992602  p :     3.000995
      px      :     1.000084
      py      :     1.008309
      dz2     :     0.008798  d :     0.026840
      dxz     :     0.003502
      dyz     :     0.003391
      dx2y2   :     0.008791
      dxy     :     0.002357

 11 H s       :     0.958334  s :     0.958334
      pz      :     0.011770  p :     0.022928
      px      :     0.005084
      py      :     0.006075

 12 H s       :     0.949789  s :     0.949789
      pz      :     0.005459  p :     0.022940
      px      :     0.004665
      py      :     0.012817

 13 H s       :     0.948894  s :     0.948894
      pz      :     0.008109  p :     0.022770
      px      :     0.008341
      py      :     0.006320

 14 H s       :     0.960667  s :     0.960667
      pz      :     0.005088  p :     0.022094
      px      :     0.004470
      py      :     0.012536

 15 H s       :     0.933697  s :     0.933697
      pz      :     0.011811  p :     0.021874
      px      :     0.004470
      py      :     0.005593

 16 H s       :     0.929793  s :     0.929793
      pz      :     0.005140  p :     0.023115
      px      :     0.004864
      py      :     0.013112

 17 H s       :     0.952415  s :     0.952415
      pz      :     0.011876  p :     0.023309
      px      :     0.005342
      py      :     0.006091

 18 H s       :     0.922882  s :     0.922882
      pz      :     0.008450  p :     0.023247
      px      :     0.008334
      py      :     0.006463

 19 H s       :     0.922900  s :     0.922900
      pz      :     0.005277  p :     0.023248
      px      :     0.012376
      py      :     0.005594

 20 H s       :     0.951368  s :     0.951368
      pz      :     0.008144  p :     0.021989
      px      :     0.008057
      py      :     0.005788

 21 H s       :     0.951294  s :     0.951294
      pz      :     0.005113  p :     0.021991
      px      :     0.011907
      py      :     0.004971

 22 H s       :     0.950068  s :     0.950068
      pz      :     0.008595  p :     0.022941
      px      :     0.008270
      py      :     0.006077

 23 H s       :     0.950072  s :     0.950072
      pz      :     0.005893  p :     0.022944
      px      :     0.011994
      py      :     0.005057

 24 H s       :     0.949763  s :     0.949763
      pz      :     0.011542  p :     0.022758
      px      :     0.005716
      py      :     0.005501

 25 H s       :     0.929776  s :     0.929776
      pz      :     0.005497  p :     0.023115
      px      :     0.004630
      py      :     0.012988

 26 H s       :     0.952317  s :     0.952317
      pz      :     0.011830  p :     0.023312
      px      :     0.005190
      py      :     0.006292

 27 H s       :     0.933694  s :     0.933694
      pz      :     0.011771  p :     0.021874
      px      :     0.004498
      py      :     0.005604

 28 H s       :     0.960646  s :     0.960646
      pz      :     0.005216  p :     0.022095
      px      :     0.004636
      py      :     0.012243

 29 H s       :     0.949808  s :     0.949808
      pz      :     0.004974  p :     0.022941
      px      :     0.005275
      py      :     0.012692

 30 H s       :     0.948887  s :     0.948887
      pz      :     0.005122  p :     0.022770
      px      :     0.012223
      py      :     0.005424

 31 H s       :     0.958327  s :     0.958327
      pz      :     0.011506  p :     0.022931
      px      :     0.005533
      py      :     0.005892



                     *******************************
                     * LOEWDIN POPULATION ANALYSIS *
                     *******************************

----------------------
LOEWDIN ATOMIC CHARGES
----------------------
   0 C :   -0.065860
   1 C :   -0.051530
   2 C :   -0.191366
   3 P :    0.852284
   4 O :   -0.513937
   5 C :   -0.190657
   6 C :   -0.057581
   7 C :   -0.064347
   8 C :   -0.191402
   9 C :   -0.051527
  10 C :   -0.065849
  11 H :    0.023151
  12 H :    0.026790
  13 H :    0.029178
  14 H :    0.021606
  15 H :    0.033690
  16 H :    0.036932
  17 H :    0.022234
  18 H :    0.037377
  19 H :    0.037380
  20 H :    0.023552
  21 H :    0.023563
  22 H :    0.027159
  23 H :    0.027155
  24 H :    0.028398
  25 H :    0.036944
  26 H :    0.022237
  27 H :    0.033689
  28 H :    0.021615
  29 H :    0.026790
  30 H :    0.029181
  31 H :    0.023147

-------------------------------
LOEWDIN REDUCED ORBITAL CHARGES
-------------------------------
  0 C s       :     2.840125  s :     2.840125
      pz      :     1.063096  p :     3.155121
      px      :     1.027215
      py      :     1.064811
      dz2     :     0.016808  d :     0.070613
      dxz     :     0.016656
      dyz     :     0.006254
      dx2y2   :     0.020770
      dxy     :     0.010125

  1 C s       :     2.834834  s :     2.834834
      pz      :     1.058494  p :     3.127187
      px      :     1.013608
      py      :     1.055084
      dz2     :     0.022739  d :     0.089510
      dxz     :     0.019301
      dyz     :     0.007397
      dx2y2   :     0.027286
      dxy     :     0.012787

  2 C s       :     2.888018  s :     2.888018
      pz      :     1.066444  p :     3.231498
      px      :     1.084713
      py      :     1.080342
      dz2     :     0.021418  d :     0.071850
      dxz     :     0.012642
      dyz     :     0.007636
      dx2y2   :     0.022113
      dxy     :     0.008040

  3 P s       :     4.926259  s :     4.926259
      pz      :     2.797532  p :     8.522013
      px      :     2.861110
      py      :     2.863371
      dz2     :     0.167978  d :     0.699443
      dxz     :     0.187283
      dyz     :     0.146678
      dx2y2   :     0.141498
      dxy     :     0.056006

  4 O s       :     3.654085  s :     3.654085
      pz      :     1.514617  p :     4.841050
      px      :     1.663030
      py      :     1.663403
      dz2     :     0.008099  d :     0.018802
      dxz     :     0.004302
      dyz     :     0.005124
      dx2y2   :     0.000571
      dxy     :     0.000706

  5 C s       :     2.886634  s :     2.886634
      pz      :     1.050584  p :     3.232687
      px      :     1.082223
      py      :     1.099880
      dz2     :     0.016896  d :     0.071337
      dxz     :     0.016420
      dyz     :     0.013319
      dx2y2   :     0.018223
      dxy     :     0.006479

  6 C s       :     2.835438  s :     2.835438
      pz      :     1.032287  p :     3.131553
      px      :     1.063882
      py      :     1.035384
      dz2     :     0.018835  d :     0.090590
      dxz     :     0.017046
      dyz     :     0.019890
      dx2y2   :     0.022176
      dxy     :     0.012642

  7 C s       :     2.840221  s :     2.840221
      pz      :     1.066669  p :     3.153788
      px      :     1.068749
      py      :     1.018371
      dz2     :     0.014547  d :     0.070338
      dxz     :     0.010220
      dyz     :     0.014411
      dx2y2   :     0.018747
      dxy     :     0.012412

  8 C s       :     2.888018  s :     2.888018
      pz      :     1.087730  p :     3.231535
      px      :     1.058047
      py      :     1.085758
      dz2     :     0.016320  d :     0.071849
      dxz     :     0.016764
      dyz     :     0.007227
      dx2y2   :     0.019837
      dxy     :     0.011701

  9 C s       :     2.834832  s :     2.834832
      pz      :     1.063139  p :     3.127185
      px      :     1.007368
      py      :     1.056679
      dz2     :     0.022856  d :     0.089509
      dxz     :     0.017426
      dyz     :     0.009418
      dx2y2   :     0.027368
      dxy     :     0.012441

 10 C s       :     2.840126  s :     2.840126
      pz      :     1.045723  p :     3.155110
      px      :     1.050353
      py      :     1.059033
      dz2     :     0.021819  d :     0.070613
      dxz     :     0.010356
      dyz     :     0.009332
      dx2y2   :     0.022772
      dxy     :     0.006335

 11 H s       :     0.911269  s :     0.911269
      pz      :     0.035875  p :     0.065580
      px      :     0.014406
      py      :     0.015300

 12 H s       :     0.907604  s :     0.907604
      pz      :     0.012828  p :     0.065606
      px      :     0.013208
      py      :     0.039570

 13 H s       :     0.905071  s :     0.905071
      pz      :     0.022884  p :     0.065751
      px      :     0.026236
      py      :     0.016631

 14 H s       :     0.911872  s :     0.911872
      pz      :     0.013581  p :     0.066522
      px      :     0.013493
      py      :     0.039448

 15 H s       :     0.898625  s :     0.898625
      pz      :     0.038372  p :     0.067685
      px      :     0.014197
      py      :     0.015115

 16 H s       :     0.892052  s :     0.892052
      pz      :     0.013421  p :     0.071016
      px      :     0.015758
      py      :     0.041837

 17 H s       :     0.904483  s :     0.904483
      pz      :     0.038836  p :     0.073283
      px      :     0.018132
      py      :     0.016315

 18 H s       :     0.891074  s :     0.891074
      pz      :     0.026913  p :     0.071549
      px      :     0.023069
      py      :     0.021566

 19 H s       :     0.891072  s :     0.891072
      pz      :     0.015520  p :     0.071548
      px      :     0.037796
      py      :     0.018232

 20 H s       :     0.909364  s :     0.909364
      pz      :     0.026013  p :     0.067084
      px      :     0.022860
      py      :     0.018212

 21 H s       :     0.909353  s :     0.909353
      pz      :     0.015191  p :     0.067085
      px      :     0.036594
      py      :     0.015300

 22 H s       :     0.907206  s :     0.907206
      pz      :     0.024376  p :     0.065635
      px      :     0.022849
      py      :     0.018409

 23 H s       :     0.907210  s :     0.907210
      pz      :     0.014260  p :     0.065635
      px      :     0.036343
      py      :     0.015031

 24 H s       :     0.905641  s :     0.905641
      pz      :     0.034894  p :     0.065960
      px      :     0.014075
      py      :     0.016991

 25 H s       :     0.892040  s :     0.892040
      pz      :     0.014450  p :     0.071016
      px      :     0.014821
      py      :     0.041746

 26 H s       :     0.904478  s :     0.904478
      pz      :     0.039660  p :     0.073285
      px      :     0.016794
      py      :     0.016831

 27 H s       :     0.898626  s :     0.898626
      pz      :     0.037790  p :     0.067685
      px      :     0.014588
      py      :     0.015308

 28 H s       :     0.911863  s :     0.911863
      pz      :     0.013758  p :     0.066522
      px      :     0.014138
      py      :     0.038626

 29 H s       :     0.907606  s :     0.907606
      pz      :     0.012943  p :     0.065605
      px      :     0.013349
      py      :     0.039313

 30 H s       :     0.905068  s :     0.905068
      pz      :     0.013677  p :     0.065750
      px      :     0.038163
      py      :     0.013911

 31 H s       :     0.911272  s :     0.911272
      pz      :     0.035852  p :     0.065581
      px      :     0.014373
      py      :     0.015356



                      *****************************
                      * MAYER POPULATION ANALYSIS *
                      *****************************

  NA   - Mulliken gross atomic population
  ZA   - Total nuclear charge
  QA   - Mulliken gross atomic charge
  VA   - Mayer's total valence
  BVA  - Mayer's bonded valence
  FA   - Mayer's free valence

  ATOM       NA         ZA         QA         VA         BVA        FA
  0 C      6.0238     6.0000    -0.0238     4.0312     4.0312    -0.0000
  1 C      6.0391     6.0000    -0.0391     4.1165     4.1165    -0.0000
  2 C      6.1232     6.0000    -0.1232     3.8944     3.8944    -0.0000
  3 P     14.5849    15.0000     0.4151     4.9689     4.9689    -0.0000
  4 O      8.4726     8.0000    -0.4726     2.1154     2.1154    -0.0000
  5 C      6.1368     6.0000    -0.1368     3.8648     3.8648    -0.0000
  6 C      6.0691     6.0000    -0.0691     4.0879     4.0879    -0.0000
  7 C      6.0215     6.0000    -0.0215     4.0285     4.0285    -0.0000
  8 C      6.1236     6.0000    -0.1236     3.8945     3.8945    -0.0000
  9 C      6.0389     6.0000    -0.0389     4.1163     4.1163    -0.0000
 10 C      6.0238     6.0000    -0.0238     4.0312     4.0312    -0.0000
 11 H      0.9813     1.0000     0.0187     0.9892     0.9892    -0.0000
 12 H      0.9727     1.0000     0.0273     0.9905     0.9905    -0.0000
 13 H      0.9717     1.0000     0.0283     0.9848     0.9848    -0.0000
 14 H      0.9828     1.0000     0.0172     0.9832     0.9832    -0.0000
 15 H      0.9556     1.0000     0.0444     0.9970     0.9970    -0.0000
 16 H      0.9529     1.0000     0.0471     0.9959     0.9959    -0.0000
 17 H      0.9757     1.0000     0.0243     0.9952     0.9952    -0.0000
 18 H      0.9461     1.0000     0.0539     1.0045     1.0045    -0.0000
 19 H      0.9461     1.0000     0.0539     1.0045     1.0045    -0.0000
 20 H      0.9734     1.0000     0.0266     0.9816     0.9816    -0.0000
 21 H      0.9733     1.0000     0.0267     0.9816     0.9816    -0.0000
 22 H      0.9730     1.0000     0.0270     0.9910     0.9910    -0.0000
 23 H      0.9730     1.0000     0.0270     0.9910     0.9910    -0.0000
 24 H      0.9725     1.0000     0.0275     0.9841     0.9841    -0.0000
 25 H      0.9529     1.0000     0.0471     0.9960     0.9960    -0.0000
 26 H      0.9756     1.0000     0.0244     0.9951     0.9951    -0.0000
 27 H      0.9556     1.0000     0.0444     0.9970     0.9970    -0.0000
 28 H      0.9827     1.0000     0.0173     0.9833     0.9833    -0.0000
 29 H      0.9727     1.0000     0.0273     0.9905     0.9905    -0.0000
 30 H      0.9717     1.0000     0.0283     0.9848     0.9848    -0.0000
 31 H      0.9813     1.0000     0.0187     0.9892     0.9892    -0.0000

  Mayer bond orders larger than 0.100000
B(  0-C ,  1-C ) :   1.1184 B(  0-C , 11-H ) :   0.9650 B(  0-C , 12-H ) :   0.9676 
B(  0-C , 13-H ) :   0.9608 B(  1-C ,  2-C ) :   1.0711 B(  1-C , 14-H ) :   0.9381 
B(  1-C , 15-H ) :   0.9337 B(  2-C ,  3-P ) :   0.9358 B(  2-C , 16-H ) :   0.9204 
B(  2-C , 17-H ) :   0.9073 B(  3-P ,  4-O ) :   1.9222 B(  3-P ,  5-C ) :   0.9387 
B(  3-P ,  8-C ) :   0.9360 B(  5-C ,  6-C ) :   1.0258 B(  5-C , 18-H ) :   0.9206 
B(  5-C , 19-H ) :   0.9206 B(  6-C ,  7-C ) :   1.1158 B(  6-C , 20-H ) :   0.9385 
B(  6-C , 21-H ) :   0.9386 B(  7-C , 22-H ) :   0.9664 B(  7-C , 23-H ) :   0.9664 
B(  7-C , 24-H ) :   0.9602 B(  8-C ,  9-C ) :   1.0709 B(  8-C , 25-H ) :   0.9204 
B(  8-C , 26-H ) :   0.9073 B(  9-C , 10-C ) :   1.1184 B(  9-C , 27-H ) :   0.9338 
B(  9-C , 28-H ) :   0.9381 B( 10-C , 29-H ) :   0.9676 B( 10-C , 30-H ) :   0.9608 
B( 10-C , 31-H ) :   0.9650 

-------
TIMINGS
-------

Total SCF time: 0 days 0 hours 0 min 7 sec 

Total time                  ....       7.056 sec
Sum of individual times     ....       6.994 sec  ( 99.1%)

SCF preparation             ....       0.091 sec  (  1.3%)
Fock matrix formation       ....       6.330 sec  ( 89.7%)
  Startup                   ....       0.038 sec  (  0.6% of F)
  Split-RI-J                ....       2.036 sec  ( 32.2% of F)
  XC integration            ....       4.103 sec  ( 64.8% of F)
    Basis function eval.    ....       1.186 sec  ( 28.9% of XC)
    Density eval.           ....       1.060 sec  ( 25.8% of XC)
    XC-Functional eval.     ....       0.135 sec  (  3.3% of XC)
    XC-Potential eval.      ....       0.891 sec  ( 21.7% of XC)
Diagonalization             ....       0.000 sec  (  0.0%)
Density matrix formation    ....       0.085 sec  (  1.2%)
Total Energy calculation    ....       0.037 sec  (  0.5%)
Population analysis         ....       0.042 sec  (  0.6%)
Orbital Transformation      ....       0.042 sec  (  0.6%)
Orbital Orthonormalization  ....       0.000 sec  (  0.0%)
DIIS solution               ....       0.209 sec  (  3.0%)
SOSCF solution              ....       0.158 sec  (  2.2%)
Finished LeanSCF after   7.1 sec

Maximum memory used throughout the entire LEANSCF-calculation: 27.0 MB


-------------------------------------------------------------------------------
                          DFT DISPERSION CORRECTION                            
                                                                               
                              DFTD3 V3.1  Rev 1                                
                          USING Becke-Johnson damping                          
-------------------------------------------------------------------------------
The BP86 functional is recognized
Active option DFTDOPT                   ...         4   

molecular C6(AA) [au] = 8258.256594 


            DFT-D V3
 parameters
 s6 scaling factor         :     1.0000 
 a1 scaling factor         :     0.3946 
 s8 scaling factor         :     3.2822 
 a2 scaling factor         :     4.8516 
 ad hoc parameters k1-k3   :    16.0000     1.3333    -4.0000 

 Edisp/kcal,au: -32.582921194022  -0.051924184519 
 E6   /kcal   : -12.601830576 
 E8   /kcal   : -19.981090618 
 % E8         :  61.323815932 

-------------------------   ----------------
Dispersion correction           -0.051924185
-------------------------   ----------------


-------------------------   --------------------
FINAL SINGLE POINT ENERGY      -771.864545389438
-------------------------   --------------------



           ************************************************************
           *        Program running with 6 parallel MPI-processes     *
           *              working on a common directory               *
           ************************************************************
------------------------------------------------------------------------------
                         ORCA SCF GRADIENT CALCULATION
------------------------------------------------------------------------------

Nuc. rep. gradient        (SHARK) ... done (  0.0 sec)
HCore & Overlap gradient  (SHARK) ... done (  0.2 sec)
Split-RIJ-J gradient      (SHARK) ... done (  0.5 sec)
XC gradient                       ... done (  3.0 sec)
Dispersion correction             ... done (  0.1 sec)

-------------------
DISPERSION GRADIENT
-------------------

   1   C   :   -0.000549622   -0.000089645   -0.000048286
   2   C   :   -0.000622376   -0.000171348   -0.000224893
   3   C   :   -0.000418598   -0.000371279   -0.000055714
   4   P   :    0.000124315   -0.000480766   -0.000645176
   5   O   :    0.000160818   -0.000234488   -0.000677249
   6   C   :    0.000117018    0.000528233   -0.000208933
   7   C   :   -0.000007445    0.000732570    0.000324497
[...]
      dyz     :     0.005032
      dx2y2   :     0.000572
      dxy     :     0.000688

  5 C s       :     2.907143  s :     2.907143
      pz      :     1.047976  p :     3.223128
      px      :     1.081552
      py      :     1.093600
      dz2     :     0.015582  d :     0.067529
      dxz     :     0.017011
      dyz     :     0.012421
      dx2y2   :     0.017342
      dxy     :     0.005174

  6 C s       :     2.849053  s :     2.849053
      pz      :     1.031196  p :     3.125751
      px      :     1.062621
      py      :     1.031934
      dz2     :     0.017466  d :     0.086439
      dxz     :     0.016647
      dyz     :     0.019217
      dx2y2   :     0.021009
      dxy     :     0.012100

  7 C s       :     2.854858  s :     2.854858
      pz      :     1.065587  p :     3.149421
      px      :     1.068869
      py      :     1.014965
      dz2     :     0.013296  d :     0.067120
      dxz     :     0.010130
      dyz     :     0.013952
      dx2y2   :     0.017806
      dxy     :     0.011936

  8 C s       :     2.907989  s :     2.907989
      pz      :     1.081447  p :     3.220103
      px      :     1.055141
      py      :     1.083515
      dz2     :     0.015104  d :     0.067940
      dxz     :     0.015945
      dyz     :     0.007228
      dx2y2   :     0.018473
      dxy     :     0.011190

  9 C s       :     2.848500  s :     2.848500
      pz      :     1.063969  p :     3.124912
      px      :     1.006208
      py      :     1.054735
      dz2     :     0.023078  d :     0.085701
      dxz     :     0.015286
      dyz     :     0.008235
      dx2y2   :     0.026200
      dxy     :     0.012902

 10 C s       :     2.854552  s :     2.854552
      pz      :     1.047975  p :     3.150922
      px      :     1.046371
      py      :     1.056576
      dz2     :     0.021410  d :     0.067416
      dxz     :     0.009380
      dyz     :     0.008038
      dx2y2   :     0.021745
      dxy     :     0.006843

 11 H s       :     0.911278  s :     0.911278
      pz      :     0.034232  p :     0.063079
      px      :     0.014712
      py      :     0.014135

 12 H s       :     0.907974  s :     0.907974
      pz      :     0.012115  p :     0.063152
      px      :     0.012030
      py      :     0.039008

 13 H s       :     0.905176  s :     0.905176
      pz      :     0.023818  p :     0.063410
      px      :     0.024200
      py      :     0.015392

 14 H s       :     0.911526  s :     0.911526
      pz      :     0.012648  p :     0.063604
      px      :     0.012275
      py      :     0.038681

 15 H s       :     0.899221  s :     0.899221
      pz      :     0.036785  p :     0.065893
      px      :     0.014950
      py      :     0.014158

 16 H s       :     0.895434  s :     0.895434
      pz      :     0.012460  p :     0.068483
      px      :     0.014834
      py      :     0.041190

 17 H s       :     0.904666  s :     0.904666
      pz      :     0.037314  p :     0.069740
      px      :     0.016548
      py      :     0.015878

 18 H s       :     0.894079  s :     0.894079
      pz      :     0.026785  p :     0.069088
      px      :     0.022374
      py      :     0.019928

 19 H s       :     0.893752  s :     0.893752
      pz      :     0.015219  p :     0.069104
      px      :     0.036887
      py      :     0.016999

 20 H s       :     0.909425  s :     0.909425
      pz      :     0.024696  p :     0.063994
      px      :     0.022490
      py      :     0.016809

 21 H s       :     0.909775  s :     0.909775
      pz      :     0.014570  p :     0.063990
      px      :     0.035146
      py      :     0.014273

 22 H s       :     0.907563  s :     0.907563
      pz      :     0.023526  p :     0.063243
      px      :     0.022613
      py      :     0.017104

 23 H s       :     0.907460  s :     0.907460
      pz      :     0.013901  p :     0.063258
      px      :     0.035126
      py      :     0.014231

 24 H s       :     0.905913  s :     0.905913
      pz      :     0.034002  p :     0.063559
      px      :     0.013215
      py      :     0.016342

 25 H s       :     0.895480  s :     0.895480
      pz      :     0.013522  p :     0.068479
      px      :     0.014252
      py      :     0.040705

 26 H s       :     0.904587  s :     0.904587
      pz      :     0.038049  p :     0.069705
      px      :     0.015266
      py      :     0.016391

 27 H s       :     0.899128  s :     0.899128
      pz      :     0.039043  p :     0.065846
      px      :     0.012673
      py      :     0.014130

 28 H s       :     0.911541  s :     0.911541
      pz      :     0.012789  p :     0.063571
      px      :     0.013258
      py      :     0.037523

 29 H s       :     0.908026  s :     0.908026
      pz      :     0.012143  p :     0.063162
      px      :     0.012623
      py      :     0.038396

 30 H s       :     0.905192  s :     0.905192
      pz      :     0.013300  p :     0.063412
      px      :     0.037235
      py      :     0.012877

 31 H s       :     0.911290  s :     0.911290
      pz      :     0.036339  p :     0.063080
      px      :     0.012667
      py      :     0.014074



                      *****************************
                      * MAYER POPULATION ANALYSIS *
                      *****************************

  NA   - Mulliken gross atomic population
  ZA   - Total nuclear charge
  QA   - Mulliken gross atomic charge
  VA   - Mayer's total valence
  BVA  - Mayer's bonded valence
  FA   - Mayer's free valence

  ATOM       NA         ZA         QA         VA         BVA        FA
  0 C      6.0423     6.0000    -0.0423     4.0216     4.0216    -0.0000
  1 C      6.0539     6.0000    -0.0539     4.0983     4.0983    -0.0000
  2 C      6.1511     6.0000    -0.1511     3.8901     3.8901    -0.0000
  3 P     14.5511    15.0000     0.4489     4.8350     4.8350    -0.0000
  4 O      8.4713     8.0000    -0.4713     2.1124     2.1124    -0.0000
  5 C      6.1665     6.0000    -0.1665     3.8604     3.8604    -0.0000
  6 C      6.0654     6.0000    -0.0654     4.0739     4.0739    -0.0000
  7 C      6.0457     6.0000    -0.0457     4.0218     4.0218    -0.0000
  8 C      6.1523     6.0000    -0.1523     3.8902     3.8902    -0.0000
  9 C      6.0535     6.0000    -0.0535     4.0980     4.0980    -0.0000
 10 C      6.0422     6.0000    -0.0422     4.0216     4.0216    -0.0000
 11 H      0.9755     1.0000     0.0245     0.9866     0.9866     0.0000
 12 H      0.9677     1.0000     0.0323     0.9887     0.9887    -0.0000
 13 H      0.9654     1.0000     0.0346     0.9839     0.9839     0.0000
 14 H      0.9741     1.0000     0.0259     0.9805     0.9805    -0.0000
 15 H      0.9489     1.0000     0.0511     1.0003     1.0003     0.0000
 16 H      0.9473     1.0000     0.0527     0.9916     0.9916     0.0000
 17 H      0.9626     1.0000     0.0374     0.9918     0.9918    -0.0000
 18 H      0.9422     1.0000     0.0578     0.9999     0.9999    -0.0000
 19 H      0.9413     1.0000     0.0587     0.9995     0.9995    -0.0000
 20 H      0.9677     1.0000     0.0323     0.9805     0.9805    -0.0000
 21 H      0.9684     1.0000     0.0316     0.9809     0.9809    -0.0000
 22 H      0.9677     1.0000     0.0323     0.9887     0.9887     0.0000
 23 H      0.9676     1.0000     0.0324     0.9885     0.9885    -0.0000
 24 H      0.9660     1.0000     0.0340     0.9829     0.9829    -0.0000
 25 H      0.9474     1.0000     0.0526     0.9915     0.9915    -0.0000
 26 H      0.9625     1.0000     0.0375     0.9917     0.9917     0.0000
 27 H      0.9491     1.0000     0.0509     0.9998     0.9998    -0.0000
 28 H      0.9743     1.0000     0.0257     0.9810     0.9810    -0.0000
 29 H      0.9678     1.0000     0.0322     0.9887     0.9887     0.0000
 30 H      0.9654     1.0000     0.0346     0.9838     0.9838    -0.0000
 31 H      0.9756     1.0000     0.0244     0.9866     0.9866    -0.0000

  Mayer bond orders larger than 0.100000
B(  0-C ,  1-C ) :   1.1135 B(  0-C , 11-H ) :   0.9657 B(  0-C , 12-H ) :   0.9677 
B(  0-C , 13-H ) :   0.9625 B(  1-C ,  2-C ) :   1.0647 B(  1-C , 14-H ) :   0.9399 
B(  1-C , 15-H ) :   0.9323 B(  2-C ,  3-P ) :   0.9153 B(  2-C , 16-H ) :   0.9235 
B(  2-C , 17-H ) :   0.9136 B(  3-P ,  4-O ) :   1.8817 B(  3-P ,  5-C ) :   0.9141 
B(  3-P ,  8-C ) :   0.9149 B(  5-C ,  6-C ) :   1.0261 B(  5-C , 18-H ) :   0.9239 
B(  5-C , 19-H ) :   0.9235 B(  6-C ,  7-C ) :   1.1103 B(  6-C , 20-H ) :   0.9386 
B(  6-C , 21-H ) :   0.9395 B(  7-C , 22-H ) :   0.9672 B(  7-C , 23-H ) :   0.9672 
B(  7-C , 24-H ) :   0.9622 B(  8-C ,  9-C ) :   1.0646 B(  8-C , 25-H ) :   0.9235 
B(  8-C , 26-H ) :   0.9137 B(  9-C , 10-C ) :   1.1134 B(  9-C , 27-H ) :   0.9324 
B(  9-C , 28-H ) :   0.9399 B( 10-C , 29-H ) :   0.9678 B( 10-C , 30-H ) :   0.9625 
B( 10-C , 31-H ) :   0.9656 

-------
TIMINGS
-------

Total SCF time: 0 days 0 hours 0 min 3 sec 

Total time                  ....       3.400 sec
Sum of individual times     ....       3.339 sec  ( 98.2%)

SCF preparation             ....       0.090 sec  (  2.6%)
Fock matrix formation       ....       2.987 sec  ( 87.9%)
  Startup                   ....       0.020 sec  (  0.7% of F)
  Split-RI-J                ....       0.942 sec  ( 31.5% of F)
  XC integration            ....       1.952 sec  ( 65.3% of F)
    Basis function eval.    ....       0.553 sec  ( 28.3% of XC)
    Density eval.           ....       0.519 sec  ( 26.6% of XC)
    XC-Functional eval.     ....       0.079 sec  (  4.0% of XC)
    XC-Potential eval.      ....       0.364 sec  ( 18.6% of XC)
Diagonalization             ....       0.000 sec  (  0.0%)
Density matrix formation    ....       0.034 sec  (  1.0%)
Total Energy calculation    ....       0.017 sec  (  0.5%)
Population analysis         ....       0.059 sec  (  1.7%)
Orbital Transformation      ....       0.019 sec  (  0.6%)
Orbital Orthonormalization  ....       0.000 sec  (  0.0%)
DIIS solution               ....       0.025 sec  (  0.7%)
SOSCF solution              ....       0.108 sec  (  3.2%)
Finished LeanSCF after   3.4 sec

Maximum memory used throughout the entire LEANSCF-calculation: 27.5 MB


-------------------------------------------------------------------------------
                          DFT DISPERSION CORRECTION                            
                                                                               
                              DFTD3 V3.1  Rev 1                                
                          USING Becke-Johnson damping                          
-------------------------------------------------------------------------------
The BP86 functional is recognized
Active option DFTDOPT                   ...         4   

molecular C6(AA) [au] = 8263.472542 


            DFT-D V3
 parameters
 s6 scaling factor         :     1.0000 
 a1 scaling factor         :     0.3946 
 s8 scaling factor         :     3.2822 
 a2 scaling factor         :     4.8516 
 ad hoc parameters k1-k3   :    16.0000     1.3333    -4.0000 

 Edisp/kcal,au: -31.867930685225  -0.050784774737 
 E6   /kcal   : -12.317779705 
 E8   /kcal   : -19.550150980 
 % E8         :  61.347412775 

-------------------------   ----------------
Dispersion correction           -0.050784775
-------------------------   ----------------


-------------------------   --------------------
FINAL SINGLE POINT ENERGY      -771.873457978556
-------------------------   --------------------

                                *** OPTIMIZATION RUN DONE ***



           ************************************************************
           *        Program running with 6 parallel MPI-processes     *
           *              working on a common directory               *
           ************************************************************

------------------------------------------------------------------------------
                              ORCA PROPERTY CALCULATIONS
------------------------------------------------------------------------------

GBWName                                 ... data/geom_opt_PO_BP86/75226/75226.gbw
Number of atoms                         ...     32
Number of basis functions               ...    263
Max core memory                         ...   1024 MB

Electric properties:
Dipole moment                           ... YES
Quadrupole moment                       ...  NO
Static polarizability (Dipole/Dipole)   ...  NO
Static polarizability (Dipole/Quad.)    ...  NO
Static polarizability (Quad./Quad.)     ...  NO
Static polarizability (Velocity)        ...  NO

Atomic electric properties:
Dipole moment                           ...  NO
Quadrupole moment                       ...  NO
Static polarizability                   ...  NO

Choice of electric origin               ... Center of mass
Position of electric origin             ...     0.121631    -0.312072    -0.569667

General magnetic properties:
Magnetizability                         ...  NO

EPR properties:
g-Tensor (aka g-matrix)                 ...  NO
Zero-Field splitting spin-orbit         ...  NO
Zero-field splitting spin-spin          ...  NO
Hyperfine couplings                     ...  NO (   0 nuclei)
Quadrupole couplings                    ...  NO (   0 nuclei)
Contact density                         ...  NO (   0 nuclei)

NMR properties:
Chemical shifts                         ...  NO (   0 nuclei)
Spin-rotation constants                 ...  NO (   0 nuclei)
Spin-spin couplings                     ...  NO (   0 nuclei,    0 pairs)

Choice of magnetic origin               ... GIAO
Position of magnetic origin             ...     0.000000     0.000000     0.000000

Properties with geometric perturbations:
SCF Hessian                             ...  NO
IR spectrum                             ...  NO
VCD spectrum                            ...  NO
X-ray spectroscopy properties:
SCF XES/XAS/RIXS spectra                ...  NO


-------------
DIPOLE MOMENT
-------------

Method             : SCF
Type of density    : Electron Density
Multiplicity       :   1
Irrep              :   0
Energy             :  -771.8226732038187947 Eh
Relativity type    : 
Basis              : AO
                                X                 Y                 Z
Electronic contribution:      1.577898836      -4.318595441      -7.504239603
Nuclear contribution   :     -1.891101579       4.843690793       8.857344203
                        -----------------------------------------
Total Dipole Moment    :     -0.313202742       0.525095352       1.353104600
                        -----------------------------------------
Magnitude (a.u.)       :      1.484827649
Magnitude (Debye)      :      3.774131947



--------------------
Rotational spectrum 
--------------------
 
Rotational constants in cm-1:             0.031488             0.018927             0.013948 
Rotational constants in MHz :           943.981715           567.430345           418.139968 

Dipole components along the rotational axes: 
x,y,z [a.u.] :     0.005947    -0.880760     1.195383 
x,y,z [Debye]:     0.015117    -2.238713     3.038422 

 

Dipole moment calculation done in   0.0 sec 

Maximum memory used throughout the entire PROP-calculation: 13.2 MB

--------------------------------
SUGGESTED CITATIONS FOR THIS RUN
--------------------------------

Below you find a list of papers that are relevant to this ORCA run
We neither can nor want to force you to cite these papers, but we appreciate if you do
You receive ORCA, which is the product of decades of hard work by many enthusiastic individuals, for free
The only thing we kindly ask in return is that you cite our papers,
We deeply appreciate it, if you show your appreciation for ORCA by not just citing the generic ORCA reference.

Please note that relegating all ORCA citations to the supporting information does *not* help us.
SI sections are not indexed - citations you put there will not count into any citation statistics
But we need these citations in order to attract the funding resources that allow us to do what we are doing

Therefore, if you are a happy ORCA user, please consider citing a few of the papers listed below in the main body of your paper

In addition to the list printed below, the program has created the file data/geom_opt_PO_BP86/75226/75226.bibtex that contains the list in bibtex format
You can import this file easily into all common literature databanks and citation aid programs


List of essential papers. We consider these as the minimum necessary citations

  1. Neese,F.
     Software update: the ORCA program system, version 5.0
     WIRES Comput. Molec. Sci., 2022 12(1)e1606
     doi.org/10.1002/wcms.1606

List of papers to cite with high priority. The work reported in these papers was absolutely
necessary for this run to complete.
Our perspective: the developers of density functionals and basis sets usually get cited in chemistry papers
Good! But without the algorithms to do something with them, the functionals or basis sets would not do anything.
Hence, in our opinion, the algorithm design and method developments papers are equally worthy of getting cited

  1. Neese,F.
     An improvement of the resolution of the identity approximation for the formation of the Coulomb matrix
     J. Comp. Chem., 2003 24(14)1740-1747
     doi.org/10.1002/jcc.10318
  2. Neese,F.
     The SHARK Integral Generation and Digestion System
     J. Comp. Chem., 2022  1-16
     doi.org/10.1002/jcc.26942
  3. Grimme,S.; Antony,J.; Ehrlich,S.; Krieg,H.
     A consistent and accurate ab initio parametrization of density functional dispersion correction (DFT-D) for the 94 elements H-Pu
     J. Chem. Phys., 2010 132 154104-XXXX
     doi.org/10.1063/1.3382344
  4. Grimme,S.; Ehrlich,S.; Goerigk,L.
     Effect of the damping function in dispersion corrected density functional theory
     J. Comput. Chem., 2011 32(7)1456-1465
     doi.org/10.1002/jcc.21759

List of suggested additional citations. These are papers that are important in the 'surrounding' of 
of this run, or papers that preceded the highly important papers. If you like your results we are grateful for a citation.

  1. Neese,F.
     The ORCA program system
     WIRES Comput. Molec. Sci., 2012 2(1)73-78
     doi.org/10.1002/wcms.81
  2. Neese,F.
     Software update: the ORCA program system, version 4.0
     WIRES Comput. Molec. Sci., 2018 8(1)1-6
     doi.org/10.1002/wcms.1327
  3. Neese,F.; Wennmohs,F.; Becker,U.; Riplinger,C.
     The ORCA quantum chemistry program package
     J. Chem. Phys., 2020 152 Art. No. L224108
     doi.org/10.1063/5.0004608

List of optional additional citations

  1. Neese,F.
     Approximate second-order SCF convergence for spin unrestricted wavefunctions
     Chem. Phys. Lett., 2000 325(1-3)93-98
     doi.org/10.1016/s0009-2614(00)00662-x

Timings for individual modules:

Sum of individual times          ...       71.667 sec (=   1.194 min)
Startup calculation              ...        7.036 sec (=   0.117 min)   9.8 %
SCF iterations                   ...       39.231 sec (=   0.654 min)  54.7 %
Property calculations            ...        0.151 sec (=   0.003 min)   0.2 %
SCF Gradient evaluation          ...       25.157 sec (=   0.419 min)  35.1 %
Geometry relaxation              ...        0.092 sec (=   0.002 min)   0.1 %
                             ****ORCA TERMINATED NORMALLY****
TOTAL RUN TIME: 0 days 0 hours 1 minutes 13 seconds 140 msec
