
                                 *****************
                                 * O   R   C   A *
                                 *****************

                                            #,                                       
                                            ###                                      
                                            ####                                     
                                            #####                                    
                                            ######                                   
                                           ########,                                 
                                     ,,################,,,,,                         
                               ,,#################################,,                 
                          ,,##########################################,,             
                       ,#########################################, ''#####,          
                    ,#############################################,,   '####,        
                  ,##################################################,,,,####,       
                ,###########''''           ''''###############################       
              ,#####''   ,,,,##########,,,,          '''####'''          '####       
            ,##' ,,,,###########################,,,                        '##       
           ' ,,###''''                  '''############,,,                           
         ,,##''                                '''############,,,,        ,,,,,,###''
      ,#''                                            '''#######################'''  
     '                                                          ''''####''''         
             ,#######,   #######,   ,#######,      ##                                
            ,#'     '#,  ##    ##  ,#'     '#,    #''#        ,####,   ,####,        
            ##       ##  ##   ,#'  ##            #'  '#       #'       #'  '#        
            ##       ##  #######   ##           ,######,      #####,   #    #        
            '#,     ,#'  ##    ##  '#,     ,#' ,#      #,     #,   #   #,  ,#        
             '#######'   ##     ##  '#######'  #'      '#     '####' # '####'        



                #########################################################
                #                        -***-                          #
                #          Department of theory and spectroscopy        #
                #                                                       #
                #                      Frank Neese                      #
                #                                                       #
                #     Directorship, Architecture, Infrastructure        #
                #                    SHARK, DRIVERS                     #
                #        Core code/Algorithms in most modules           #
                #                                                       #
                #        Max Planck Institute fuer Kohlenforschung      #
                #                Kaiser Wilhelm Platz 1                 #
                #                 D-45470 Muelheim/Ruhr                 #
                #                      Germany                          #
                #                                                       #
                #                  All rights reserved                  #
                #                        -***-                          #
                #########################################################


                         Program Version 6.0.0  -   RELEASE   -


 With contributions from (in alphabetic order):
   Daniel Aravena         : Magnetic Suceptibility
   Michael Atanasov       : Ab Initio Ligand Field Theory (pilot matlab implementation)
   Alexander A. Auer      : GIAO ZORA, VPT2 properties, NMR spectrum
   Ute Becker             : All parallelization in ORCA, NUMFREQ, NUMCALC
   Giovanni Bistoni       : ED, misc. LED, open-shell LED, HFLD
   Martin Brehm           : Molecular dynamics
   Dmytro Bykov           : pre 5.0 version of the SCF Hessian
   Marcos Casanova-Páez   : Triplet and SCS-CIS(D). UHF-(DLPNO)-IP/EA/STEOM-CCSD. UHF-CVS-IP/STEOM-CCSD
   Vijay G. Chilkuri      : MRCI spin determinant printing, contributions to CSF-ICE
   Pauline Colinet        : FMM embedding
   Dipayan Datta          : RHF DLPNO-CCSD density
   Achintya Kumar Dutta   : EOM-CC, STEOM-CC
   Nicolas Foglia         : Exact transition moments, OPA infrastructure, MCD improvements
   Dmitry Ganyushin       : Spin-Orbit,Spin-Spin,Magnetic field MRCI
   Miquel Garcia          : C-PCM and meta-GGA Hessian, CCSD/C-PCM, Gaussian charge scheme
   Tiago L. C. Gouveia    : GS-ROHF, GS-ROCIS
   Yang Guo               : DLPNO-NEVPT2, F12-NEVPT2, CIM, IAO-localization
   Andreas Hansen         : Spin unrestricted coupled pair/coupled cluster methods
   Ingolf Harden          : AUTO-CI MPn and infrastructure 
   Benjamin Helmich-Paris : MC-RPA, TRAH-(SCF,CASSCF), AVAS, COSX integrals, SCF dyn. polar.
   Lee Huntington         : MR-EOM, pCC
   Robert Izsak           : Overlap fitted RIJCOSX, COSX-SCS-MP3, EOM
   Riya Kayal             : Wick's Theorem for AUTO-CI, AUTO-CI UHF-CCSDT
   Emily Kempfer          : AUTO-CI, RHF CISDT and CCSDT
   Christian Kollmar      : KDIIS, OOCD, Brueckner-CCSD(T), CCSD density, CASPT2, CASPT2-K, improved NEVPT2
   Axel Koslowski         : Symmetry handling
   Simone Kossmann        : Meta GGA functionals, TD-DFT gradient, OOMP2, (MP2 Hessian; deprecated post 5.0)
   Lucas Lang             : DCDCAS
   Marvin Lechner         : AUTO-CI (C++ implementation), FIC-MRCC
   Spencer Leger          : CASSCF response
   Dagmar Lenk            : GEPOL surface, SMD, ORCA-2-JSON
   Dimitrios Liakos       : Extrapolation schemes; Compound Job, initial MDCI parallelization
   Dimitrios Manganas     : Further ROCIS development; embedding schemes. LFT, Crystal Embedding
   Dimitrios Pantazis     : SARC Basis sets
   Anastasios Papadopoulos: AUTO-CI, single reference methods and gradients
   Taras Petrenko         : pre 6.0 DFT Hessian and TD-DFT gradient, (ASA, deprecated), ECA, 1-Electron XAS/XES, NRVS
   Peter Pinski           : DLPNO-MP2, DLPNO-MP2 Gradient
   Christoph Reimann      : Effective Core Potentials
   Marius Retegan         : Local ZFS, SOC
   Christoph Riplinger    : Optimizer, TS searches, QM/MM, DLPNO-CCSD(T), (RO)-DLPNO pert. Triples
   Michael Roemelt        : Original ROCIS implementation
   Masaaki Saitow         : Open-shell DLPNO-CCSD energy and density
   Barbara Sandhoefer     : DKH picture change effects
   Kantharuban Sivalingam : CASSCF convergence/infrastructure, NEVPT2 and variants, FIC-MRCI
   Bernardo de Souza      : ESD, SOC TD-DFT
   Georgi Stoychev        : AutoAux, RI-MP2 NMR, DLPNO-MP2 response, X2C
   Van Anh Tran           : RI-MP2 g-tensors
   Willem Van den Heuvel  : Paramagnetic NMR
   Zikuan Wang            : NOTCH, Electric field optimization 
   Frank Wennmohs         : Technical directorship and infrastructure
   Hang Xu                : AUTO-CI-Response properties 


 We gratefully acknowledge several colleagues who have allowed us to
 interface, adapt or use parts of their codes:
   Stefan Grimme, W. Hujo, H. Kruse, P. Pracht,  : VdW corrections, initial TS optimization,
                  C. Bannwarth, S. Ehlert,         DFT functionals, gCP, sTDA/sTD-DF
                  L. Wittmann, M. Mueller
   Ed Valeev, F. Pavosevic, A. Kumar             : LibInt (2-el integral package), F12 methods
   Garnet Chan, S. Sharma, J. Yang, R. Olivares  : DMRG
   Ulf Ekstrom                                   : XCFun DFT Library
   Mihaly Kallay                                 : mrcc  (arbitrary order and MRCC methods)
   Frank Weinhold                                : gennbo (NPA and NBO analysis)
   Simon Mueller                                 : openCOSMO-RS
   Christopher J. Cramer and Donald G. Truhlar   : smd solvation model
   Lars Goerigk                                  : TD-DFT with DH, B97 family of functionals
   V. Asgeirsson, H. Jonsson                     : NEB implementation
   FAccTs GmbH                                   : IRC, NEB, NEB-TS, DLPNO-Multilevel, CI-OPT
                                                   MM, QMMM, 2- and 3-layer-ONIOM, Crystal-QMMM,
                                                   LR-CPCM, SF, NACMEs, symmetry and pop. for TD-DFT,
                                                   nearIR, NL-DFT gradient (VV10), updates on ESD,
                                                   ML-optimized integration grids, MBIS, APM,
                                                   GOAT, DOCKER, SOLVATOR, interface openCOSMO-RS
   S Lehtola, MJT Oliveira, MAL Marques          : LibXC Library
   Liviu Ungur et al                             : ANISO software


 Your calculation uses the libint2 library for the computation of 2-el integrals
 For citations please refer to: http://libint.valeyev.net

 Your ORCA version has been built with support for libXC version: 6.2.2
 For citations please refer to: https://libxc.gitlab.io

 This ORCA versions uses:
   CBLAS   interface :  Fast vector & matrix operations
   LAPACKE interface :  Fast linear algebra routines
   Shared memory     :  Shared parallel matrices


Your calculation utilizes the atom-pairwise dispersion correction
with the zero-damping scheme (D30)


XCFun DFT library Copyright 2009-2010 Ulf Ekstrom and contributors.
See http://admol.org/xcfun for more information.
This is free software; see the source code for copying conditions.
There is ABSOLUTELY NO WARRANTY; not even for MERCHANTABILITY or FITNESS FOR A PARTICULAR PURPOSE.
For details see the documentation.
Scientific users of this library should cite U. Ekstrom, L. Visscher, R. Bast, A. J. Thorvaldsen and K. Ruud;
J.Chem.Theor.Comp. 2010, DOI: 10.1021/ct100117s
XCFun Version 0.99 

Warning: RI is on but no J-basis has been assigned. Assigning Def2/J (nothing to worry about!)
================================================================================

----- Orbital basis set information -----
Your calculation utilizes the basis: def2-TZVP
   F. Weigend and R. Ahlrichs, Phys. Chem. Chem. Phys. 7, 3297 (2005).

----- AuxJ basis set information -----
Your calculation utilizes the auxiliary basis: def2/J
   F. Weigend, Phys. Chem. Chem. Phys. 8, 1057 (2006).

================================================================================
                                        WARNINGS
                       Please study these warnings very carefully!
================================================================================

WARNING: Functional chosen is sensitive to the integration grid.
         DEFGRID3 seems to be a minimum grid for robust results!

================================================================================
                                       INPUT FILE
================================================================================
NAME = data/single_point_P_M06-2x/120481/120481.inp
|  1> ! RIJCOSX M062X def2-TZVP D3ZERO NormalSCF
|  2> %pal
|  3> nprocs 6
|  4> end
|  5> 
|  6> * xyz 0 1
|  7>   C           3.99943425906156     -0.69036225613053      1.18169031797494
|  8>   N           2.88449033648483     -0.09983127719591      0.46364966226826
|  9>   C           2.58776258714806      1.24555542400103      0.93026449849326
| 10>   C           3.05218877057367     -0.18579186602635     -0.98461402571512
| 11>   C           1.75575468388335      0.10249649826299     -1.75524539160892
| 12>   C           0.62079563659910     -0.84767575153719     -1.34438919047781
| 13>   P          -1.06895713327308     -0.13011729880899     -1.72538594033435
| 14>   C          -2.19102495231554     -1.34184777226998     -0.89159817169068
| 15>   C          -3.56759521989557     -1.01866535207789     -0.85042502101979
| 16>   C          -4.49201462389278     -1.88560607646828     -0.25233500997064
| 17>   C          -4.06043837649255     -3.10560134197139      0.29956299054922
| 18>   C          -2.69928059738731     -3.44389410048065      0.25253310906787
| 19>   C          -1.76924272428279     -2.56738597722447     -0.33425945850150
| 20>   C          -1.05233970695254      1.21533272953756     -0.44128548999952
| 21>   C          -0.82367074593818      2.54043492801897     -0.86865483641724
| 22>   C          -0.70565289540592      3.58388482893623      0.06609344632999
| 23>   C          -0.83395687876328      3.31438509043356      1.43827342805034
| 24>   C          -1.07837439277822      1.99885438446359      1.87234738062135
| 25>   C          -1.18318920516235      0.95591218406150      0.94012590232225
| 26>   H           3.79236585652130     -0.69176474533643      2.27183505828539
| 27>   H           4.14654179884871     -1.74215864076452      0.86045852539923
| 28>   H           4.97233960926811     -0.14800823034091      1.02431662967943
| 29>   H           1.65788697447398      1.63110556256436      0.46964915989187
| 30>   H           3.41258567574280      1.97799852282047      0.71132414346929
| 31>   H           2.42638715950538      1.23406674067787      2.02678905821699
| 32>   H           3.39223031098427     -1.21823366980588     -1.21890781207801
| 33>   H           3.86271306116143      0.50383172907802     -1.35169112229822
| 34>   H           1.95673427379291      0.03078397094219     -2.84422864499758
| 35>   H           1.45747128889337      1.15764418359203     -1.57629757566053
| 36>   H           0.71134658377417     -1.81748517833997     -1.87925690562656
| 37>   H           0.70545633701704     -1.04962409323026     -0.25468272368723
| 38>   H          -3.91251237509995     -0.06799329325064     -1.28915451598154
| 39>   H          -5.55814178277186     -1.61206793489066     -0.22153859534169
| 40>   H          -4.78628376976398     -3.79122955545779      0.76302430144539
| 41>   H          -2.35246733880928     -4.39664388466270      0.68230498861780
| 42>   H          -0.70553264024827     -2.84544404348085     -0.34696660062246
| 43>   H          -0.73728119876272      2.75183624906009     -1.94674230294155
| 44>   H          -0.52017301612014      4.61240924788766     -0.28027317592509
| 45>   H          -0.74775789613504      4.13075239143629      2.17179019845486
| 46>   H          -1.18227138762938      1.78392028915251      2.94731115162301
| 47>   H          -1.36632934585329     -0.07377261517468      1.28458956013533
| 48> **                         ****END OF INPUT****
================================================================================

                       ****************************
                       * Single Point Calculation *
                       ****************************

---------------------------------
CARTESIAN COORDINATES (ANGSTROEM)
---------------------------------
  C      3.999434   -0.690362    1.181690
  N      2.884490   -0.099831    0.463650
  C      2.587763    1.245555    0.930264
  C      3.052189   -0.185792   -0.984614
  C      1.755755    0.102496   -1.755245
  C      0.620796   -0.847676   -1.344389
  P     -1.068957   -0.130117   -1.725386
  C     -2.191025   -1.341848   -0.891598
  C     -3.567595   -1.018665   -0.850425
  C     -4.492015   -1.885606   -0.252335
  C     -4.060438   -3.105601    0.299563
  C     -2.699281   -3.443894    0.252533
  C     -1.769243   -2.567386   -0.334259
  C     -1.052340    1.215333   -0.441285
  C     -0.823671    2.540435   -0.868655
  C     -0.705653    3.583885    0.066093
  C     -0.833957    3.314385    1.438273
  C     -1.078374    1.998854    1.872347
  C     -1.183189    0.955912    0.940126
  H      3.792366   -0.691765    2.271835
  H      4.146542   -1.742159    0.860459
  H      4.972340   -0.148008    1.024317
  H      1.657887    1.631106    0.469649
  H      3.412586    1.977999    0.711324
  H      2.426387    1.234067    2.026789
  H      3.392230   -1.218234   -1.218908
  H      3.862713    0.503832   -1.351691
  H      1.956734    0.030784   -2.844229
  H      1.457471    1.157644   -1.576298
  H      0.711347   -1.817485   -1.879257
  H      0.705456   -1.049624   -0.254683
  H     -3.912512   -0.067993   -1.289155
  H     -5.558142   -1.612068   -0.221539
  H     -4.786284   -3.791230    0.763024
  H     -2.352467   -4.396644    0.682305
  H     -0.705533   -2.845444   -0.346967
  H     -0.737281    2.751836   -1.946742
  H     -0.520173    4.612409   -0.280273
  H     -0.747758    4.130752    2.171790
  H     -1.182271    1.783920    2.947311
  H     -1.366329   -0.073773    1.284590

----------------------------
CARTESIAN COORDINATES (A.U.)
----------------------------
  NO LB      ZA    FRAG     MASS         X           Y           Z
   0 C     6.0000    0    12.011    7.557835   -1.304596    2.233071
   1 N     7.0000    0    14.007    5.450897   -0.188654    0.876171
   2 C     6.0000    0    12.011    4.890163    2.353759    1.757945
   3 C     6.0000    0    12.011    5.767801   -0.351096   -1.860651
   4 C     6.0000    0    12.011    3.317896    0.193690   -3.316933
   5 C     6.0000    0    12.011    1.173134   -1.601875   -2.540527
   6 P    15.0000    0    30.974   -2.020036   -0.245886   -3.260507
   7 C     6.0000    0    12.011   -4.140437   -2.535725   -1.684876
   8 C     6.0000    0    12.011   -6.741778   -1.924999   -1.607070
   9 C     6.0000    0    12.011   -8.488677   -3.563279   -0.476844
  10 C     6.0000    0    12.011   -7.673117   -5.868736    0.566092
  11 C     6.0000    0    12.011   -5.100901   -6.508017    0.477218
  12 C     6.0000    0    12.011   -3.343384   -4.851656   -0.631659
  13 C     6.0000    0    12.011   -1.988634    2.296646   -0.833909
  14 C     6.0000    0    12.011   -1.556512    4.800726   -1.641520
  15 C     6.0000    0    12.011   -1.333491    6.772561    0.124899
  16 C     6.0000    0    12.011   -1.575950    6.263280    2.717943
  17 C     6.0000    0    12.011   -2.037832    3.777287    3.538224
  18 C     6.0000    0    12.011   -2.235904    1.806412    1.776580
  19 H     1.0000    0     1.008    7.166533   -1.307246    4.293146
  20 H     1.0000    0     1.008    7.835828   -3.292203    1.626031
  21 H     1.0000    0     1.008    9.396360   -0.279695    1.935678
  22 H     1.0000    0     1.008    3.132952    3.082343    0.887508
  23 H     1.0000    0     1.008    6.448852    3.737876    1.344208
  24 H     1.0000    0     1.008    4.585207    2.332048    3.830076
  25 H     1.0000    0     1.008    6.410386   -2.302128   -2.303402
  26 H     1.0000    0     1.008    7.299470    0.952104   -2.554326
  27 H     1.0000    0     1.008    3.697692    0.058173   -5.374813
  28 H     1.0000    0     1.008    2.754222    2.187630   -2.978771
  29 H     1.0000    0     1.008    1.344250   -3.434549   -3.551281
  30 H     1.0000    0     1.008    1.333119   -1.983502   -0.481281
  31 H     1.0000    0     1.008   -7.393577   -0.128489   -2.436149
  32 H     1.0000    0     1.008  -10.503366   -3.046367   -0.418647
  33 H     1.0000    0     1.008   -9.044766   -7.164386    1.441907
  34 H     1.0000    0     1.008   -4.445519   -8.308453    1.289370
  35 H     1.0000    0     1.008   -1.333263   -5.377110   -0.655672
  36 H     1.0000    0     1.008   -1.393260    5.200217   -3.678810
  37 H     1.0000    0     1.008   -0.982985    8.716190   -0.529640
  38 H     1.0000    0     1.008   -1.413058    7.805991    4.104089
  39 H     1.0000    0     1.008   -2.234169    3.371121    5.569611
  40 H     1.0000    0     1.008   -2.581988   -0.139410    2.427522

--------------------------------
INTERNAL COORDINATES (ANGSTROEM)
--------------------------------
 C      0   0   0     0.000000000000     0.00000000     0.00000000
 N      1   0   0     1.451691830527     0.00000000     0.00000000
 C      2   1   0     1.454593461545   111.97809979     0.00000000
 C      2   1   3     1.460472422731   112.23193824   128.77422920
 C      4   2   1     1.535488268993   112.93496978   165.58189381
 C      5   4   2     1.536151737723   111.92814650   302.51212878
 P      6   5   4     1.874916819428   112.01148964   157.54156970
 C      7   6   5     1.850007830790   101.79227336   188.65774787
 C      8   7   6     1.414598107818   116.98092815   172.98345517
 C      9   8   7     1.401374009824   120.86427140   179.27100495
 C     10   9   8     1.406853904337   120.10161553   359.01351508
 C     11  10   9     1.403354659318   119.56684286     0.31318267
 C     12  11  10     1.406258316561   120.34486681     0.39821188
 C      7   6   5     1.859953194085    97.38307089   290.20500946
 C     14   7   6     1.410967713454   118.14409003   104.18585314
 C     15  14   7     1.405869930281   120.61438328   184.54533482
 C     16  15  14     1.404268465584   119.97258587   359.11375257
 C     17  16  15     1.406691563850   119.79377522     0.09855534
 C     18  17  16     1.402765647882   120.21342472     0.51879390
 H      1   2   3     1.109637258357   110.06751076    56.52259522
 H      1   2   3     1.109552219390   110.13543027   175.41462923
 H      1   2   3     1.124926303150   113.51077576   296.08660163
 H      3   2   1     1.107015833016   111.10061932   187.43145181
 H      3   2   1     1.124606997820   112.97468165    65.93469266
 H      3   2   1     1.108395294364   109.72248880   305.58928628
 H      4   2   1     1.111961287871   107.37981496    45.30148643
 H      4   2   1     1.125733504606   111.71372748   289.17584945
 H      5   4   2     1.109693655157   109.11495808   179.41725655
 H      5   4   2     1.111004924568   108.91443821    64.66759308
 H      6   5   4     1.111221522046   110.54139307   278.08171732
 H      6   5   4     1.111490328646   108.56159343    36.23269918
 H      9   8   7     1.102374154785   119.33490386   358.81971786
 H     10   9   8     1.101089756991   119.79898661   179.41430379
 H     11  10   9     1.100787885453   120.19949545   180.45964071
 H     12  11  10     1.101233606478   120.06222845   179.98170751
 H     13  12  11     1.099525762567   119.14440347   179.09204612
 H     15  14   7     1.102010098808   119.28662312     4.50896789
 H     16  15  14     1.101015487181   119.88875185   179.56907734
 H     17  16  15     1.100878143673   120.10629153   180.35549940
 H     18  17  16     1.101153195442   120.01148858   180.16289865
 H     19  18  17     1.101111396937   119.98631539   179.49734422

---------------------------
INTERNAL COORDINATES (A.U.)
---------------------------
 C      0   0   0     0.000000000000     0.00000000     0.00000000
 N      1   0   0     2.743299990548     0.00000000     0.00000000
 C      2   1   0     2.748783278512   111.97809979     0.00000000
 C      2   1   3     2.759892905107   112.23193824   128.77422920
 C      4   2   1     2.901652310246   112.93496978   165.58189381
 C      5   4   2     2.902906084444   111.92814650   302.51212878
 P      6   5   4     3.543079312601   112.01148964   157.54156970
 C      7   6   5     3.496008145803   101.79227336   188.65774787
 C      8   7   6     2.673203013340   116.98092815   172.98345517
 C      9   8   7     2.648213089762   120.86427140   179.27100495
 C     10   9   8     2.658568589635   120.10161553   359.01351508
 C     11  10   9     2.651955974874   119.56684286     0.31318267
 C     12  11  10     2.657443091850   120.34486681     0.39821188
 C      7   6   5     3.514802158732    97.38307089   290.20500946
 C     14   7   6     2.666342562233   118.14409003   104.18585314
 C     15  14   7     2.656709148145   120.61438328   184.54533482
 C     16  15  14     2.653682818455   119.97258587   359.11375257
 C     17  16  15     2.658261810575   119.79377522     0.09855534
 C     18  17  16     2.650842904569   120.21342472     0.51879390
 H      1   2   3     2.096910526289   110.06751076    56.52259522
 H      1   2   3     2.096749825931   110.13543027   175.41462923
 H      1   2   3     2.125802633798   113.51077576   296.08660163
 H      3   2   1     2.091956750314   111.10061932   187.43145181
 H      3   2   1     2.125199234171   112.97468165    65.93469266
 H      3   2   1     2.094563554475   109.72248880   305.58928628
 H      4   2   1     2.101302305599   107.37981496    45.30148643
 H      4   2   1     2.127328023485   111.71372748   289.17584945
 H      5   4   2     2.097017100797   109.11495808   179.41725655
 H      5   4   2     2.099495040872   108.91443821    64.66759308
 H      6   5   4     2.099904350786   110.54139307   278.08171732
 H      6   5   4     2.100412321643   108.56159343    36.23269918
 H      9   8   7     2.083185249657   119.33490386   358.81971786
 H     10   9   8     2.080758089580   119.79898661   179.41430379
 H     11  10   9     2.080187635044   120.19949545   180.45964071
 H     12  11  10     2.081029925714   120.06222845   179.98170751
 H     13  12  11     2.077802568442   119.14440347   179.09204612
 H     15  14   7     2.082497283564   119.28662312     4.50896789
 H     16  15  14     2.080617739977   119.88875185   179.56907734
 H     17  16  15     2.080358198362   120.10629153   180.35549940
 H     18  17  16     2.080877970878   120.01148858   180.16289865
 H     19  18  17     2.080798983150   119.98631539   179.49734422

---------------------
BASIS SET INFORMATION
---------------------
There are 4 groups of distinct atoms

 Group   1 Type C   : 11s6p2d1f contracted to 5s3p2d1f pattern {62111/411/11/1}
 Group   2 Type N   : 11s6p2d1f contracted to 5s3p2d1f pattern {62111/411/11/1}
 Group   3 Type P   : 14s9p3d1f contracted to 5s5p2d1f pattern {73211/51111/21/1}
 Group   4 Type H   : 5s1p contracted to 3s1p pattern {311/1}

Atom   0C    basis set group =>   1
Atom   1N    basis set group =>   2
Atom   2C    basis set group =>   1
Atom   3C    basis set group =>   1
Atom   4C    basis set group =>   1
Atom   5C    basis set group =>   1
Atom   6P    basis set group =>   3
Atom   7C    basis set group =>   1
Atom   8C    basis set group =>   1
Atom   9C    basis set group =>   1
Atom  10C    basis set group =>   1
Atom  11C    basis set group =>   1
Atom  12C    basis set group =>   1
Atom  13C    basis set group =>   1
Atom  14C    basis set group =>   1
Atom  15C    basis set group =>   1
Atom  16C    basis set group =>   1
Atom  17C    basis set group =>   1
Atom  18C    basis set group =>   1
Atom  19H    basis set group =>   4
Atom  20H    basis set group =>   4
Atom  21H    basis set group =>   4
Atom  22H    basis set group =>   4
Atom  23H    basis set group =>   4
Atom  24H    basis set group =>   4
Atom  25H    basis set group =>   4
Atom  26H    basis set group =>   4
Atom  27H    basis set group =>   4
Atom  28H    basis set group =>   4
Atom  29H    basis set group =>   4
Atom  30H    basis set group =>   4
Atom  31H    basis set group =>   4
Atom  32H    basis set group =>   4
Atom  33H    basis set group =>   4
Atom  34H    basis set group =>   4
Atom  35H    basis set group =>   4
Atom  36H    basis set group =>   4
Atom  37H    basis set group =>   4
Atom  38H    basis set group =>   4
Atom  39H    basis set group =>   4
Atom  40H    basis set group =>   4
---------------------------------
AUXILIARY/J BASIS SET INFORMATION
---------------------------------
There are 4 groups of distinct atoms

 Group   1 Type C   : 12s5p4d2f1g contracted to 6s4p3d1f1g pattern {711111/2111/211/2/1}
 Group   2 Type N   : 12s5p4d2f1g contracted to 6s4p3d1f1g pattern {711111/2111/211/2/1}
 Group   3 Type P   : 14s5p5d2f1g contracted to 8s4p3d1f1g pattern {71111111/2111/311/2/1}
 Group   4 Type H   : 5s2p1d contracted to 3s1p1d pattern {311/2/1}

Atom   0C    basis set group =>   1
Atom   1N    basis set group =>   2
Atom   2C    basis set group =>   1
Atom   3C    basis set group =>   1
Atom   4C    basis set group =>   1
Atom   5C    basis set group =>   1
Atom   6P    basis set group =>   3
Atom   7C    basis set group =>   1
Atom   8C    basis set group =>   1
Atom   9C    basis set group =>   1
Atom  10C    basis set group =>   1
Atom  11C    basis set group =>   1
Atom  12C    basis set group =>   1
Atom  13C    basis set group =>   1
Atom  14C    basis set group =>   1
Atom  15C    basis set group =>   1
Atom  16C    basis set group =>   1
Atom  17C    basis set group =>   1
Atom  18C    basis set group =>   1
Atom  19H    basis set group =>   4
Atom  20H    basis set group =>   4
Atom  21H    basis set group =>   4
Atom  22H    basis set group =>   4
Atom  23H    basis set group =>   4
Atom  24H    basis set group =>   4
Atom  25H    basis set group =>   4
Atom  26H    basis set group =>   4
Atom  27H    basis set group =>   4
Atom  28H    basis set group =>   4
Atom  29H    basis set group =>   4
Atom  30H    basis set group =>   4
Atom  31H    basis set group =>   4
Atom  32H    basis set group =>   4
Atom  33H    basis set group =>   4
Atom  34H    basis set group =>   4
Atom  35H    basis set group =>   4
Atom  36H    basis set group =>   4
Atom  37H    basis set group =>   4
Atom  38H    basis set group =>   4
Atom  39H    basis set group =>   4
Atom  40H    basis set group =>   4


           ************************************************************
           *        Program running with 6 parallel MPI-processes     *
           *              working on a common directory               *
           ************************************************************
------------------------------------------------------------------------------
                             ORCA STARTUP CALCULATIONS
                           -- RI-GTO INTEGRALS CHOSEN --
------------------------------------------------------------------------------
------------------------------------------------------------------------------
                   ___                                                        
                  /   \      - P O W E R E D   B Y -                         
                 /     \                                                     
                 |  |  |   _    _      __       _____    __    __             
                 |  |  |  | |  | |    /  \     |  _  \  |  |  /  |          
                  \  \/   | |  | |   /    \    | | | |  |  | /  /          
                 / \  \   | |__| |  /  /\  \   | |_| |  |  |/  /          
                |  |  |   |  __  | /  /__\  \  |    /   |      \           
                |  |  |   | |  | | |   __   |  |    \   |  |\   \          
                \     /   | |  | | |  |  |  |  | |\  \  |  | \   \       
                 \___/    |_|  |_| |__|  |__|  |_| \__\ |__|  \__/        
                                                                              
                      - O R C A' S   B I G   F R I E N D -                    
                                      &                                       
                       - I N T E G R A L  F E E D E R -                       
                                                                              
 v1 FN, 2020, v2 2021, v3 2022-2024                                           
------------------------------------------------------------------------------


----------------------
SHARK INTEGRAL PACKAGE
----------------------

Number of atoms                             ...     41
Number of basis functions                   ...    727
Number of shells                            ...    299
Maximum angular momentum                    ...      3
Integral batch strategy                     ... SHARK/LIBINT Hybrid
RI-J (if used) integral strategy            ... SPLIT-RIJ (Revised 2003 algorithm where possible)
Printlevel                                  ...      1
Contraction scheme used                     ... SEGMENTED contraction
Prescreening option                         ... SCHWARTZ
   Thresh                                   ... 1.000e-10
   Tcut                                     ... 1.000e-11
   Tpresel                                  ... 1.000e-11 
Coulomb Range Separation                    ... NOT USED
Exchange Range Separation                   ... NOT USED
Multipole approximations                    ... NOT USED
Finite Nucleus Model                        ... NOT USED
CABS basis                                  ... NOT available
Auxiliary Coulomb fitting basis             ... AVAILABLE
   # of basis functions in Aux-J            ...   1175
   # of shells in Aux-J                     ...    397
   Maximum angular momentum in Aux-J        ...      4
Auxiliary J/K fitting basis                 ... NOT available
Auxiliary Correlation fitting basis         ... NOT available
Auxiliary 'external' fitting basis          ... NOT available

Checking pre-screening integrals            ... done (  0.0 sec) Dimension = 299
Check shell pair data                       ... done (  0.0 sec)
Shell pair information
Shell pair cut-off parameter TPreSel        ...   1.0e-11
Total number of shell pairs                 ...     44850
Shell pairs after pre-screening             ...     32710
Total number of primitive shell pairs       ...    135438
Primitive shell pairs kept                  ...     66000
          la=0 lb=0:   9259 shell pairs
          la=1 lb=0:   9757 shell pairs
          la=1 lb=1:   2603 shell pairs
          la=2 lb=0:   4386 shell pairs
          la=2 lb=1:   2345 shell pairs
          la=2 lb=2:    563 shell pairs
          la=3 lb=0:   2055 shell pairs
          la=3 lb=1:   1115 shell pairs
          la=3 lb=2:    504 shell pairs
          la=3 lb=3:    123 shell pairs

Calculating one electron integrals          ... done (  0.1 sec)
Calculating RI/J V-Matrix + Cholesky decomp.... done (  0.1 sec)
Calculating Nuclear repulsion               ... done (  0.0 sec) ENN=   1531.165602896083 Eh

Diagonalization of the overlap matrix:
Smallest eigenvalue                        ... 7.778e-06
Time for diagonalization                   ...    0.101 sec
Threshold for overlap eigenvalues          ... 1.000e-07
Number of eigenvalues below threshold      ... 0
Time for construction of square roots      ...    0.051 sec
Total time needed                          ...    0.157 sec

-------------------
DFT GRID GENERATION
-------------------

General Integration Accuracy     IntAcc      ... 4.388
Radial Grid Type                 RadialGrid  ... OptM3 with GC (2021)
Angular Grid (max. ang.)         AngularGrid ... 4 (Lebedev-302)
Angular grid pruning method      GridPruning ... 4 (adaptive)
Weight generation scheme         WeightScheme... mBecke (2022)
Basis function cutoff            BFCut       ... 1.0000e-10
Integration weight cutoff        WCut        ... 1.0000e-14
Partially contracted basis set               ... off
Rotationally invariant grid construction     ... off
Angular grids for H and He will be reduced by one unit

Total number of grid points                  ...   184325
Total number of batches                      ...     2899
Average number of points per batch           ...       63
Average number of grid points per atom       ...     4496

--------------------
COSX GRID GENERATION
--------------------

GRIDX 1
-------
General Integration Accuracy     IntAcc      ... 3.816
Radial Grid Type                 RadialGrid  ... OptM3 with GC (2021)
Angular Grid (max. ang.)         AngularGrid ... 1 (Lebedev-50)
Angular grid pruning method      GridPruning ... 4 (adaptive)
Weight generation scheme         WeightScheme... mBecke (2022)
Basis function cutoff            BFCut       ... 1.0000e-10
Integration weight cutoff        WCut        ... 1.0000e-14
Partially contracted basis set               ... on
Rotationally invariant grid construction     ... off
Angular grids for H and He will be reduced by one unit

Total number of grid points                  ...    24438
Total number of batches                      ...      212
Average number of points per batch           ...      115
Average number of grid points per atom       ...      596
UseSFitting                                  ... on

GRIDX 2
-------
General Integration Accuracy     IntAcc      ... 4.020
Radial Grid Type                 RadialGrid  ... OptM3 with GC (2021)
Angular Grid (max. ang.)         AngularGrid ... 2 (Lebedev-110)
Angular grid pruning method      GridPruning ... 4 (adaptive)
Weight generation scheme         WeightScheme... mBecke (2022)
Basis function cutoff            BFCut       ... 1.0000e-10
Integration weight cutoff        WCut        ... 1.0000e-14
Partially contracted basis set               ... on
Rotationally invariant grid construction     ... off
Angular grids for H and He will be reduced by one unit

Total number of grid points                  ...    49522
Total number of batches                      ...      411
Average number of points per batch           ...      120
Average number of grid points per atom       ...     1208
UseSFitting                                  ... on

GRIDX 3
-------
General Integration Accuracy     IntAcc      ... 4.338
Radial Grid Type                 RadialGrid  ... OptM3 with GC (2021)
Angular Grid (max. ang.)         AngularGrid ... 3 (Lebedev-194)
Angular grid pruning method      GridPruning ... 4 (adaptive)
Weight generation scheme         WeightScheme... mBecke (2022)
Basis function cutoff            BFCut       ... 1.0000e-10
Integration weight cutoff        WCut        ... 1.0000e-14
Partially contracted basis set               ... on
Rotationally invariant grid construction     ... off
Angular grids for H and He will be reduced by one unit

Total number of grid points                  ...   108268
Total number of batches                      ...      870
Average number of points per batch           ...      124
Average number of grid points per atom       ...     2641
UseSFitting                                  ... on
Initializing property integral containers    ... done (  0.0 sec)

SHARK setup successfully completed in   3.8 seconds

Maximum memory used throughout the entire STARTUP-calculation: 75.1 MB


           ************************************************************
           *        Program running with 6 parallel MPI-processes     *
           *              working on a common directory               *
           ************************************************************
-------------------------------------------------------------------------------
                                 ORCA GUESS
                   Start orbitals & Density for SCF / CASSCF
-------------------------------------------------------------------------------

------------
SCF SETTINGS
------------
Hamiltonian:
 Density Functional     Method          .... DFT(GTOs)
 Exchange Functional    Exchange        .... M062X
 Correlation Functional Correlation     .... M062X
 Gradients option       PostSCFGGA      .... off
 Hybrid DFT is turned on
   Fraction HF Exchange ScalHFX         ....  0.540000
   Scaling of DF-GGA-X  ScalDFX         ....  0.460000
   Scaling of DF-GGA-C  ScalDFC         ....  1.000000
   Scaling of DF-LDA-C  ScalLDAC        ....  1.000000
   Perturbative correction              ....  0.000000
 RI-approximation to the Coulomb term is turned on
   Number of AuxJ basis functions       .... 1175
   RIJ-COSX (HFX calculated with COS-X)).... on


General Settings:
 Integral files         IntName         .... data/single_point_P_M06-2x/120481/120481
 Hartree-Fock type      HFTyp           .... RHF
 Total Charge           Charge          ....    0
 Multiplicity           Mult            ....    1
 Number of Electrons    NEL             ....  146
 Basis Dimension        Dim             ....  727
 Nuclear Repulsion      ENuc            ....   1531.1656028961 Eh

Convergence Acceleration:
 AO-DIIS                CNVDIIS         .... on
   Start iteration      DIISMaxIt       ....    12
   Startup error        DIISStart       ....  0.200000
   # of expansion vecs  DIISMaxEq       ....     5
   Bias factor          DIISBfac        ....   1.050
   Max. coefficient     DIISMaxC        ....  10.000
 MO-DIIS                CNVKDIIS        .... off
 Trust-Rad. Augm. Hess. CNVTRAH         .... auto
   Auto Start mean grad. ratio tolernc. ....  1.125000
   Auto Start start iteration           ....    50
   Auto Start num. interpolation iter.  ....    10
   Max. Number of Micro iterations      ....    24
   Max. Number of Macro iterations      .... Maxiter - #DIIS iter
   Number of Davidson start vectors     ....     2
   Converg. threshold    (grad. norm)   ....   5.000e-05
   Grad. Scal. Fac. for Micro threshold ....   0.100
   Minimum threshold for Micro iter.    ....   1.000e-02
   NR start threshold (gradient norm)   ....   1.000e-04
   Initial trust radius                 ....   0.400
   Minimum AH scaling param. (alpha)    ....   1.000
   Maximum AH scaling param. (alpha)    .... 1000.000
   Quad. conv. algorithm                .... NR
   White noise on init. David. guess    .... on
   Maximum white noise                  ....   0.010
   Pseudo random numbers                .... off
   Inactive MOs                         .... canonical
   Orbital update algorithm             .... Taylor
   Preconditioner                       .... Diag
   Full preconditioner red. dimension   ....   250
 SOSCF                  CNVSOSCF        .... on
   Start iteration      SOSCFMaxIt      ....   150
   Startup grad/error   SOSCFStart      ....  0.003300
   Hessian update       SOSCFHessUp     .... L-BFGS
 Level Shifting         CNVShift        .... on
   Level shift para.    LevelShift      ....    0.2500
   Turn off err/grad.   ShiftErr        ....    0.0010
 Zerner damping         CNVZerner       .... off
 Static damping         CNVDamp         .... on
   Fraction old density DampFac         ....    0.7000
   Max. Damping (<1)    DampMax         ....    0.9800
   Min. Damping (>=0)   DampMin         ....    0.0000
   Turn off err/grad.   DampErr         ....    0.1000

SCF Procedure:
 Maximum # iterations   MaxIter         ....   125
 SCF integral mode      SCFMode         .... Direct
   Integral package                     .... SHARK and LIBINT hybrid scheme
 Reset frequency        DirectResetFreq ....    20
 Integral Threshold     Thresh          ....  1.000e-10 Eh
 Primitive CutOff       TCut            ....  1.000e-11 Eh

Convergence Tolerance:
 Convergence Check Mode ConvCheckMode   .... Total+1el-Energy
 Convergence forced     ConvForced      .... 0
 Energy Change          TolE            ....  1.000e-06 Eh
 1-El. energy change                    ....  1.000e-03 Eh
 Orbital Gradient       TolG            ....  5.000e-05
 Orbital Rotation angle TolX            ....  5.000e-05
 DIIS Error             TolErr          ....  1.000e-05

------------------------------
INITIAL GUESS: MODEL POTENTIAL
------------------------------
Loading Hartree-Fock densities                     ... done
Calculating cut-offs                               ... done
Initializing the effective Hamiltonian             ... done
Setting up the integral package (SHARK)            ... done
Starting the Coulomb interaction                   ... done (   0.6 sec)
Making the grid                                    ... done (   0.3 sec)
Mapping shells                                     ... done
Starting the XC term evaluation                    ... done (   0.4 sec)
  promolecular density results
     # of electrons  =    145.987871198
     EX              =   -122.394353612
     EC              =     -4.904022666
     EX+EC           =   -127.298376277
Transforming the Hamiltonian                       ... done (   0.0 sec)
Diagonalizing the Hamiltonian                      ... done (   0.1 sec)
Back transforming the eigenvectors                 ... done (   0.0 sec)
Now organizing SCF variables                       ... done
                      ------------------
                      INITIAL GUESS DONE (   1.6 sec)
                      ------------------
             **** ENERGY FILE WAS UPDATED (data/single_point_P_M06-2x/120481/120481.en.tmp) ****
Finished Guess after   1.8 sec
Maximum memory used throughout the entire GUESS-calculation: 55.0 MB


           ************************************************************
           *        Program running with 6 parallel MPI-processes     *
           *              working on a common directory               *
           ************************************************************

-------------------------------------------------------------------------------------------
                                      ORCA LEAN-SCF
                              memory conserving SCF solver
-------------------------------------------------------------------------------------------

----------------------------------------D-I-I-S--------------------------------------------
Iteration    Energy (Eh)           Delta-E    RMSDP     MaxDP     DIISErr   Damp  Time(sec)
-------------------------------------------------------------------------------------------
               ***  Starting incremental Fock matrix formation  ***
    1    -1056.5718994995902449     0.00e+00  1.09e-03  3.51e-02  1.60e-01  0.700  15.1
    2    -1056.7851912686880951    -2.13e-01  8.76e-04  3.19e-02  8.78e-02  0.700   8.8
                               ***Turning on AO-DIIS***
    3    -1056.8869348743689898    -1.02e-01  5.82e-04  2.28e-02  3.97e-02  0.700   8.4
    4    -1056.9465863574098421    -5.97e-02  1.35e-03  4.94e-02  2.72e-02  0.000   8.1
    5    -1057.0738404001156141    -1.27e-01  1.25e-04  1.37e-02  3.58e-03  0.000   8.4
                              *** Initializing SOSCF ***
---------------------------------------S-O-S-C-F--------------------------------------
Iteration    Energy (Eh)           Delta-E    RMSDP     MaxDP     MaxGrad    Time(sec)
--------------------------------------------------------------------------------------
    6    -1057.0741278159810008    -2.87e-04  5.23e-05  5.22e-03  1.10e-03     7.6
               *** Restarting incremental Fock matrix formation ***
    7    -1057.0741896212869051    -6.18e-05  1.42e-04  8.48e-03  2.65e-04    14.7
    8    -1057.0741946923969863    -5.07e-06  5.44e-05  3.10e-03  1.92e-04    10.6
    9    -1057.0741972048301704    -2.51e-06  4.53e-05  2.81e-03  6.45e-05     9.9
   10    -1057.0741974451223086    -2.40e-07  9.21e-06  5.37e-04  3.04e-05     9.4
                 **** Energy Check signals convergence ****

               *****************************************************
               *                     SUCCESS                       *
               *           SCF CONVERGED AFTER  10 CYCLES          *
               *****************************************************

Recomputing exchange energy using gridx3       ... done (   22.261 sec)
Old exchange energy                            :    -67.526376080 Eh
New exchange energy                            :    -67.526441549 Eh
Exchange energy change after final integration :     -0.000065470 Eh
Total energy after final integration           :  -1057.074262915 Eh
             **** ENERGY FILE WAS UPDATED (data/single_point_P_M06-2x/120481/120481.en.tmp) ****

----------------
TOTAL SCF ENERGY
----------------

Total Energy       :      -1057.07426291474576 Eh          -28764.45305 eV

Components:
Nuclear Repulsion  :       1531.16560289608265 Eh           41665.13427 eV
Electronic Energy  :      -2588.23980034120541 Eh          -70429.58554 eV
One Electron Energy:      -4481.62131143654369 Eh         -121951.11576 eV
Two Electron Energy:       1893.38151109533851 Eh           51521.53022 eV

Virial components:
Potential Energy   :      -2108.78419191322928 Eh          -57382.93515 eV
Kinetic Energy     :       1051.70992899848352 Eh           28618.48210 eV
Virial Ratio       :          2.00510058312502

DFT components:
N(Alpha)           :       72.999834397207 electrons
N(Beta)            :       72.999834397207 electrons
N(Total)           :      145.999668794415 electrons
E(XC)              :      -62.707261936709 Eh       

---------------
SCF CONVERGENCE
---------------

  Last Energy change         ...    2.4029e-07  Tolerance :   1.0000e-06
  Last MAX-Density change    ...    5.3703e-04  Tolerance :   1.0000e-05
  Last RMS-Density change    ...    9.2069e-06  Tolerance :   1.0000e-06
  Last DIIS Error            ...    1.0999e-03  Tolerance :   1.0000e-05
  Last Orbital Gradient      ...    3.0363e-05  Tolerance :   5.0000e-05
  Last Orbital Rotation      ...    5.3530e-05  Tolerance :   5.0000e-05


----------------
ORBITAL ENERGIES
----------------

  NO   OCC          E(Eh)            E(eV) 
   0   2.0000     -78.024136     -2123.1447 
   1   2.0000     -14.736212      -400.9927 
   2   2.0000     -10.561200      -287.3849 
   3   2.0000     -10.555212      -287.2219 
   4   2.0000     -10.552301      -287.1427 
   5   2.0000     -10.552167      -287.1391 
   6   2.0000     -10.551896      -287.1317 
   7   2.0000     -10.551442      -287.1193 
   8   2.0000     -10.550586      -287.0960 
   9   2.0000     -10.550027      -287.0808 
  10   2.0000     -10.549711      -287.0722 
  11   2.0000     -10.549378      -287.0632 
  12   2.0000     -10.549164      -287.0573 
  13   2.0000     -10.549128      -287.0564 
  14   2.0000     -10.548866      -287.0492 
  15   2.0000     -10.548441      -287.0377 
  16   2.0000     -10.547972      -287.0249 
  17   2.0000     -10.537671      -286.7446 
  18   2.0000     -10.536312      -286.7076 
  19   2.0000      -6.840174      -186.1306 
  20   2.0000      -4.954731      -134.8251 
  21   2.0000      -4.954452      -134.8175 
  22   2.0000      -4.954228      -134.8114 
  23   2.0000      -1.026624       -27.9358 
  24   2.0000      -0.957898       -26.0657 
  25   2.0000      -0.951944       -25.9037 
  26   2.0000      -0.882112       -24.0035 
  27   2.0000      -0.852200       -23.1895 
  28   2.0000      -0.840625       -22.8746 
  29   2.0000      -0.838892       -22.8274 
  30   2.0000      -0.833496       -22.6806 
  31   2.0000      -0.789446       -21.4819 
  32   2.0000      -0.783860       -21.3299 
  33   2.0000      -0.722232       -19.6529 
  34   2.0000      -0.695469       -18.9247 
  35   2.0000      -0.686111       -18.6700 
  36   2.0000      -0.679757       -18.4971 
  37   2.0000      -0.674700       -18.3595 
  38   2.0000      -0.641759       -17.4631 
  39   2.0000      -0.623481       -16.9658 
  40   2.0000      -0.587193       -15.9783 
  41   2.0000      -0.570914       -15.5354 
  42   2.0000      -0.553344       -15.0573 
  43   2.0000      -0.539187       -14.6720 
  44   2.0000      -0.525147       -14.2900 
  45   2.0000      -0.523083       -14.2338 
  46   2.0000      -0.515033       -14.0148 
  47   2.0000      -0.514388       -13.9972 
  48   2.0000      -0.510841       -13.9007 
  49   2.0000      -0.494002       -13.4425 
  50   2.0000      -0.486000       -13.2247 
  51   2.0000      -0.485597       -13.2138 
  52   2.0000      -0.476008       -12.9528 
  53   2.0000      -0.466681       -12.6990 
  54   2.0000      -0.456152       -12.4125 
  55   2.0000      -0.448527       -12.2051 
  56   2.0000      -0.437552       -11.9064 
  57   2.0000      -0.433797       -11.8042 
  58   2.0000      -0.427038       -11.6203 
  59   2.0000      -0.420777       -11.4499 
  60   2.0000      -0.415219       -11.2987 
  61   2.0000      -0.403185       -10.9712 
  62   2.0000      -0.401959       -10.9379 
  63   2.0000      -0.399677       -10.8758 
  64   2.0000      -0.392212       -10.6726 
  65   2.0000      -0.369589       -10.0570 
  66   2.0000      -0.361879        -9.8472 
  67   2.0000      -0.321546        -8.7497 
  68   2.0000      -0.311542        -8.4775 
  69   2.0000      -0.309671        -8.4266 
  70   2.0000      -0.306244        -8.3333 
  71   2.0000      -0.275868        -7.5068 
  72   2.0000      -0.266655        -7.2560 
  73   0.0000       0.000870         0.0237 
  74   0.0000       0.008274         0.2251 
  75   0.0000       0.010175         0.2769 
  76   0.0000       0.022551         0.6136 
  77   0.0000       0.062178         1.6919 
  78   0.0000       0.072924         1.9844 
  79   0.0000       0.076257         2.0751 
  80   0.0000       0.084605         2.3022 
  81   0.0000       0.089958         2.4479 
  82   0.0000       0.094255         2.5648 
  83   0.0000       0.101204         2.7539 
*Only the first 10 virtual orbitals were printed.

                    ********************************
                    * MULLIKEN POPULATION ANALYSIS *
                    ********************************

-----------------------
MULLIKEN ATOMIC CHARGES
-----------------------
   0 C :   -0.354347
   1 N :   -0.193006
   2 C :   -0.330627
   3 C :   -0.202505
   4 C :   -0.348993
   5 C :   -0.421232
   6 P :    0.166587
   7 C :   -0.033833
   8 C :   -0.149813
   9 C :   -0.149948
  10 C :   -0.140310
  11 C :   -0.158982
  12 C :   -0.176981
  13 C :   -0.084757
  14 C :   -0.172082
  15 C :   -0.133606
  16 C :   -0.136369
  17 C :   -0.174196
  18 C :   -0.143080
  19 H :    0.140359
  20 H :    0.139055
  21 H :    0.129597
  22 H :    0.122615
  23 H :    0.137346
  24 H :    0.144205
  25 H :    0.148131
  26 H :    0.139688
  27 H :    0.157550
  28 H :    0.172518
  29 H :    0.168706
  30 H :    0.197554
  31 H :    0.154395
  32 H :    0.144642
  33 H :    0.144188
  34 H :    0.143305
  35 H :    0.172100
  36 H :    0.163064
  37 H :    0.145202
  38 H :    0.144664
  39 H :    0.145198
  40 H :    0.183995
Sum of atomic charges:   -0.0000000

--------------------------------
MULLIKEN REDUCED ORBITAL CHARGES
--------------------------------
  0 C s       :     3.301584  s :     3.301584
      pz      :     1.023948  p :     2.960345
      px      :     0.903688
      py      :     1.032710
      dz2     :     0.024154  d :     0.086890
      dxz     :     0.007773
      dyz     :     0.007650
      dx2y2   :     0.030979
      dxy     :     0.016334
      f0      :     0.000613  f :     0.005527
      f+1     :     0.000910
      f-1     :     0.000353
      f+2     :     0.000961
      f-2     :     0.000773
      f+3     :     0.001073
      f-3     :     0.000844

  1 N s       :     3.500555  s :     3.500555
      pz      :     1.047523  p :     3.620741
      px      :     1.385773
      py      :     1.187445
      dz2     :     0.016408  d :     0.067712
      dxz     :     0.013677
      dyz     :     0.014001
      dx2y2   :     0.014315
      dxy     :     0.009310
      f0      :     0.000644  f :     0.003998
      f+1     :     0.000659
      f-1     :     0.000620
      f+2     :     0.000402
      f-2     :     0.000386
      f+3     :     0.000689
      f-3     :     0.000597

  2 C s       :     3.278949  s :     3.278949
      pz      :     1.074706  p :     2.961868
      px      :     1.062475
      py      :     0.824687
      dz2     :     0.018657  d :     0.084320
      dxz     :     0.005794
      dyz     :     0.011092
      dx2y2   :     0.012924
      dxy     :     0.035853
      f0      :     0.000731  f :     0.005490
      f+1     :     0.000152
      f-1     :     0.000776
      f+2     :     0.000637
      f-2     :     0.000791
      f+3     :     0.001072
      f-3     :     0.001330

  3 C s       :     3.271019  s :     3.271019
      pz      :     0.763534  p :     2.806792
      px      :     0.953900
      py      :     1.089358
      dz2     :     0.027827  d :     0.117401
      dxz     :     0.033871
      dyz     :     0.022030
      dx2y2   :     0.010806
      dxy     :     0.022867
      f0      :     0.001257  f :     0.007292
      f+1     :     0.002380
      f-1     :     0.001515
      f+2     :     0.000454
      f-2     :     0.000521
      f+3     :     0.000547
      f-3     :     0.000618

  4 C s       :     3.319640  s :     3.319640
      pz      :     1.054996  p :     2.938427
      px      :     0.903539
      py      :     0.979893
      dz2     :     0.024336  d :     0.085765
      dxz     :     0.012770
      dyz     :     0.006178
      dx2y2   :     0.025241
      dxy     :     0.017239
      f0      :     0.000738  f :     0.005161
      f+1     :     0.000949
      f-1     :     0.000331
      f+2     :     0.000464
      f-2     :     0.000780
      f+3     :     0.001075
      f-3     :     0.000824

  5 C s       :     3.271071  s :     3.271071
      pz      :     1.086804  p :     3.075216
      px      :     0.971160
      py      :     1.017251
      dz2     :     0.016898  d :     0.071167
      dxz     :     0.012000
      dyz     :     0.011957
      dx2y2   :     0.020222
      dxy     :     0.010090
      f0      :     0.000763  f :     0.003779
      f+1     :     0.000519
      f-1     :     0.000304
      f+2     :     0.000342
      f-2     :     0.000411
      f+3     :     0.000677
      f-3     :     0.000762

  6 P s       :     5.712705  s :     5.712705
      pz      :     3.294219  p :     8.848408
      px      :     2.782594
      py      :     2.771594
      dz2     :     0.032160  d :     0.246510
      dxz     :     0.041104
      dyz     :     0.060591
      dx2y2   :     0.046301
      dxy     :     0.066354
      f0      :     0.002312  f :     0.025790
      f+1     :     0.003185
      f-1     :     0.004027
      f+2     :     0.003826
      f-2     :     0.004999
      f+3     :     0.004415
      f-3     :     0.003026

  7 C s       :     3.233748  s :     3.233748
      pz      :     0.935503  p :     2.716302
      px      :     0.887116
      py      :     0.893683
      dz2     :     0.010886  d :     0.076883
      dxz     :     0.017329
      dyz     :     0.013266
      dx2y2   :     0.016623
      dxy     :     0.018779
      f0      :     0.000878  f :     0.006901
      f+1     :     0.000512
      f-1     :     0.001291
      f+2     :     0.001117
      f-2     :     0.000737
      f+3     :     0.001096
      f-3     :     0.001269

  8 C s       :     3.207114  s :     3.207114
      pz      :     0.980512  p :     2.872103
      px      :     0.893116
      py      :     0.998475
      dz2     :     0.008015  d :     0.063994
      dxz     :     0.017134
      dyz     :     0.007712
      dx2y2   :     0.016087
      dxy     :     0.015046
      f0      :     0.000912  f :     0.006601
      f+1     :     0.000774
      f-1     :     0.000761
      f+2     :     0.001125
      f-2     :     0.000666
      f+3     :     0.001169
      f-3     :     0.001194

  9 C s       :     3.226572  s :     3.226572
      pz      :     0.949797  p :     2.856420
      px      :     0.998664
      py      :     0.907959
      dz2     :     0.013892  d :     0.060646
      dxz     :     0.006965
      dyz     :     0.010960
      dx2y2   :     0.015530
      dxy     :     0.013301
      f0      :     0.000502  f :     0.006310
      f+1     :     0.000858
      f-1     :     0.001328
      f+2     :     0.000783
      f-2     :     0.000821
      f+3     :     0.000964
      f-3     :     0.001055

 10 C s       :     3.224151  s :     3.224151
      pz      :     0.968263  p :     2.848746
      px      :     0.936468
      py      :     0.944015
      dz2     :     0.006580  d :     0.061115
      dxz     :     0.014928
      dyz     :     0.010082
      dx2y2   :     0.014992
      dxy     :     0.014533
      f0      :     0.000910  f :     0.006297
      f+1     :     0.000423
      f-1     :     0.001025
      f+2     :     0.000955
      f-2     :     0.000770
      f+3     :     0.000989
      f-3     :     0.001225

 11 C s       :     3.232083  s :     3.232083
      pz      :     0.975480  p :     2.858920
      px      :     0.896369
      py      :     0.987072
      dz2     :     0.007264  d :     0.061634
      dxz     :     0.017843
      dyz     :     0.006808
      dx2y2   :     0.013315
      dxy     :     0.016405
      f0      :     0.000889  f :     0.006345
      f+1     :     0.000770
      f-1     :     0.000748
      f+2     :     0.001035
      f-2     :     0.000688
      f+3     :     0.001159
      f-3     :     0.001056

 12 C s       :     3.191484  s :     3.191484
      pz      :     0.966974  p :     2.914937
      px      :     1.044195
      py      :     0.903768
      dz2     :     0.013732  d :     0.064118
      dxz     :     0.006815
      dyz     :     0.012783
      dx2y2   :     0.017602
      dxy     :     0.013186
      f0      :     0.000519  f :     0.006442
      f+1     :     0.000813
      f-1     :     0.001319
      f+2     :     0.000826
      f-2     :     0.000864
      f+3     :     0.001006
      f-3     :     0.001095

 13 C s       :     3.254262  s :     3.254262
      pz      :     0.909280  p :     2.750345
      px      :     0.973103
      py      :     0.867963
      dz2     :     0.014098  d :     0.073246
      dxz     :     0.015704
      dyz     :     0.020398
      dx2y2   :     0.007812
      dxy     :     0.015233
      f0      :     0.001148  f :     0.006903
      f+1     :     0.001135
      f-1     :     0.001598
      f+2     :     0.000774
      f-2     :     0.000318
      f+3     :     0.001084
      f-3     :     0.000845

 14 C s       :     3.228025  s :     3.228025
      pz      :     1.018308  p :     2.871956
      px      :     0.958714
      py      :     0.894933
      dz2     :     0.017643  d :     0.065579
      dxz     :     0.006120
      dyz     :     0.013580
      dx2y2   :     0.008564
      dxy     :     0.019672
      f0      :     0.001013  f :     0.006522
      f+1     :     0.000246
      f-1     :     0.001280
      f+2     :     0.001011
      f-2     :     0.000789
      f+3     :     0.001228
      f-3     :     0.000955

 15 C s       :     3.220320  s :     3.220320
      pz      :     0.891831  p :     2.845869
      px      :     0.972030
      py      :     0.982008
      dz2     :     0.012013  d :     0.061107
      dxz     :     0.019099
      dyz     :     0.015572
      dx2y2   :     0.007826
      dxy     :     0.006596
      f0      :     0.001104  f :     0.006309
      f+1     :     0.001101
      f-1     :     0.001422
      f+2     :     0.000723
      f-2     :     0.000667
      f+3     :     0.000611
      f-3     :     0.000682

 16 C s       :     3.225756  s :     3.225756
      pz      :     0.935580  p :     2.843662
      px      :     0.961024
      py      :     0.947058
      dz2     :     0.011400  d :     0.060650
      dxz     :     0.013884
      dyz     :     0.016317
      dx2y2   :     0.007918
      dxy     :     0.011132
      f0      :     0.000950  f :     0.006301
      f+1     :     0.001057
      f-1     :     0.001412
      f+2     :     0.000879
      f-2     :     0.000250
      f+3     :     0.000935
      f-3     :     0.000818

 17 C s       :     3.250824  s :     3.250824
      pz      :     1.000851  p :     2.856669
      px      :     0.965841
      py      :     0.889977
      dz2     :     0.013950  d :     0.060411
      dxz     :     0.005706
      dyz     :     0.014158
      dx2y2   :     0.007444
      dxy     :     0.019153
      f0      :     0.000936  f :     0.006292
      f+1     :     0.000257
      f-1     :     0.001258
      f+2     :     0.000913
      f-2     :     0.000802
      f+3     :     0.001218
      f-3     :     0.000908

 18 C s       :     3.205442  s :     3.205442
      pz      :     0.874464  p :     2.863866
      px      :     0.947757
      py      :     1.041645
      dz2     :     0.015964  d :     0.067198
      dxz     :     0.018676
      dyz     :     0.016644
      dx2y2   :     0.008085
      dxy     :     0.007829
      f0      :     0.001207  f :     0.006573
      f+1     :     0.001131
      f-1     :     0.001558
      f+2     :     0.000688
      f-2     :     0.000657
      f+3     :     0.000631
      f-3     :     0.000701

 19 H s       :     0.841271  s :     0.841271
      pz      :     0.011825  p :     0.018370
      px      :     0.003141
      py      :     0.003404

 20 H s       :     0.842557  s :     0.842557
      pz      :     0.003792  p :     0.018389
      px      :     0.003278
      py      :     0.011319

 21 H s       :     0.853196  s :     0.853196
      pz      :     0.003114  p :     0.017207
      px      :     0.009403
      py      :     0.004691

 22 H s       :     0.858132  s :     0.858132
      pz      :     0.004794  p :     0.019252
      px      :     0.010394
      py      :     0.004064

 23 H s       :     0.845437  s :     0.845437
      pz      :     0.003350  p :     0.017218
      px      :     0.007193
      py      :     0.006674

 24 H s       :     0.837270  s :     0.837270
      pz      :     0.011829  p :     0.018525
      px      :     0.003895
      py      :     0.002800

 25 H s       :     0.833446  s :     0.833446
      pz      :     0.003276  p :     0.018423
      px      :     0.004308
      py      :     0.010838

 26 H s       :     0.842671  s :     0.842671
      pz      :     0.003694  p :     0.017641
      px      :     0.007881
      py      :     0.006066

 27 H s       :     0.823667  s :     0.823667
      pz      :     0.011710  p :     0.018783
      px      :     0.003617
      py      :     0.003456

 28 H s       :     0.807911  s :     0.807911
      pz      :     0.003784  p :     0.019570
      px      :     0.004180
      py      :     0.011607

 29 H s       :     0.812360  s :     0.812360
      pz      :     0.005145  p :     0.018934
      px      :     0.003936
      py      :     0.009853

 30 H s       :     0.782239  s :     0.782239
      pz      :     0.012324  p :     0.020207
      px      :     0.004206
      py      :     0.003676

 31 H s       :     0.825769  s :     0.825769
      pz      :     0.005199  p :     0.019835
      px      :     0.003754
      py      :     0.010882

 32 H s       :     0.835724  s :     0.835724
      pz      :     0.003552  p :     0.019634
      px      :     0.012526
      py      :     0.003557

 33 H s       :     0.836185  s :     0.836185
      pz      :     0.005452  p :     0.019627
      px      :     0.007227
      py      :     0.006948

 34 H s       :     0.837078  s :     0.837078
      pz      :     0.005166  p :     0.019618
      px      :     0.003704
      py      :     0.010748

 35 H s       :     0.807524  s :     0.807524
      pz      :     0.003607  p :     0.020376
      px      :     0.013118
      py      :     0.003652

 36 H s       :     0.817079  s :     0.817079
      pz      :     0.012943  p :     0.019857
      px      :     0.003803
      py      :     0.003111

 37 H s       :     0.835060  s :     0.835060
      pz      :     0.003715  p :     0.019738
      px      :     0.004135
      py      :     0.011889

 38 H s       :     0.835647  s :     0.835647
      pz      :     0.007329  p :     0.019690
      px      :     0.003860
      py      :     0.008501

 39 H s       :     0.835087  s :     0.835087
      pz      :     0.012691  p :     0.019715
      px      :     0.003914
      py      :     0.003109

 40 H s       :     0.795714  s :     0.795714
      pz      :     0.003641  p :     0.020290
      px      :     0.004044
      py      :     0.012605



                     *******************************
                     * LOEWDIN POPULATION ANALYSIS *
                     *******************************

----------------------
LOEWDIN ATOMIC CHARGES
----------------------
   0 C :   -0.341526
   1 N :    0.030245
   2 C :   -0.331606
   3 C :   -0.300140
   4 C :   -0.297174
   5 C :   -0.407550
   6 P :    0.652603
   7 C :   -0.281336
   8 C :   -0.139431
   9 C :   -0.143722
  10 C :   -0.144416
  11 C :   -0.145335
  12 C :   -0.149747
  13 C :   -0.279765
  14 C :   -0.158078
  15 C :   -0.148503
  16 C :   -0.143822
  17 C :   -0.143723
  18 C :   -0.132653
  19 H :    0.118618
  20 H :    0.117783
  21 H :    0.105000
  22 H :    0.124619
  23 H :    0.106708
  24 H :    0.121079
  25 H :    0.137924
  26 H :    0.125297
  27 H :    0.142435
  28 H :    0.141151
  29 H :    0.134547
  30 H :    0.139876
  31 H :    0.151178
  32 H :    0.147601
  33 H :    0.146511
  34 H :    0.147035
  35 H :    0.149913
  36 H :    0.148661
  37 H :    0.147440
  38 H :    0.147070
  39 H :    0.147955
  40 H :    0.157275

-------------------------------
LOEWDIN REDUCED ORBITAL CHARGES
-------------------------------
  0 C s       :     2.852232  s :     2.852232
      pz      :     1.045510  p :     3.091120
      px      :     0.991224
      py      :     1.054387
      dz2     :     0.105522  d :     0.358254
      dxz     :     0.044480
      dyz     :     0.026869
      dx2y2   :     0.112318
      dxy     :     0.069065
      f0      :     0.003530  f :     0.039920
      f+1     :     0.006707
      f-1     :     0.002874
      f+2     :     0.008201
      f-2     :     0.006665
      f+3     :     0.005908
      f-3     :     0.006036

  1 N s       :     2.943668  s :     2.943668
      pz      :     1.132152  p :     3.717921
      px      :     1.347694
      py      :     1.238075
      dz2     :     0.076420  d :     0.287478
      dxz     :     0.052900
      dyz     :     0.062265
      dx2y2   :     0.050355
      dxy     :     0.045538
      f0      :     0.002596  f :     0.020688
      f+1     :     0.003941
      f-1     :     0.004232
      f+2     :     0.003069
      f-2     :     0.001933
      f+3     :     0.002798
      f-3     :     0.002118

  2 C s       :     2.847364  s :     2.847364
      pz      :     1.070005  p :     3.093106
      px      :     1.077749
      py      :     0.945352
      dz2     :     0.084691  d :     0.351489
      dxz     :     0.022940
      dyz     :     0.052030
      dx2y2   :     0.067690
      dxy     :     0.124138
      f0      :     0.004395  f :     0.039647
      f+1     :     0.001031
      f-1     :     0.005909
      f+2     :     0.006842
      f-2     :     0.005974
      f+3     :     0.006406
      f-3     :     0.009090

  3 C s       :     2.795344  s :     2.795344
      pz      :     0.901225  p :     2.969624
      px      :     1.027910
      py      :     1.040489
      dz2     :     0.126867  d :     0.482618
      dxz     :     0.137295
      dyz     :     0.083544
      dx2y2   :     0.051840
      dxy     :     0.083072
      f0      :     0.009467  f :     0.052554
      f+1     :     0.015344
      f-1     :     0.011218
      f+2     :     0.004624
      f-2     :     0.005110
      f+3     :     0.003180
      f-3     :     0.003611

  4 C s       :     2.789193  s :     2.789193
      pz      :     1.026982  p :     3.077840
      px      :     1.019577
      py      :     1.031281
      dz2     :     0.099865  d :     0.392269
      dxz     :     0.067415
      dyz     :     0.026752
      dx2y2   :     0.111020
      dxy     :     0.087218
      f0      :     0.004136  f :     0.037871
      f+1     :     0.005656
      f-1     :     0.002866
      f+2     :     0.005156
      f-2     :     0.007161
      f+3     :     0.007176
      f-3     :     0.005719

  5 C s       :     2.846910  s :     2.846910
      pz      :     1.072835  p :     3.195695
      px      :     1.066709
      py      :     1.056151
      dz2     :     0.070051  d :     0.336952
      dxz     :     0.057873
      dyz     :     0.052984
      dx2y2   :     0.093681
      dxy     :     0.062364
      f0      :     0.004396  f :     0.027993
      f+1     :     0.003173
      f-1     :     0.001551
      f+2     :     0.004594
      f-2     :     0.004442
      f+3     :     0.004886
      f-3     :     0.004952

  6 P s       :     4.948781  s :     4.948781
      pz      :     3.255570  p :     8.814742
      px      :     2.780898
      py      :     2.778273
      dz2     :     0.072673  d :     0.487585
      dxz     :     0.076027
      dyz     :     0.110676
      dx2y2   :     0.097590
      dxy     :     0.130619
      f0      :     0.008604  f :     0.096290
      f+1     :     0.008918
      f-1     :     0.014608
      f+2     :     0.015165
      f-2     :     0.018466
      f+3     :     0.015304
      f-3     :     0.015226

  7 C s       :     2.782219  s :     2.782219
      pz      :     0.922898  p :     2.999689
      px      :     1.048275
      py      :     1.028516
      dz2     :     0.049014  d :     0.454839
      dxz     :     0.083372
      dyz     :     0.071144
      dx2y2   :     0.111339
      dxy     :     0.139970
      f0      :     0.003794  f :     0.044589
      f+1     :     0.003673
      f-1     :     0.004725
      f+2     :     0.008003
      f-2     :     0.004596
      f+3     :     0.009011
      f-3     :     0.010787

  8 C s       :     2.776698  s :     2.776698
      pz      :     0.916694  p :     2.940093
      px      :     1.048912
      py      :     0.974487
      dz2     :     0.032790  d :     0.381977
      dxz     :     0.082068
      dyz     :     0.036293
      dx2y2   :     0.121465
      dxy     :     0.109361
      f0      :     0.004076  f :     0.040662
      f+1     :     0.004557
      f-1     :     0.002535
      f+2     :     0.006153
      f-2     :     0.005048
      f+3     :     0.009209
      f-3     :     0.009084

  9 C s       :     2.778132  s :     2.778132
      pz      :     0.927947  p :     2.948463
      px      :     0.994140
      py      :     1.026376
      dz2     :     0.054438  d :     0.376455
      dxz     :     0.033020
      dyz     :     0.069456
      dx2y2   :     0.126147
      dxy     :     0.093393
      f0      :     0.003123  f :     0.040673
      f+1     :     0.004496
      f-1     :     0.004231
      f+2     :     0.005904
      f-2     :     0.006257
      f+3     :     0.008005
      f-3     :     0.008657

 10 C s       :     2.778583  s :     2.778583
      pz      :     0.914514  p :     2.951011
      px      :     1.033645
      py      :     1.002851
      dz2     :     0.029726  d :     0.374225
      dxz     :     0.070516
      dyz     :     0.047140
      dx2y2   :     0.091583
      dxy     :     0.135262
      f0      :     0.004006  f :     0.040597
      f+1     :     0.003088
      f-1     :     0.004049
      f+2     :     0.007258
      f-2     :     0.003760
      f+3     :     0.008319
      f-3     :     0.010117

 11 C s       :     2.778445  s :     2.778445
      pz      :     0.916133  p :     2.949081
      px      :     1.058528
      py      :     0.974420
      dz2     :     0.032759  d :     0.377243
      dxz     :     0.082628
      dyz     :     0.034477
      dx2y2   :     0.118819
      dxy     :     0.108558
      f0      :     0.004089  f :     0.040566
      f+1     :     0.004510
      f-1     :     0.002514
      f+2     :     0.005971
      f-2     :     0.005150
      f+3     :     0.009322
      f-3     :     0.009010

 12 C s       :     2.775856  s :     2.775856
      pz      :     0.929927  p :     2.951906
      px      :     0.997410
      py      :     1.024569
      dz2     :     0.053686  d :     0.381554
      dxz     :     0.033281
      dyz     :     0.069133
      dx2y2   :     0.128633
      dxy     :     0.096820
      f0      :     0.003061  f :     0.040431
      f+1     :     0.004402
      f-1     :     0.004127
      f+2     :     0.005869
      f-2     :     0.006149
      f+3     :     0.007987
      f-3     :     0.008836

 13 C s       :     2.781288  s :     2.781288
      pz      :     1.079568  p :     3.000064
      px      :     0.875662
      py      :     1.044833
      dz2     :     0.115295  d :     0.453535
      dxz     :     0.058126
      dyz     :     0.170999
      dx2y2   :     0.054325
      dxy     :     0.054790
      f0      :     0.008783  f :     0.044878
      f+1     :     0.005703
      f-1     :     0.013865
      f+2     :     0.004993
      f-2     :     0.002619
      f+3     :     0.004434
      f-3     :     0.004480

 14 C s       :     2.779949  s :     2.779949
      pz      :     1.004342  p :     2.952997
      px      :     0.889934
      py      :     1.058721
      dz2     :     0.115385  d :     0.384661
      dxz     :     0.017814
      dyz     :     0.110497
      dx2y2   :     0.067954
      dxy     :     0.073010
      f0      :     0.005850  f :     0.040471
      f+1     :     0.001115
      f-1     :     0.011100
      f+2     :     0.006825
      f-2     :     0.006233
      f+3     :     0.004199
      f-3     :     0.005149

 15 C s       :     2.778400  s :     2.778400
      pz      :     1.061683  p :     2.954294
      px      :     0.893652
      py      :     0.998959
      dz2     :     0.118186  d :     0.375325
      dxz     :     0.070246
      dyz     :     0.121327
      dx2y2   :     0.043370
      dxy     :     0.022196
      f0      :     0.008559  f :     0.040484
      f+1     :     0.004514
      f-1     :     0.012177
      f+2     :     0.005314
      f-2     :     0.005093
      f+3     :     0.001986
      f-3     :     0.002842

 16 C s       :     2.778772  s :     2.778772
      pz      :     1.036361  p :     2.949470
      px      :     0.889226
      py      :     1.023883
      dz2     :     0.082636  d :     0.375020
      dxz     :     0.050055
      dyz     :     0.158313
      dx2y2   :     0.043982
      dxy     :     0.040034
      f0      :     0.008088  f :     0.040561
      f+1     :     0.005742
      f-1     :     0.011371
      f+2     :     0.004975
      f-2     :     0.001872
      f+3     :     0.004132
      f-3     :     0.004381

 17 C s       :     2.778365  s :     2.778365
      pz      :     0.996912  p :     2.949448
      px      :     0.891998
      py      :     1.060538
      dz2     :     0.112944  d :     0.375369
      dxz     :     0.017645
      dyz     :     0.106687
      dx2y2   :     0.066105
      dxy     :     0.071987
      f0      :     0.005797  f :     0.040541
      f+1     :     0.001085
      f-1     :     0.011048
      f+2     :     0.006873
      f-2     :     0.006313
[...]
      f-2     :     0.005049
      f+3     :     0.002010
      f-3     :     0.002860

 19 H s       :     0.824515  s :     0.824515
      pz      :     0.034300  p :     0.056867
      px      :     0.010966
      py      :     0.011601

 20 H s       :     0.825362  s :     0.825362
      pz      :     0.013250  p :     0.056855
      px      :     0.010549
      py      :     0.033056

 21 H s       :     0.838557  s :     0.838557
      pz      :     0.011209  p :     0.056443
      px      :     0.029020
      py      :     0.016214

 22 H s       :     0.815212  s :     0.815212
      pz      :     0.016751  p :     0.060169
      px      :     0.030900
      py      :     0.012518

 23 H s       :     0.836800  s :     0.836800
      pz      :     0.012062  p :     0.056492
      px      :     0.023996
      py      :     0.020433

 24 H s       :     0.821722  s :     0.821722
      pz      :     0.034881  p :     0.057199
      px      :     0.012944
      py      :     0.009374

 25 H s       :     0.807523  s :     0.807523
      pz      :     0.010023  p :     0.054553
      px      :     0.013453
      py      :     0.031076

 26 H s       :     0.820198  s :     0.820198
      pz      :     0.012033  p :     0.054505
      px      :     0.022657
      py      :     0.019815

 27 H s       :     0.801543  s :     0.801543
      pz      :     0.031544  p :     0.056022
      px      :     0.012158
      py      :     0.012319

 28 H s       :     0.800854  s :     0.800854
      pz      :     0.013311  p :     0.057995
      px      :     0.013265
      py      :     0.031418

 29 H s       :     0.806154  s :     0.806154
      pz      :     0.017637  p :     0.059300
      px      :     0.013424
      py      :     0.028239

 30 H s       :     0.797181  s :     0.797181
      pz      :     0.036922  p :     0.062943
      px      :     0.013693
      py      :     0.012329

 31 H s       :     0.792813  s :     0.792813
      pz      :     0.015242  p :     0.056009
      px      :     0.012023
      py      :     0.028744

 32 H s       :     0.796692  s :     0.796692
      pz      :     0.011504  p :     0.055706
      px      :     0.032422
      py      :     0.011781

 33 H s       :     0.797644  s :     0.797644
      pz      :     0.015849  p :     0.055845
      px      :     0.020346
      py      :     0.019649

 34 H s       :     0.797266  s :     0.797266
      pz      :     0.015211  p :     0.055699
      px      :     0.012271
      py      :     0.028217

 35 H s       :     0.792490  s :     0.792490
      pz      :     0.011993  p :     0.057597
      px      :     0.033739
      py      :     0.011865

 36 H s       :     0.794940  s :     0.794940
      pz      :     0.033731  p :     0.056399
      px      :     0.012145
      py      :     0.010522

 37 H s       :     0.796698  s :     0.796698
      pz      :     0.012253  p :     0.055863
      px      :     0.012690
      py      :     0.030919

 38 H s       :     0.797123  s :     0.797123
      pz      :     0.020560  p :     0.055808
      px      :     0.012054
      py      :     0.023194

 39 H s       :     0.796251  s :     0.796251
      pz      :     0.032763  p :     0.055794
      px      :     0.012173
      py      :     0.010858

 40 H s       :     0.785350  s :     0.785350
      pz      :     0.011896  p :     0.057375
      px      :     0.012434
      py      :     0.033044



                      *****************************
                      * MAYER POPULATION ANALYSIS *
                      *****************************

  NA   - Mulliken gross atomic population
  ZA   - Total nuclear charge
  QA   - Mulliken gross atomic charge
  VA   - Mayer's total valence
  BVA  - Mayer's bonded valence
  FA   - Mayer's free valence

  ATOM       NA         ZA         QA         VA         BVA        FA
  0 C      6.3543     6.0000    -0.3543     3.8658     3.8658     0.0000
  1 N      7.1930     7.0000    -0.1930     2.7984     2.7984     0.0000
  2 C      6.3306     6.0000    -0.3306     3.8485     3.8485     0.0000
  3 C      6.2025     6.0000    -0.2025     3.7453     3.7453    -0.0000
  4 C      6.3490     6.0000    -0.3490     3.7933     3.7933    -0.0000
  5 C      6.4212     6.0000    -0.4212     3.6814     3.6814    -0.0000
  6 P     14.8334    15.0000     0.1666     3.0953     3.0953    -0.0000
  7 C      6.0338     6.0000    -0.0338     3.8063     3.8063    -0.0000
  8 C      6.1498     6.0000    -0.1498     3.9434     3.9434    -0.0000
  9 C      6.1499     6.0000    -0.1499     3.9620     3.9620     0.0000
 10 C      6.1403     6.0000    -0.1403     3.9311     3.9311     0.0000
 11 C      6.1590     6.0000    -0.1590     3.9907     3.9907     0.0000
 12 C      6.1770     6.0000    -0.1770     3.8781     3.8781     0.0000
 13 C      6.0848     6.0000    -0.0848     3.7397     3.7397    -0.0000
 14 C      6.1721     6.0000    -0.1721     3.8813     3.8813    -0.0000
 15 C      6.1336     6.0000    -0.1336     3.9352     3.9352    -0.0000
 16 C      6.1364     6.0000    -0.1364     3.9093     3.9093    -0.0000
 17 C      6.1742     6.0000    -0.1742     3.9661     3.9661    -0.0000
 18 C      6.1431     6.0000    -0.1431     3.8078     3.8078    -0.0000
 19 H      0.8596     1.0000     0.1404     0.9578     0.9578     0.0000
 20 H      0.8609     1.0000     0.1391     0.9572     0.9572    -0.0000
 21 H      0.8704     1.0000     0.1296     0.9553     0.9553     0.0000
 22 H      0.8774     1.0000     0.1226     0.9447     0.9447     0.0000
 23 H      0.8627     1.0000     0.1373     0.9628     0.9628    -0.0000
 24 H      0.8558     1.0000     0.1442     0.9598     0.9598     0.0000
 25 H      0.8519     1.0000     0.1481     0.9524     0.9524    -0.0000
 26 H      0.8603     1.0000     0.1397     0.9631     0.9631    -0.0000
 27 H      0.8424     1.0000     0.1576     0.9636     0.9636    -0.0000
 28 H      0.8275     1.0000     0.1725     0.9375     0.9375     0.0000
 29 H      0.8313     1.0000     0.1687     0.9469     0.9469    -0.0000
 30 H      0.8024     1.0000     0.1976     0.9610     0.9610    -0.0000
 31 H      0.8456     1.0000     0.1544     0.9659     0.9659     0.0000
 32 H      0.8554     1.0000     0.1446     0.9647     0.9647     0.0000
 33 H      0.8558     1.0000     0.1442     0.9641     0.9641     0.0000
 34 H      0.8567     1.0000     0.1433     0.9659     0.9659     0.0000
 35 H      0.8279     1.0000     0.1721     0.9508     0.9508     0.0000
 36 H      0.8369     1.0000     0.1631     0.9753     0.9753    -0.0000
 37 H      0.8548     1.0000     0.1452     0.9653     0.9653     0.0000
 38 H      0.8553     1.0000     0.1447     0.9647     0.9647    -0.0000
 39 H      0.8548     1.0000     0.1452     0.9673     0.9673    -0.0000
 40 H      0.8160     1.0000     0.1840     0.9473     0.9473    -0.0000

  Mayer bond orders larger than 0.100000
B(  0-C ,  1-N ) :   0.9788 B(  0-C , 19-H ) :   0.9721 B(  0-C , 20-H ) :   0.9723 
B(  0-C , 21-H ) :   0.9615 B(  1-N ,  2-C ) :   0.9438 B(  1-N ,  3-C ) :   0.9344 
B(  2-C , 22-H ) :   0.9738 B(  2-C , 23-H ) :   0.9661 B(  2-C , 24-H ) :   0.9698 
B(  3-C ,  4-C ) :   0.9252 B(  3-C , 25-H ) :   0.9716 B(  3-C , 26-H ) :   0.9721 
B(  4-C ,  5-C ) :   0.8942 B(  4-C , 27-H ) :   0.9793 B(  4-C , 28-H ) :   0.9977 
B(  5-C ,  6-P ) :   0.9598 B(  5-C , 29-H ) :   0.9354 B(  5-C , 30-H ) :   0.9437 
B(  6-P ,  7-C ) :   0.9680 B(  6-P , 13-C ) :   0.9487 B(  7-C ,  8-C ) :   1.3871 
B(  7-C , 12-C ) :   1.3526 B(  8-C ,  9-C ) :   1.4777 B(  8-C , 31-H ) :   0.9362 
B(  9-C , 10-C ) :   1.4200 B(  9-C , 32-H ) :   0.9473 B( 10-C , 11-C ) :   1.4549 
B( 10-C , 33-H ) :   0.9471 B( 11-C , 12-C ) :   1.4614 B( 11-C , 34-H ) :   0.9431 
B( 12-C , 35-H ) :   0.9259 B( 13-C , 14-C ) :   1.3646 B( 13-C , 18-C ) :   1.3174 
B( 14-C , 15-C ) :   1.4462 B( 14-C , 36-H ) :   0.9392 B( 15-C , 16-C ) :   1.4438 
B( 15-C , 37-H ) :   0.9511 B( 16-C , 17-C ) :   1.4154 B( 16-C , 38-H ) :   0.9517 
B( 17-C , 18-C ) :   1.4573 B( 17-C , 39-H ) :   0.9517 B( 18-C , 40-H ) :   0.9366 


-------
TIMINGS
-------

Total SCF time: 0 days 0 hours 2 min 4 sec 

Total time                  ....     124.231 sec
Sum of individual times     ....     124.278 sec  (100.0%)

SCF preparation             ....       0.321 sec  (  0.3%)
Fock matrix formation       ....     120.117 sec  ( 96.7%)
  Startup                   ....       0.136 sec  (  0.1% of F)
  Split-RI-J                ....       8.566 sec  (  7.1% of F)
  Chain of spheres X        ....      85.851 sec  ( 71.5% of F)
  XC integration            ....      25.226 sec  ( 21.0% of F)
    Basis function eval.    ....       3.626 sec  ( 14.4% of XC)
    Density eval.           ....      10.421 sec  ( 41.3% of XC)
    XC-Functional eval.     ....       0.427 sec  (  1.7% of XC)
    XC-Potential eval.      ....       9.340 sec  ( 37.0% of XC)
Diagonalization             ....       0.000 sec  (  0.0%)
Density matrix formation    ....       0.349 sec  (  0.3%)
Total Energy calculation    ....       0.119 sec  (  0.1%)
Population analysis         ....       0.211 sec  (  0.2%)
Orbital Transformation      ....       0.459 sec  (  0.4%)
Orbital Orthonormalization  ....       0.000 sec  (  0.0%)
DIIS solution               ....       1.866 sec  (  1.5%)
SOSCF solution              ....       0.836 sec  (  0.7%)
Finished LeanSCF after 124.3 sec

Maximum memory used throughout the entire LEANSCF-calculation: 107.6 MB


-------------------------------------------------------------------------------
                          DFT DISPERSION CORRECTION                            
                                                                               
                              DFTD3 V3.1  Rev 1                                
                              USING zero damping                               
-------------------------------------------------------------------------------
The M062X functional is recognized
Active option DFTDOPT                   ...         3   

molecular C6(AA) [au] = 18564.884704 


            DFT-D V3
 parameters
 s6 scaling factor         :     1.0000 
 rs6 scaling factor        :     1.6190 
 s8 scaling factor         :     0.0000 
 rs8 scaling factor        :     1.0000 
 Damping factor alpha6     :    14.0000 
 Damping factor alpha8     :    16.0000 
 ad hoc parameters k1-k3   :    16.0000     1.3333    -4.0000 

 Edisp/kcal,au: -1.797897087874  -0.002865131078 
 E6   /kcal   :  -1.797897088 
 E8   /kcal   :  -0.000000000 
 % E8         :   0.000000000 

-------------------------   ----------------
Dispersion correction           -0.002865131
-------------------------   ----------------


-------------------------   --------------------
FINAL SINGLE POINT ENERGY     -1057.077128045824
-------------------------   --------------------



           ************************************************************
           *        Program running with 6 parallel MPI-processes     *
           *              working on a common directory               *
           ************************************************************

------------------------------------------------------------------------------
                              ORCA PROPERTY CALCULATIONS
------------------------------------------------------------------------------

GBWName                                 ... data/single_point_P_M06-2x/120481/120481.gbw
Number of atoms                         ...     41
Number of basis functions               ...    727
Max core memory                         ...   1024 MB

Electric properties:
Dipole moment                           ... YES
Quadrupole moment                       ...  NO
Static polarizability (Dipole/Dipole)   ...  NO
Static polarizability (Dipole/Quad.)    ...  NO
Static polarizability (Quad./Quad.)     ...  NO
Static polarizability (Velocity)        ...  NO

Atomic electric properties:
Dipole moment                           ...  NO
Quadrupole moment                       ...  NO
Static polarizability                   ...  NO

Choice of electric origin               ... Center of mass
Position of electric origin             ...    -0.915275    -0.046152    -0.374954

General magnetic properties:
Magnetizability                         ...  NO

EPR properties:
g-Tensor (aka g-matrix)                 ...  NO
Zero-Field splitting spin-orbit         ...  NO
Zero-field splitting spin-spin          ...  NO
Hyperfine couplings                     ...  NO (   0 nuclei)
Quadrupole couplings                    ...  NO (   0 nuclei)
Contact density                         ...  NO (   0 nuclei)

NMR properties:
Chemical shifts                         ...  NO (   0 nuclei)
Spin-rotation constants                 ...  NO (   0 nuclei)
Spin-spin couplings                     ...  NO (   0 nuclei,    0 pairs)

Choice of magnetic origin               ... GIAO
Position of magnetic origin             ...     0.000000     0.000000     0.000000

Properties with geometric perturbations:
SCF Hessian                             ...  NO
IR spectrum                             ...  NO
VCD spectrum                            ...  NO
X-ray spectroscopy properties:
SCF XES/XAS/RIXS spectra                ...  NO


-------------
DIPOLE MOMENT
-------------

Method             : SCF
Type of density    : Electron Density
Multiplicity       :   1
Irrep              :   0
Energy             : -1057.0742629147457592 Eh
Relativity type    : 
Basis              : AO
                                X                 Y                 Z
Electronic contribution:    -20.166158557      -0.908535617      -6.836740088
Nuclear contribution   :     20.506090282       0.935772012       7.343063780
                        -----------------------------------------
Total Dipole Moment    :      0.339931725       0.027236395       0.506323692
                        -----------------------------------------
Magnitude (a.u.)       :      0.610458090
Magnitude (Debye)      :      1.551661152



--------------------
Rotational spectrum 
--------------------
 
Rotational constants in cm-1:             0.014740             0.008141             0.006544 
Rotational constants in MHz :           441.879531           244.054617           196.186732 

Dipole components along the rotational axes: 
x,y,z [a.u.] :     0.358375     0.051406     0.491512 
x,y,z [Debye]:     0.910916     0.130664     1.249324 

 

Dipole moment calculation done in   0.0 sec 

Maximum memory used throughout the entire PROP-calculation: 57.1 MB

--------------------------------
SUGGESTED CITATIONS FOR THIS RUN
--------------------------------

Below you find a list of papers that are relevant to this ORCA run
We neither can nor want to force you to cite these papers, but we appreciate if you do
You receive ORCA, which is the product of decades of hard work by many enthusiastic individuals, for free
The only thing we kindly ask in return is that you cite our papers,
We deeply appreciate it, if you show your appreciation for ORCA by not just citing the generic ORCA reference.

Please note that relegating all ORCA citations to the supporting information does *not* help us.
SI sections are not indexed - citations you put there will not count into any citation statistics
But we need these citations in order to attract the funding resources that allow us to do what we are doing

Therefore, if you are a happy ORCA user, please consider citing a few of the papers listed below in the main body of your paper

In addition to the list printed below, the program has created the file data/single_point_P_M06-2x/120481/120481.bibtex that contains the list in bibtex format
You can import this file easily into all common literature databanks and citation aid programs


List of essential papers. We consider these as the minimum necessary citations

  1. Neese,F.
     Software update: the ORCA program system, version 5.0
     WIRES Comput. Molec. Sci., 2022 12(1)e1606
     doi.org/10.1002/wcms.1606

List of papers to cite with high priority. The work reported in these papers was absolutely
necessary for this run to complete.
Our perspective: the developers of density functionals and basis sets usually get cited in chemistry papers
Good! But without the algorithms to do something with them, the functionals or basis sets would not do anything.
Hence, in our opinion, the algorithm design and method developments papers are equally worthy of getting cited

  1. Neese,F.
     An improvement of the resolution of the identity approximation for the formation of the Coulomb matrix
     J. Comp. Chem., 2003 24(14)1740-1747
     doi.org/10.1002/jcc.10318
  2. Neese,F.; Wennmohs,F.; Hansen,A.; Becker,U.
     Efficient, approximate and parallel Hartree-Fock and hybrid DFT calculations. A 'chain-of-spheres' algorithm for the Hartree-Fock exchange
     Chem. Phys., 2009 356(1-3)98-109
     doi.org/10.1016/j.chemphys.2008.10.036
  3. Helmich-Paris,B.; de Souza,B.; Neese,F.; Izsák,R.
     An improved chain of spheres for exchange algorithm
     J. Chem. Phys., 2021 155 104109
     doi.org/doi: 10.1063/5.0058766.
  4. Neese,F.
     The SHARK Integral Generation and Digestion System
     J. Comp. Chem., 2022  1-16
     doi.org/10.1002/jcc.26942
  5. Grimme,S.; Antony,J.; Ehrlich,S.; Krieg,H.
     A consistent and accurate ab initio parametrization of density functional dispersion correction (DFT-D) for the 94 elements H-Pu
     J. Chem. Phys., 2010 132 154104-XXXX
     doi.org/10.1063/1.3382344

List of suggested additional citations. These are papers that are important in the 'surrounding' of 
of this run, or papers that preceded the highly important papers. If you like your results we are grateful for a citation.

  1. Izsak,R.; Neese,F.
     An overlap fitted chain of spheres exchange method
     J. Chem. Phys., 2011 135 144105
     doi.org/10.1063/1.3646921
  2. Izsak,R.; Hansen,A.; Neese,F.
     The resolution of identity and chain of spheres approximations for the LPNO-CCSD singles Fock term
     Molec. Phys., 2012 110 2413-2417
     doi.org/10.1080/00268976.2012.687466
  3. Neese,F.
     The ORCA program system
     WIRES Comput. Molec. Sci., 2012 2(1)73-78
     doi.org/10.1002/wcms.81
  4. Izsak,R.; Neese,F.; Klopper,W.
     Robust fitting techniques in the chain of spheres approximation to the Fock exchange: The role of the complementary space
     J. Chem. Phys., 2013 139 
     doi.org/10.1063/1.4819264
  5. Neese,F.
     Software update: the ORCA program system, version 4.0
     WIRES Comput. Molec. Sci., 2018 8(1)1-6
     doi.org/10.1002/wcms.1327
  6. Neese,F.; Wennmohs,F.; Becker,U.; Riplinger,C.
     The ORCA quantum chemistry program package
     J. Chem. Phys., 2020 152 Art. No. L224108
     doi.org/10.1063/5.0004608

List of optional additional citations

  1. Neese,F.
     Approximate second-order SCF convergence for spin unrestricted wavefunctions
     Chem. Phys. Lett., 2000 325(1-3)93-98
     doi.org/10.1016/s0009-2614(00)00662-x

Timings for individual modules:

Sum of individual times          ...      130.557 sec (=   2.176 min)
Startup calculation              ...        3.933 sec (=   0.066 min)   3.0 %
SCF iterations                   ...      126.328 sec (=   2.105 min)  96.8 %
Property calculations            ...        0.296 sec (=   0.005 min)   0.2 %
                             ****ORCA TERMINATED NORMALLY****
TOTAL RUN TIME: 0 days 0 hours 2 minutes 10 seconds 795 msec
