
                                 *****************
                                 * O   R   C   A *
                                 *****************

                                            #,                                       
                                            ###                                      
                                            ####                                     
                                            #####                                    
                                            ######                                   
                                           ########,                                 
                                     ,,################,,,,,                         
                               ,,#################################,,                 
                          ,,##########################################,,             
                       ,#########################################, ''#####,          
                    ,#############################################,,   '####,        
                  ,##################################################,,,,####,       
                ,###########''''           ''''###############################       
              ,#####''   ,,,,##########,,,,          '''####'''          '####       
            ,##' ,,,,###########################,,,                        '##       
           ' ,,###''''                  '''############,,,                           
         ,,##''                                '''############,,,,        ,,,,,,###''
      ,#''                                            '''#######################'''  
     '                                                          ''''####''''         
             ,#######,   #######,   ,#######,      ##                                
            ,#'     '#,  ##    ##  ,#'     '#,    #''#        ,####,   ,####,        
            ##       ##  ##   ,#'  ##            #'  '#       #'       #'  '#        
            ##       ##  #######   ##           ,######,      #####,   #    #        
            '#,     ,#'  ##    ##  '#,     ,#' ,#      #,     #,   #   #,  ,#        
             '#######'   ##     ##  '#######'  #'      '#     '####' # '####'        



                #########################################################
                #                        -***-                          #
                #          Department of theory and spectroscopy        #
                #                                                       #
                #                      Frank Neese                      #
                #                                                       #
                #     Directorship, Architecture, Infrastructure        #
                #                    SHARK, DRIVERS                     #
                #        Core code/Algorithms in most modules           #
                #                                                       #
                #        Max Planck Institute fuer Kohlenforschung      #
                #                Kaiser Wilhelm Platz 1                 #
                #                 D-45470 Muelheim/Ruhr                 #
                #                      Germany                          #
                #                                                       #
                #                  All rights reserved                  #
                #                        -***-                          #
                #########################################################


                         Program Version 6.0.0  -   RELEASE   -


 With contributions from (in alphabetic order):
   Daniel Aravena         : Magnetic Suceptibility
   Michael Atanasov       : Ab Initio Ligand Field Theory (pilot matlab implementation)
   Alexander A. Auer      : GIAO ZORA, VPT2 properties, NMR spectrum
   Ute Becker             : All parallelization in ORCA, NUMFREQ, NUMCALC
   Giovanni Bistoni       : ED, misc. LED, open-shell LED, HFLD
   Martin Brehm           : Molecular dynamics
   Dmytro Bykov           : pre 5.0 version of the SCF Hessian
   Marcos Casanova-Páez   : Triplet and SCS-CIS(D). UHF-(DLPNO)-IP/EA/STEOM-CCSD. UHF-CVS-IP/STEOM-CCSD
   Vijay G. Chilkuri      : MRCI spin determinant printing, contributions to CSF-ICE
   Pauline Colinet        : FMM embedding
   Dipayan Datta          : RHF DLPNO-CCSD density
   Achintya Kumar Dutta   : EOM-CC, STEOM-CC
   Nicolas Foglia         : Exact transition moments, OPA infrastructure, MCD improvements
   Dmitry Ganyushin       : Spin-Orbit,Spin-Spin,Magnetic field MRCI
   Miquel Garcia          : C-PCM and meta-GGA Hessian, CCSD/C-PCM, Gaussian charge scheme
   Tiago L. C. Gouveia    : GS-ROHF, GS-ROCIS
   Yang Guo               : DLPNO-NEVPT2, F12-NEVPT2, CIM, IAO-localization
   Andreas Hansen         : Spin unrestricted coupled pair/coupled cluster methods
   Ingolf Harden          : AUTO-CI MPn and infrastructure 
   Benjamin Helmich-Paris : MC-RPA, TRAH-(SCF,CASSCF), AVAS, COSX integrals, SCF dyn. polar.
   Lee Huntington         : MR-EOM, pCC
   Robert Izsak           : Overlap fitted RIJCOSX, COSX-SCS-MP3, EOM
   Riya Kayal             : Wick's Theorem for AUTO-CI, AUTO-CI UHF-CCSDT
   Emily Kempfer          : AUTO-CI, RHF CISDT and CCSDT
   Christian Kollmar      : KDIIS, OOCD, Brueckner-CCSD(T), CCSD density, CASPT2, CASPT2-K, improved NEVPT2
   Axel Koslowski         : Symmetry handling
   Simone Kossmann        : Meta GGA functionals, TD-DFT gradient, OOMP2, (MP2 Hessian; deprecated post 5.0)
   Lucas Lang             : DCDCAS
   Marvin Lechner         : AUTO-CI (C++ implementation), FIC-MRCC
   Spencer Leger          : CASSCF response
   Dagmar Lenk            : GEPOL surface, SMD, ORCA-2-JSON
   Dimitrios Liakos       : Extrapolation schemes; Compound Job, initial MDCI parallelization
   Dimitrios Manganas     : Further ROCIS development; embedding schemes. LFT, Crystal Embedding
   Dimitrios Pantazis     : SARC Basis sets
   Anastasios Papadopoulos: AUTO-CI, single reference methods and gradients
   Taras Petrenko         : pre 6.0 DFT Hessian and TD-DFT gradient, (ASA, deprecated), ECA, 1-Electron XAS/XES, NRVS
   Peter Pinski           : DLPNO-MP2, DLPNO-MP2 Gradient
   Christoph Reimann      : Effective Core Potentials
   Marius Retegan         : Local ZFS, SOC
   Christoph Riplinger    : Optimizer, TS searches, QM/MM, DLPNO-CCSD(T), (RO)-DLPNO pert. Triples
   Michael Roemelt        : Original ROCIS implementation
   Masaaki Saitow         : Open-shell DLPNO-CCSD energy and density
   Barbara Sandhoefer     : DKH picture change effects
   Kantharuban Sivalingam : CASSCF convergence/infrastructure, NEVPT2 and variants, FIC-MRCI
   Bernardo de Souza      : ESD, SOC TD-DFT
   Georgi Stoychev        : AutoAux, RI-MP2 NMR, DLPNO-MP2 response, X2C
   Van Anh Tran           : RI-MP2 g-tensors
   Willem Van den Heuvel  : Paramagnetic NMR
   Zikuan Wang            : NOTCH, Electric field optimization 
   Frank Wennmohs         : Technical directorship and infrastructure
   Hang Xu                : AUTO-CI-Response properties 


 We gratefully acknowledge several colleagues who have allowed us to
 interface, adapt or use parts of their codes:
   Stefan Grimme, W. Hujo, H. Kruse, P. Pracht,  : VdW corrections, initial TS optimization,
                  C. Bannwarth, S. Ehlert,         DFT functionals, gCP, sTDA/sTD-DF
                  L. Wittmann, M. Mueller
   Ed Valeev, F. Pavosevic, A. Kumar             : LibInt (2-el integral package), F12 methods
   Garnet Chan, S. Sharma, J. Yang, R. Olivares  : DMRG
   Ulf Ekstrom                                   : XCFun DFT Library
   Mihaly Kallay                                 : mrcc  (arbitrary order and MRCC methods)
   Frank Weinhold                                : gennbo (NPA and NBO analysis)
   Simon Mueller                                 : openCOSMO-RS
   Christopher J. Cramer and Donald G. Truhlar   : smd solvation model
   Lars Goerigk                                  : TD-DFT with DH, B97 family of functionals
   V. Asgeirsson, H. Jonsson                     : NEB implementation
   FAccTs GmbH                                   : IRC, NEB, NEB-TS, DLPNO-Multilevel, CI-OPT
                                                   MM, QMMM, 2- and 3-layer-ONIOM, Crystal-QMMM,
                                                   LR-CPCM, SF, NACMEs, symmetry and pop. for TD-DFT,
                                                   nearIR, NL-DFT gradient (VV10), updates on ESD,
                                                   ML-optimized integration grids, MBIS, APM,
                                                   GOAT, DOCKER, SOLVATOR, interface openCOSMO-RS
   S Lehtola, MJT Oliveira, MAL Marques          : LibXC Library
   Liviu Ungur et al                             : ANISO software


 Your calculation uses the libint2 library for the computation of 2-el integrals
 For citations please refer to: http://libint.valeyev.net

 Your ORCA version has been built with support for libXC version: 6.2.2
 For citations please refer to: https://libxc.gitlab.io

 This ORCA versions uses:
   CBLAS   interface :  Fast vector & matrix operations
   LAPACKE interface :  Fast linear algebra routines
   Shared memory     :  Shared parallel matrices


Your calculation utilizes the atom-pairwise dispersion correction
with the Becke-Johnson damping scheme (D3BJ)


Warning: RI is on but no J-basis has been assigned. Assigning Def2/J (nothing to worry about!)
================================================================================

----- Orbital basis set information -----
Your calculation utilizes the basis: def2-SVP
   F. Weigend and R. Ahlrichs, Phys. Chem. Chem. Phys. 7, 3297 (2005).

----- AuxJ basis set information -----
Your calculation utilizes the auxiliary basis: def2/J
   F. Weigend, Phys. Chem. Chem. Phys. 8, 1057 (2006).

================================================================================
                                        WARNINGS
                       Please study these warnings very carefully!
================================================================================


WARNING: Geometry Optimization
  ===> : Switching off AutoStart
         For restart on a previous wavefunction, please use MOREAD

================================================================================
                                       INPUT FILE
================================================================================
NAME = data/geom_opt_PO_BP86/13831/13831.inp
|  1> ! RI BP86 def2-SVP D3BJ TIGHTSCF Opt
|  2> %pal
|  3> nprocs 6
|  4> end
|  5> 
|  6> * xyz 0 1
|  7> C     -1.546569    5.009897   -0.916755
|  8> C     -0.561270    4.061465   -0.252647
|  9> C     -0.794487    2.616698   -0.689626
| 10> C      0.192442    1.663196   -0.024093
| 11> P      0.003166   -0.051845   -0.527954
| 12> O      0.014242   -0.233402   -2.018755
| 13> C      1.322301   -0.947257    0.302216
| 14> C      2.711071   -0.668927   -0.263450
| 15> C      3.783995   -1.484582    0.455047
| 16> C      5.167435   -1.204982   -0.110015
| 17> C     -1.520868   -0.615399    0.240677
| 18> C     -1.910808   -2.042386   -0.130514
| 19> C     -3.230382   -2.451472    0.520690
| 20> C     -3.616634   -3.874374    0.149832
| 21> H     -1.361768    6.038088   -0.590294
| 22> H     -2.577542    4.750628   -0.655556
| 23> H     -1.449194    4.976741   -2.006600
| 24> H     -0.662306    4.142219    0.835907
| 25> H      0.459913    4.367907   -0.507497
| 26> H     -1.818695    2.316462   -0.443023
| 27> H     -0.697588    2.535804   -1.778649
| 28> H      1.211719    1.981066   -0.268019
| 29> H      0.091219    1.721305    1.065461
| 30> H      1.296753   -0.698718    1.369140
| 31> H      1.113788   -2.019157    0.218432
| 32> H      2.936878    0.399250   -0.174215
| 33> H      2.719160   -0.902751   -1.334508
| 34> H      3.777906   -1.247214    1.525234
| 35> H      3.565981   -2.554554    0.358616
| 36> H      5.430099   -0.148031    0.000504
| 37> H      5.919793   -1.798982    0.418213
| 38> H      5.216355   -1.462172   -1.172937
| 39> H     -1.418191   -0.526986    1.328055
| 40> H     -2.326963    0.062031   -0.060598
| 41> H     -1.117184   -2.731979    0.177020
| 42> H     -1.991646   -2.123522   -1.220829
| 43> H     -3.147403   -2.373901    1.611000
| 44> H     -4.028609   -1.768982    0.206511
| 45> H     -4.563692   -4.146460    0.626229
| 46> H     -3.738885   -3.978083   -0.933054
| 47> H     -2.853532   -4.586637    0.479542
| 48> **                         ****END OF INPUT****
================================================================================

                       *****************************
                       * Geometry Optimization Run *
                       *****************************

Geometry optimization settings:
Update method            Update   .... BFGS
Choice of coordinates    CoordSys .... (2022) Redundant Internals
Initial Hessian          InHess   .... Almloef's Model
Max. no of cycles        MaxIter  .... 123

Convergence Tolerances:
Energy Change            TolE     ....  5.0000e-06 Eh
Max. Gradient            TolMAXG  ....  3.0000e-04 Eh/bohr
RMS Gradient             TolRMSG  ....  1.0000e-04 Eh/bohr
Max. Displacement        TolMAXD  ....  4.0000e-03 bohr
RMS Displacement         TolRMSD  ....  2.0000e-03 bohr
Strict Convergence                .... False

------------------------------------------------------------------------------
                        ORCA OPTIMIZATION COORDINATE SETUP
------------------------------------------------------------------------------

The optimization will be done in redundant internal coordinates (2022)
Making redundant internal coordinates   ...  (2022 redundants) done
Evaluating the initial hessian          ...  (Almloef) done
Evaluating the coordinates              ...  done
Calculating the B-matrix                .... done
Calculating the G-matrix                .... done
Diagonalizing the G-matrix              .... done
Small eigenvalue found = 2.983e-03
Small eigenvalue found = 3.392e-03
Small eigenvalue found = 6.839e-03
Small eigenvalue found = 1.523e-02
Small eigenvalue found = 2.085e-02
Small eigenvalue found = 2.661e-02
The first mode is                       ....   73
The number of degrees of freedom        ....  117

    -----------------------------------------------------------------
                    Redundant Internal Coordinates


    -----------------------------------------------------------------
         Definition                    Initial Value    Approx d2E/dq
    -----------------------------------------------------------------
      1. B(C   1,C   0)                  1.5203         0.387097   
      2. B(C   2,C   1)                  1.5273         0.377277   
      3. B(C   3,C   2)                  1.5252         0.380269   
      4. B(P   4,C   3)                  1.7975         0.469965   
      5. B(O   5,P   4)                  1.5019         1.247123   
      6. B(C   6,P   4)                  1.7975         0.469967   
      7. B(C   7,C   6)                  1.5252         0.380270   
      8. B(C   8,C   7)                  1.5273         0.377275   
      9. B(C   9,C   8)                  1.5203         0.387096   
     10. B(C  10,P   4)                  1.7975         0.469965   
     11. B(C  11,C  10)                  1.5252         0.380270   
     12. B(C  12,C  11)                  1.5273         0.377277   
     13. B(C  13,C  12)                  1.5203         0.387097   
     14. B(H  14,C   0)                  1.0945         0.354211   
     15. B(H  15,C   0)                  1.0947         0.353946   
     16. B(H  16,C   0)                  1.0947         0.353951   
     17. B(H  17,C   1)                  1.0962         0.351976   
     18. B(H  18,C   1)                  1.0962         0.351982   
     19. B(H  19,C   2)                  1.0954         0.352994   
     20. B(H  20,C   2)                  1.0963         0.351844   
     21. B(H  21,C   3)                  1.0952         0.353284   
     22. B(H  22,C   3)                  1.0958         0.352524   
     23. B(H  23,C   6)                  1.0958         0.352524   
     24. B(H  24,C   6)                  1.0952         0.353284   
     25. B(H  25,C   7)                  1.0954         0.352996   
     26. B(H  26,C   7)                  1.0963         0.351844   
     27. B(H  27,C   8)                  1.0962         0.351975   
     28. B(H  28,C   8)                  1.0962         0.351982   
     29. B(H  29,C   9)                  1.0947         0.353945   
     30. B(H  30,C   9)                  1.0945         0.354212   
     31. B(H  31,C   9)                  1.0947         0.353951   
     32. B(H  32,C  10)                  1.0958         0.352525   
     33. B(H  33,C  10)                  1.0952         0.353284   
     34. B(H  34,C  11)                  1.0954         0.352995   
     35. B(H  35,C  11)                  1.0963         0.351843   
     36. B(H  36,C  12)                  1.0962         0.351977   
     37. B(H  37,C  12)                  1.0962         0.351983   
     38. B(H  38,C  13)                  1.0945         0.354212   
     39. B(H  39,C  13)                  1.0947         0.353951   
     40. B(H  40,C  13)                  1.0947         0.353945   
     41. A(C   1,C   0,H  16)          110.9986         0.325297   
     42. A(C   1,C   0,H  15)          111.0010         0.325297   
     43. A(H  15,C   0,H  16)          108.3095         0.289271   
     44. A(H  14,C   0,H  16)          108.0828         0.289305   
     45. A(C   1,C   0,H  14)          110.2628         0.325337   
     46. A(H  14,C   0,H  15)          108.0800         0.289305   
     47. A(H  17,C   1,H  18)          107.2251         0.288766   
     48. A(C   0,C   1,H  17)          109.1523         0.324998   
     49. A(C   0,C   1,H  18)          109.1344         0.324999   
     50. A(C   0,C   1,C   2)          111.4802         0.366186   
     51. A(C   2,C   1,H  18)          109.8872         0.323631   
     52. A(C   2,C   1,H  17)          109.8599         0.323630   
     53. A(C   1,C   2,H  20)          109.9079         0.323610   
     54. A(C   3,C   2,H  19)          109.5993         0.324203   
     55. A(C   1,C   2,C   3)          111.5757         0.365072   
     56. A(C   1,C   2,H  19)          109.7325         0.323783   
     57. A(H  19,C   2,H  20)          106.6210         0.288879   
     58. A(C   3,C   2,H  20)          109.2773         0.324030   
     59. A(C   2,C   3,P   4)          113.9562         0.403797   
     60. A(H  21,C   3,H  22)          106.9798         0.289004   
     61. A(C   2,C   3,H  22)          109.9352         0.324132   
     62. A(C   2,C   3,H  21)          108.8806         0.324247   
     63. A(P   4,C   3,H  22)          108.6378         0.356636   
     64. A(P   4,C   3,H  21)          108.2093         0.356766   
     65. A(C   3,P   4,C   6)          105.5779         0.447314   
     66. A(O   5,P   4,C   6)          113.1296         0.532859   
     67. A(O   5,P   4,C  10)          113.1296         0.532859   
     68. A(C   6,P   4,C  10)          105.5779         0.447314   
     69. A(C   3,P   4,C  10)          105.5779         0.447313   
     70. A(C   3,P   4,O   5)          113.1295         0.532859   
     71. A(P   4,C   6,C   7)          113.9562         0.403798   
     72. A(H  23,C   6,H  24)          106.9798         0.289003   
     73. A(C   7,C   6,H  24)          108.8806         0.324247   
     74. A(P   4,C   6,H  24)          108.2093         0.356767   
     75. A(C   7,C   6,H  23)          109.9352         0.324132   
     76. A(P   4,C   6,H  23)          108.6377         0.356636   
     77. A(H  25,C   7,H  26)          106.6211         0.288879   
     78. A(C   8,C   7,H  26)          109.9078         0.323609   
     79. A(C   6,C   7,H  26)          109.2773         0.324030   
     80. A(C   8,C   7,H  25)          109.7325         0.323783   
     81. A(C   6,C   7,H  25)          109.5994         0.324204   
     82. A(C   6,C   7,C   8)          111.5757         0.365072   
     83. A(H  27,C   8,H  28)          107.2252         0.288766   
     84. A(C   9,C   8,H  28)          109.1345         0.324999   
     85. A(C   7,C   8,H  28)          109.8872         0.323630   
     86. A(C   9,C   8,H  27)          109.1523         0.324998   
     87. A(C   7,C   8,H  27)          109.8599         0.323629   
     88. A(C   7,C   8,C   9)          111.4802         0.366186   
     89. A(H  30,C   9,H  31)          108.0829         0.289305   
     90. A(H  29,C   9,H  31)          108.3095         0.289271   
     91. A(C   8,C   9,H  31)          110.9985         0.325297   
     92. A(H  29,C   9,H  30)          108.0800         0.289305   
     93. A(C   8,C   9,H  30)          110.2628         0.325337   
     94. A(C   8,C   9,H  29)          111.0010         0.325296   
     95. A(H  32,C  10,H  33)          106.9798         0.289004   
     96. A(C  11,C  10,H  33)          108.8806         0.324247   
     97. A(P   4,C  10,H  33)          108.2093         0.356766   
     98. A(C  11,C  10,H  32)          109.9352         0.324133   
     99. A(P   4,C  10,H  32)          108.6378         0.356636   
    100. A(P   4,C  10,C  11)          113.9562         0.403797   
    101. A(C  10,C  11,H  34)          109.5993         0.324204   
    102. A(C  10,C  11,C  12)          111.5757         0.365072   
    103. A(H  34,C  11,H  35)          106.6210         0.288879   
    104. A(C  12,C  11,H  35)          109.9079         0.323610   
    105. A(C  10,C  11,H  35)          109.2774         0.324030   
    106. A(C  12,C  11,H  34)          109.7326         0.323783   
    107. A(C  11,C  12,C  13)          111.4802         0.366186   
    108. A(H  36,C  12,H  37)          107.2251         0.288766   
    109. A(C  13,C  12,H  37)          109.1345         0.324999   
    110. A(C  11,C  12,H  37)          109.8871         0.323631   
    111. A(C  13,C  12,H  36)          109.1523         0.324998   
    112. A(C  11,C  12,H  36)          109.8600         0.323630   
    113. A(H  39,C  13,H  40)          108.3095         0.289271   
    114. A(H  38,C  13,H  40)          108.0800         0.289305   
    115. A(C  12,C  13,H  40)          111.0011         0.325296   
    116. A(H  38,C  13,H  39)          108.0828         0.289305   
    117. A(C  12,C  13,H  39)          110.9985         0.325297   
    118. A(C  12,C  13,H  38)          110.2628         0.325337   
    119. D(C   2,C   1,C   0,H  14)   -179.9894         0.011921   
    120. D(C   2,C   1,C   0,H  15)     60.2700         0.011921   
    121. D(H  17,C   1,C   0,H  15)    -61.2730         0.011921   
    122. D(C   2,C   1,C   0,H  16)    -60.2467         0.011921   
    123. D(H  17,C   1,C   0,H  16)    178.2104         0.011921   
    124. D(H  17,C   1,C   0,H  14)     58.4677         0.011921   
    125. D(C   3,C   2,C   1,C   0)   -179.9719         0.011353   
    126. D(H  19,C   2,C   1,H  18)   -179.4270         0.011353   
    127. D(H  19,C   2,C   1,C   0)    -58.2997         0.011353   
    128. D(H  19,C   2,C   1,H  17)     62.8316         0.011353   
    129. D(C   3,C   2,C   1,H  17)    -58.8406         0.011353   
    130. D(C   3,C   2,C   1,H  18)     58.9008         0.011353   
    131. D(P   4,C   3,C   2,H  19)     59.7998         0.011524   
    132. D(P   4,C   3,C   2,H  20)    -56.7006         0.011524   
    133. D(P   4,C   3,C   2,C   1)   -178.4510         0.011524   
    134. D(H  21,C   3,C   2,C   1)    -57.5642         0.011524   
    135. D(H  21,C   3,C   2,H  20)     64.1863         0.011524   
    136. D(H  21,C   3,C   2,H  19)   -179.3134         0.011524   
    137. D(C   6,P   4,C   3,H  22)    -60.4009         0.004760   
    138. D(C   6,P   4,C   3,H  21)     55.4095         0.004760   
    139. D(C   6,P   4,C   3,C   2)    176.6700         0.004760   
    140. D(O   5,P   4,C   3,H  21)    -68.8207         0.004760   
    141. D(O   5,P   4,C   3,C   2)     52.4399         0.004760   
    142. D(O   5,P   4,C   3,H  22)    175.3689         0.004760   
    143. D(H  23,C   6,P   4,C  10)    -60.4015         0.004760   
    144. D(H  23,C   6,P   4,O   5)    175.3683         0.004760   
    145. D(H  23,C   6,P   4,C   3)     51.1381         0.004760   
    146. D(C   7,C   6,P   4,O   5)     52.4393         0.004760   
    147. D(C   7,C   6,P   4,C   3)    -71.7909         0.004760   
    148. D(C   7,C   6,P   4,C  10)    176.6695         0.004760   
    149. D(C   8,C   7,C   6,P   4)   -178.4505         0.011524   
    150. D(H  25,C   7,C   6,H  24)   -179.3129         0.011524   
    151. D(H  25,C   7,C   6,H  23)    -62.4181         0.011524   
    152. D(H  25,C   7,C   6,P   4)     59.8002         0.011524   
    153. D(C   8,C   7,C   6,H  24)    -57.5636         0.011524   
    154. D(C   8,C   7,C   6,H  23)     59.3312         0.011524   
    155. D(H  27,C   8,C   7,H  26)    179.7745         0.011353   
    156. D(H  27,C   8,C   7,H  25)     62.8317         0.011353   
    157. D(H  27,C   8,C   7,C   6)    -58.8405         0.011353   
    158. D(C   9,C   8,C   7,H  26)     58.6432         0.011353   
    159. D(C   9,C   8,C   7,H  25)    -58.2996         0.011353   
    160. D(C   9,C   8,C   7,C   6)   -179.9718         0.011353   
    161. D(H  30,C   9,C   8,H  28)    -58.4240         0.011921   
    162. D(H  30,C   9,C   8,H  27)     58.4680         0.011921   
    163. D(H  30,C   9,C   8,C   7)   -179.9891         0.011921   
    164. D(H  29,C   9,C   8,H  28)   -178.1647         0.011921   
    165. D(H  29,C   9,C   8,H  27)    -61.2727         0.011921   
    166. D(H  29,C   9,C   8,C   7)     60.2702         0.011921   
    167. D(H  32,C  10,P   4,C   6)     51.1386         0.004760   
    168. D(H  32,C  10,P   4,O   5)    175.3688         0.004760   
    169. D(H  32,C  10,P   4,C   3)    -60.4011         0.004760   
    170. D(C  11,C  10,P   4,C   6)    -71.7905         0.004760   
    171. D(C  11,C  10,P   4,O   5)     52.4398         0.004760   
    172. D(C  11,C  10,P   4,C   3)    176.6699         0.004760   
    173. D(H  34,C  11,C  10,H  33)   -179.3128         0.011524   
    174. D(H  34,C  11,C  10,H  32)    -62.4180         0.011524   
    175. D(H  34,C  11,C  10,P   4)     59.8004         0.011524   
    176. D(C  12,C  11,C  10,H  33)    -57.5636         0.011524   
    177. D(C  12,C  11,C  10,H  32)     59.3312         0.011524   
    178. D(C  12,C  11,C  10,P   4)   -178.4504         0.011524   
    179. D(C  13,C  12,C  11,H  35)     58.6433         0.011353   
    180. D(C  13,C  12,C  11,H  34)    -58.2994         0.011353   
    181. D(C  13,C  12,C  11,C  10)   -179.9715         0.011353   
    182. D(H  36,C  12,C  11,H  35)    179.7746         0.011353   
    183. D(H  36,C  12,C  11,H  34)     62.8320         0.011353   
    184. D(H  36,C  12,C  11,C  10)    -58.8402         0.011353   
    185. D(H  39,C  13,C  12,H  37)     61.3185         0.011921   
    186. D(H  39,C  13,C  12,H  36)    178.2104         0.011921   
    187. D(H  39,C  13,C  12,C  11)    -60.2466         0.011921   
    188. D(H  38,C  13,C  12,H  37)    -58.4242         0.011921   
    189. D(H  38,C  13,C  12,H  36)     58.4677         0.011921   
    190. D(H  38,C  13,C  12,C  11)   -179.9893         0.011921   
    -----------------------------------------------------------------

Number of atoms                         .... 41
Number of degrees of freedom            .... 190


         *************************************************************
         *                GEOMETRY OPTIMIZATION CYCLE   1            *
         *************************************************************
---------------------------------
CARTESIAN COORDINATES (ANGSTROEM)
---------------------------------
  C     -1.546569    5.009897   -0.916755
  C     -0.561270    4.061465   -0.252647
  C     -0.794487    2.616698   -0.689626
  C      0.192442    1.663196   -0.024093
  P      0.003166   -0.051845   -0.527954
  O      0.014242   -0.233402   -2.018755
  C      1.322301   -0.947257    0.302216
  C      2.711071   -0.668927   -0.263450
  C      3.783995   -1.484582    0.455047
  C      5.167435   -1.204982   -0.110015
  C     -1.520868   -0.615399    0.240677
  C     -1.910808   -2.042386   -0.130514
  C     -3.230382   -2.451472    0.520690
  C     -3.616634   -3.874374    0.149832
  H     -1.361768    6.038088   -0.590294
  H     -2.577542    4.750628   -0.655556
  H     -1.449194    4.976741   -2.006600
  H     -0.662306    4.142219    0.835907
  H      0.459913    4.367907   -0.507497
  H     -1.818695    2.316462   -0.443023
  H     -0.697588    2.535804   -1.778649
  H      1.211719    1.981066   -0.268019
  H      0.091219    1.721305    1.065461
  H      1.296753   -0.698718    1.369140
  H      1.113788   -2.019157    0.218432
  H      2.936878    0.399250   -0.174215
  H      2.719160   -0.902751   -1.334508
  H      3.777906   -1.247214    1.525234
  H      3.565981   -2.554554    0.358616
  H      5.430099   -0.148031    0.000504
  H      5.919793   -1.798982    0.418213
  H      5.216355   -1.462172   -1.172937
  H     -1.418191   -0.526986    1.328055
  H     -2.326963    0.062031   -0.060598
  H     -1.117184   -2.731979    0.177020
  H     -1.991646   -2.123522   -1.220829
  H     -3.147403   -2.373901    1.611000
  H     -4.028609   -1.768982    0.206511
  H     -4.563692   -4.146460    0.626229
  H     -3.738885   -3.978083   -0.933054
  H     -2.853532   -4.586637    0.479542

----------------------------
CARTESIAN COORDINATES (A.U.)
----------------------------
  NO LB      ZA    FRAG     MASS         X           Y           Z
   0 C     6.0000    0    12.011   -2.922592    9.467333   -1.732416
   1 C     6.0000    0    12.011   -1.060647    7.675057   -0.477434
   2 C     6.0000    0    12.011   -1.501363    4.944843   -1.303204
   3 C     6.0000    0    12.011    0.363663    3.142985   -0.045529
   4 P    15.0000    0    30.974    0.005983   -0.097973   -0.997688
   5 O     8.0000    0    15.999    0.026913   -0.441066   -3.814894
   6 C     6.0000    0    12.011    2.498787   -1.790056    0.571105
   7 C     6.0000    0    12.011    5.123182   -1.264089   -0.497848
   8 C     6.0000    0    12.011    7.150714   -2.805453    0.859914
   9 C     6.0000    0    12.011    9.765037   -2.277086   -0.207898
  10 C     6.0000    0    12.011   -2.874024   -1.162936    0.454814
  11 C     6.0000    0    12.011   -3.610904   -3.859550   -0.246636
  12 C     6.0000    0    12.011   -6.104537   -4.632611    0.983962
  13 C     6.0000    0    12.011   -6.834448   -7.321506    0.283141
  14 H     1.0000    0     1.008   -2.573369   11.410333   -1.115494
  15 H     1.0000    0     1.008   -4.870848    8.977386   -1.238821
  16 H     1.0000    0     1.008   -2.738580    9.404678   -3.791924
  17 H     1.0000    0     1.008   -1.251577    7.827659    1.579635
  18 H     1.0000    0     1.008    0.869110    8.254148   -0.959030
  19 H     1.0000    0     1.008   -3.436835    4.377479   -0.837192
  20 H     1.0000    0     1.008   -1.318250    4.791975   -3.361159
  21 H     1.0000    0     1.008    2.289817    3.743672   -0.506483
  22 H     1.0000    0     1.008    0.172379    3.252795    2.013429
  23 H     1.0000    0     1.008    2.450508   -1.320386    2.587300
  24 H     1.0000    0     1.008    2.104754   -3.815654    0.412777
  25 H     1.0000    0     1.008    5.549895    0.754473   -0.329219
  26 H     1.0000    0     1.008    5.138468   -1.705952   -2.521855
  27 H     1.0000    0     1.008    7.139208   -2.356893    2.882275
  28 H     1.0000    0     1.008    6.738727   -4.827407    0.677686
  29 H     1.0000    0     1.008   10.261400   -0.279738    0.000952
  30 H     1.0000    0     1.008   11.186788   -3.399583    0.790308
  31 H     1.0000    0     1.008    9.857482   -2.763105   -2.216530
  32 H     1.0000    0     1.008   -2.679993   -0.995859    2.509660
  33 H     1.0000    0     1.008   -4.397323    0.117222   -0.114514
  34 H     1.0000    0     1.008   -2.111172   -5.162692    0.334519
  35 H     1.0000    0     1.008   -3.763665   -4.012875   -2.307032
  36 H     1.0000    0     1.008   -5.947730   -4.486023    3.044349
  37 H     1.0000    0     1.008   -7.612968   -3.342892    0.390249
  38 H     1.0000    0     1.008   -8.624128   -7.835674    1.183401
  39 H     1.0000    0     1.008   -7.065469   -7.517487   -1.763217
  40 H     1.0000    0     1.008   -5.392394   -8.667488    0.906203

--------------------------------
INTERNAL COORDINATES (ANGSTROEM)
--------------------------------
 C      0   0   0     0.000000000000     0.00000000     0.00000000
 C      1   0   0     1.520321286337     0.00000000     0.00000000
 C      2   1   0     1.527315455241   111.48021559     0.00000000
 C      3   2   1     1.525165266171   111.57574869   180.02807962
 P      4   3   2     1.797516882585   113.95617992   181.54898998
 O      5   4   3     1.501856598889   113.12952700    52.43985628
 C      5   4   3     1.797515515057   105.57791034   176.67003946
 C      7   5   4     1.525164819079   113.95618894   288.20913120
 C      8   7   5     1.527316904840   111.57569216   181.54949215
 C      9   8   7     1.520321498054   111.48018999   180.02821758
 C      5   4   3     1.797516719876   105.57791218   288.20970167
 C     11   5   4     1.525164863302   113.95619381   176.66989728
 C     12  11   5     1.527315797891   111.57570639   181.54960523
 C     13  12  11     1.520321138862   111.48020323   180.02847163
 H      1   2   3     1.094488431461   110.26284019   180.01063721
 H      1   2   3     1.094692038288   111.00101041    60.26995006
 H      1   2   3     1.094688693185   110.99856185   299.75333840
 H      2   1   3     1.096211335796   109.15232072   238.45702272
 H      2   1   3     1.096207070472   109.13442777   121.56516257
 H      3   2   1     1.095425361478   109.73248003   301.70026690
 H      3   2   1     1.096313983294   109.90790676    58.64292198
 H      4   3   2     1.095201731694   108.88055585   302.43582033
 H      4   3   2     1.095787694093   109.93520115    59.33059701
 H      7   5   4     1.095787915886   108.63773743    51.13814474
 H      7   5   4     1.095201826069   108.20933344   166.94853615
 H      8   7   5     1.095424022835   109.59937447    59.80023334
 H      8   7   5     1.096313976131   109.27730565   303.29979489
 H      9   8   7     1.096212049885   109.85988960   301.15950176
 H      9   8   7     1.096206697088   109.88718967    58.90095921
 H     10   9   8     1.094692761764   111.00099253    60.27019564
 H     10   9   8     1.094487724987   110.26279721   180.01088653
 H     10   9   8     1.094688558716   110.99853605   299.75364633
 H     11   5   4     1.095787543177   108.63777611   299.59894819
 H     11   5   4     1.095201889859   108.20926252    55.40936220
 H     12  11   5     1.095424447500   109.59929915    59.80036597
 H     12  11   5     1.096314111906   109.27739265   303.30002905
 H     13  12  11     1.096211052025   109.85997341   301.15981534
 H     13  12  11     1.096205905690   109.88713578    58.90122393
 H     14  13  12     1.094487893203   110.26283346   180.01073806
 H     14  13  12     1.094688518565   110.99854135   299.75340514
 H     14  13  12     1.094692617895   111.00107016    60.26997986

---------------------------
INTERNAL COORDINATES (A.U.)
---------------------------
 C      0   0   0     0.000000000000     0.00000000     0.00000000
 C      1   0   0     2.872990866748     0.00000000     0.00000000
 C      2   1   0     2.886207930511   111.48021559     0.00000000
 C      3   2   1     2.882144662032   111.57574869   180.02807962
 P      4   3   2     3.396814629185   113.95617992   181.54898998
 O      5   4   3     2.838097664322   113.12952700    52.43985628
 C      5   4   3     3.396812044931   105.57791034   176.67003946
 C      7   5   4     2.882143817151   113.95618894   288.20913120
 C      8   7   5     2.886210669856   111.57569216   181.54949215
 C      9   8   7     2.872991266834   111.48018999   180.02821758
 C      5   4   3     3.396814321710   105.57791218   288.20970167
 C     11   5   4     2.882143900720   113.95619381   176.66989728
 C     12  11   5     2.886208578026   111.57570639   181.54960523
 C     13  12  11     2.872990588061   111.48020323   180.02847163
 H      1   2   3     2.068283392207   110.26284019   180.01063721
 H      1   2   3     2.068668153348   111.00101041    60.26995006
 H      1   2   3     2.068661832019   110.99856185   299.75333840
 H      2   1   3     2.071539209555   109.15232072   238.45702272
 H      2   1   3     2.071531149260   109.13442777   121.56516257
 H      3   2   1     2.070053933345   109.73248003   301.70026690
 H      3   2   1     2.071733185214   109.90790676    58.64292198
 H      4   3   2     2.069631334298   108.88055585   302.43582033
 H      4   3   2     2.070738642757   109.93520115    59.33059701
 H      7   5   4     2.070739061884   108.63773743    51.13814474
 H      7   5   4     2.069631512641   108.20933344   166.94853615
 H      8   7   5     2.070051403676   109.59937447    59.80023334
 H      8   7   5     2.071733171679   109.27730565   303.29979489
 H      9   8   7     2.071540558988   109.85988960   301.15950176
 H      9   8   7     2.071530443667   109.88718967    58.90095921
 H     10   9   8     2.068669520519   111.00099253    60.27019564
 H     10   9   8     2.068282057165   110.26279721   180.01088653
 H     10   9   8     2.068661577910   110.99853605   299.75364633
 H     11   5   4     2.070738357567   108.63777611   299.59894819
 H     11   5   4     2.069631633186   108.20926252    55.40936220
 H     12  11   5     2.070052206177   109.59929915    59.80036597
 H     12  11   5     2.071733428256   109.27739265   303.30002905
 H     13  12  11     2.071538673305   109.85997341   301.15981534
 H     13  12  11     2.071528948142   109.88713578    58.90122393
 H     14  13  12     2.068282375047   110.26283346   180.01073806
 H     14  13  12     2.068661502036   110.99854135   299.75340514
 H     14  13  12     2.068669248646   111.00107016    60.26997986

---------------------
BASIS SET INFORMATION
---------------------
There are 4 groups of distinct atoms

 Group   1 Type C   : 7s4p1d contracted to 3s2p1d pattern {511/31/1}
 Group   2 Type P   : 10s7p1d contracted to 4s3p1d pattern {5311/511/1}
 Group   3 Type O   : 7s4p1d contracted to 3s2p1d pattern {511/31/1}
 Group   4 Type H   : 4s1p contracted to 2s1p pattern {31/1}

Atom   0C    basis set group =>   1
Atom   1C    basis set group =>   1
Atom   2C    basis set group =>   1
Atom   3C    basis set group =>   1
Atom   4P    basis set group =>   2
Atom   5O    basis set group =>   3
Atom   6C    basis set group =>   1
Atom   7C    basis set group =>   1
Atom   8C    basis set group =>   1
Atom   9C    basis set group =>   1
Atom  10C    basis set group =>   1
Atom  11C    basis set group =>   1
Atom  12C    basis set group =>   1
Atom  13C    basis set group =>   1
Atom  14H    basis set group =>   4
Atom  15H    basis set group =>   4
Atom  16H    basis set group =>   4
Atom  17H    basis set group =>   4
Atom  18H    basis set group =>   4
Atom  19H    basis set group =>   4
Atom  20H    basis set group =>   4
Atom  21H    basis set group =>   4
Atom  22H    basis set group =>   4
Atom  23H    basis set group =>   4
Atom  24H    basis set group =>   4
Atom  25H    basis set group =>   4
Atom  26H    basis set group =>   4
Atom  27H    basis set group =>   4
Atom  28H    basis set group =>   4
Atom  29H    basis set group =>   4
Atom  30H    basis set group =>   4
Atom  31H    basis set group =>   4
Atom  32H    basis set group =>   4
Atom  33H    basis set group =>   4
Atom  34H    basis set group =>   4
Atom  35H    basis set group =>   4
Atom  36H    basis set group =>   4
Atom  37H    basis set group =>   4
Atom  38H    basis set group =>   4
Atom  39H    basis set group =>   4
Atom  40H    basis set group =>   4
---------------------------------
AUXILIARY/J BASIS SET INFORMATION
---------------------------------
There are 4 groups of distinct atoms

 Group   1 Type C   : 12s5p4d2f1g contracted to 6s4p3d1f1g pattern {711111/2111/211/2/1}
 Group   2 Type P   : 14s5p5d2f1g contracted to 8s4p3d1f1g pattern {71111111/2111/311/2/1}
 Group   3 Type O   : 12s5p4d2f1g contracted to 6s4p3d1f1g pattern {711111/2111/211/2/1}
 Group   4 Type H   : 5s2p1d contracted to 3s1p1d pattern {311/2/1}

Atom   0C    basis set group =>   1
Atom   1C    basis set group =>   1
Atom   2C    basis set group =>   1
Atom   3C    basis set group =>   1
Atom   4P    basis set group =>   2
Atom   5O    basis set group =>   3
Atom   6C    basis set group =>   1
Atom   7C    basis set group =>   1
Atom   8C    basis set group =>   1
Atom   9C    basis set group =>   1
Atom  10C    basis set group =>   1
Atom  11C    basis set group =>   1
Atom  12C    basis set group =>   1
Atom  13C    basis set group =>   1
Atom  14H    basis set group =>   4
Atom  15H    basis set group =>   4
Atom  16H    basis set group =>   4
Atom  17H    basis set group =>   4
Atom  18H    basis set group =>   4
Atom  19H    basis set group =>   4
Atom  20H    basis set group =>   4
Atom  21H    basis set group =>   4
Atom  22H    basis set group =>   4
Atom  23H    basis set group =>   4
Atom  24H    basis set group =>   4
Atom  25H    basis set group =>   4
Atom  26H    basis set group =>   4
Atom  27H    basis set group =>   4
Atom  28H    basis set group =>   4
Atom  29H    basis set group =>   4
Atom  30H    basis set group =>   4
Atom  31H    basis set group =>   4
Atom  32H    basis set group =>   4
Atom  33H    basis set group =>   4
Atom  34H    basis set group =>   4
Atom  35H    basis set group =>   4
Atom  36H    basis set group =>   4
Atom  37H    basis set group =>   4
Atom  38H    basis set group =>   4
Atom  39H    basis set group =>   4
Atom  40H    basis set group =>   4


           ************************************************************
           *        Program running with 6 parallel MPI-processes     *
           *              working on a common directory               *
           ************************************************************
------------------------------------------------------------------------------
                             ORCA STARTUP CALCULATIONS
                           -- RI-GTO INTEGRALS CHOSEN --
------------------------------------------------------------------------------
------------------------------------------------------------------------------
                   ___                                                        
                  /   \      - P O W E R E D   B Y -                         
                 /     \                                                     
                 |  |  |   _    _      __       _____    __    __             
                 |  |  |  | |  | |    /  \     |  _  \  |  |  /  |          
                  \  \/   | |  | |   /    \    | | | |  |  | /  /          
                 / \  \   | |__| |  /  /\  \   | |_| |  |  |/  /          
                |  |  |   |  __  | /  /__\  \  |    /   |      \           
                |  |  |   | |  | | |   __   |  |    \   |  |\   \          
                \     /   | |  | | |  |  |  |  | |\  \  |  | \   \       
                 \___/    |_|  |_| |__|  |__|  |_| \__\ |__|  \__/        
                                                                              
                      - O R C A' S   B I G   F R I E N D -                    
                                      &                                       
                       - I N T E G R A L  F E E D E R -                       
                                                                              
 v1 FN, 2020, v2 2021, v3 2022-2024                                           
------------------------------------------------------------------------------


----------------------
SHARK INTEGRAL PACKAGE
----------------------

Number of atoms                             ...     41
Number of basis functions                   ...    335
Number of shells                            ...    167
Maximum angular momentum                    ...      2
Integral batch strategy                     ... SHARK/LIBINT Hybrid
RI-J (if used) integral strategy            ... SPLIT-RIJ (Revised 2003 algorithm where possible)
Printlevel                                  ...      1
Contraction scheme used                     ... SEGMENTED contraction
Prescreening option                         ... SCHWARTZ
   Thresh                                   ... 2.500e-11
   Tcut                                     ... 2.500e-12
   Tpresel                                  ... 2.500e-12 
Coulomb Range Separation                    ... NOT USED
Exchange Range Separation                   ... NOT USED
Multipole approximations                    ... NOT USED
Finite Nucleus Model                        ... NOT USED
CABS basis                                  ... NOT available
Auxiliary Coulomb fitting basis             ... AVAILABLE
   # of basis functions in Aux-J            ...    985
   # of shells in Aux-J                     ...    347
   Maximum angular momentum in Aux-J        ...      4
Auxiliary J/K fitting basis                 ... NOT available
Auxiliary Correlation fitting basis         ... NOT available
Auxiliary 'external' fitting basis          ... NOT available

Checking pre-screening integrals            ... done (  0.0 sec) Dimension = 167
Check shell pair data                       ... done (  0.0 sec)
Shell pair information
Shell pair cut-off parameter TPreSel        ...   2.5e-12
Total number of shell pairs                 ...     14028
Shell pairs after pre-screening             ...     10385
Total number of primitive shell pairs       ...     48168
Primitive shell pairs kept                  ...     23930
          la=0 lb=0:   3747 shell pairs
          la=1 lb=0:   4039 shell pairs
          la=1 lb=1:   1082 shell pairs
          la=2 lb=0:    955 shell pairs
          la=2 lb=1:    496 shell pairs
          la=2 lb=2:     66 shell pairs

Calculating one electron integrals          ... done (  0.0 sec)
Calculating RI/J V-Matrix + Cholesky decomp.... done (  0.0 sec)
Calculating Nuclear repulsion               ... done (  0.0 sec) ENN=   1076.554900275907 Eh

Diagonalization of the overlap matrix:
Smallest eigenvalue                        ... 1.106e-03
Time for diagonalization                   ...    0.015 sec
Threshold for overlap eigenvalues          ... 1.000e-07
Number of eigenvalues below threshold      ... 0
Time for construction of square roots      ...    0.009 sec
Total time needed                          ...    0.025 sec

-------------------
DFT GRID GENERATION
-------------------

General Integration Accuracy     IntAcc      ... 4.388
Radial Grid Type                 RadialGrid  ... OptM3 with GC (2021)
Angular Grid (max. ang.)         AngularGrid ... 4 (Lebedev-302)
Angular grid pruning method      GridPruning ... 4 (adaptive)
Weight generation scheme         WeightScheme... mBecke (2022)
Basis function cutoff            BFCut       ... 1.0000e-11
Integration weight cutoff        WCut        ... 1.0000e-14
Partially contracted basis set               ... off
Rotationally invariant grid construction     ... off
Angular grids for H and He will be reduced by one unit

Total number of grid points                  ...   170813
Total number of batches                      ...     2695
Average number of points per batch           ...       63
Average number of grid points per atom       ...     4166
Initializing property integral containers    ... done (  0.0 sec)

SHARK setup successfully completed in   1.2 seconds

Maximum memory used throughout the entire STARTUP-calculation: 48.5 MB


           ************************************************************
           *        Program running with 6 parallel MPI-processes     *
           *              working on a common directory               *
           ************************************************************
-------------------------------------------------------------------------------
                                 ORCA GUESS
                   Start orbitals & Density for SCF / CASSCF
-------------------------------------------------------------------------------

------------
SCF SETTINGS
------------
Hamiltonian:
 Density Functional     Method          .... DFT(GTOs)
 Exchange Functional    Exchange        .... B88
   X-Alpha parameter    XAlpha          ....  0.666667
   Becke's b parameter  XBeta           ....  0.004200
 Correlation Functional Correlation     .... P86
 LDA part of GGA corr.  LDAOpt          .... PW91-LDA
 Gradients option       PostSCFGGA      .... off
   NL short-range parameter             ....  4.400000
 RI-approximation to the Coulomb term is turned on
   Number of AuxJ basis functions       .... 985


General Settings:
 Integral files         IntName         .... data/geom_opt_PO_BP86/13831/13831
 Hartree-Fock type      HFTyp           .... RHF
 Total Charge           Charge          ....    0
 Multiplicity           Mult            ....    1
 Number of Electrons    NEL             ....  122
 Basis Dimension        Dim             ....  335
 Nuclear Repulsion      ENuc            ....   1076.5549002759 Eh

Convergence Acceleration:
 AO-DIIS                CNVDIIS         .... on
   Start iteration      DIISMaxIt       ....    12
   Startup error        DIISStart       ....  0.200000
   # of expansion vecs  DIISMaxEq       ....     5
   Bias factor          DIISBfac        ....   1.050
   Max. coefficient     DIISMaxC        ....  10.000
 MO-DIIS                CNVKDIIS        .... off
 Trust-Rad. Augm. Hess. CNVTRAH         .... auto
   Auto Start mean grad. ratio tolernc. ....  1.125000
   Auto Start start iteration           ....    50
   Auto Start num. interpolation iter.  ....    10
   Max. Number of Micro iterations      ....    24
   Max. Number of Macro iterations      .... Maxiter - #DIIS iter
   Number of Davidson start vectors     ....     2
   Converg. threshold    (grad. norm)   ....   1.000e-05
   Grad. Scal. Fac. for Micro threshold ....   0.100
   Minimum threshold for Micro iter.    ....   1.000e-02
   NR start threshold (gradient norm)   ....   1.000e-04
   Initial trust radius                 ....   0.400
   Minimum AH scaling param. (alpha)    ....   1.000
   Maximum AH scaling param. (alpha)    .... 1000.000
   Quad. conv. algorithm                .... NR
   White noise on init. David. guess    .... on
   Maximum white noise                  ....   0.010
   Pseudo random numbers                .... off
   Inactive MOs                         .... canonical
   Orbital update algorithm             .... Taylor
   Preconditioner                       .... Diag
   Full preconditioner red. dimension   ....   250
 SOSCF                  CNVSOSCF        .... on
   Start iteration      SOSCFMaxIt      ....   150
   Startup grad/error   SOSCFStart      ....  0.003300
   Hessian update       SOSCFHessUp     .... L-BFGS
 Level Shifting         CNVShift        .... on
   Level shift para.    LevelShift      ....    0.2500
   Turn off err/grad.   ShiftErr        ....    0.0010
 Zerner damping         CNVZerner       .... off
 Static damping         CNVDamp         .... on
   Fraction old density DampFac         ....    0.7000
   Max. Damping (<1)    DampMax         ....    0.9800
   Min. Damping (>=0)   DampMin         ....    0.0000
   Turn off err/grad.   DampErr         ....    0.1000

SCF Procedure:
 Maximum # iterations   MaxIter         ....   125
 SCF integral mode      SCFMode         .... Direct
   Integral package                     .... SHARK and LIBINT hybrid scheme
 Reset frequency        DirectResetFreq ....    20
 Integral Threshold     Thresh          ....  2.500e-11 Eh
 Primitive CutOff       TCut            ....  2.500e-12 Eh

Convergence Tolerance:
 Convergence Check Mode ConvCheckMode   .... Total+1el-Energy
 Convergence forced     ConvForced      .... 0
 Energy Change          TolE            ....  1.000e-08 Eh
 1-El. energy change                    ....  1.000e-05 Eh
 Orbital Gradient       TolG            ....  1.000e-05
 Orbital Rotation angle TolX            ....  1.000e-05
 DIIS Error             TolErr          ....  5.000e-07

------------------------------
INITIAL GUESS: MODEL POTENTIAL
------------------------------
Loading Hartree-Fock densities                     ... done
Calculating cut-offs                               ... done
Initializing the effective Hamiltonian             ... done
Setting up the integral package (SHARK)            ... done
Starting the Coulomb interaction                   ... done (   0.2 sec)
Making the grid                                    ... done (   0.2 sec)
Mapping shells                                     ... done
Starting the XC term evaluation                    ... done (   0.1 sec)
  promolecular density results
     # of electrons  =    121.994255004
     EX              =   -100.662815303
     EC              =     -4.480062894
     EX+EC           =   -105.142878197
Transforming the Hamiltonian                       ... done (   0.0 sec)
Diagonalizing the Hamiltonian                      ... done (   0.0 sec)
Back transforming the eigenvectors                 ... done (   0.0 sec)
Now organizing SCF variables                       ... done
                      ------------------
                      INITIAL GUESS DONE (   0.5 sec)
                      ------------------
             **** ENERGY FILE WAS UPDATED (data/geom_opt_PO_BP86/13831/13831.en.tmp) ****
Finished Guess after   0.6 sec
Maximum memory used throughout the entire GUESS-calculation: 25.7 MB


           ************************************************************
           *        Program running with 6 parallel MPI-processes     *
           *              working on a common directory               *
           ************************************************************

-------------------------------------------------------------------------------------------
                                      ORCA LEAN-SCF
                              memory conserving SCF solver
-------------------------------------------------------------------------------------------

----------------------------------------D-I-I-S--------------------------------------------
Iteration    Energy (Eh)           Delta-E    RMSDP     MaxDP     DIISErr   Damp  Time(sec)
-------------------------------------------------------------------------------------------
               ***  Starting incremental Fock matrix formation  ***
    1    -889.1151865483752772     0.00e+00  3.60e-03  1.48e-01  3.38e-01  0.700   0.7
    2    -889.3916419678334933    -2.76e-01  2.19e-03  7.19e-02  8.65e-02  0.700   0.7
                               ***Turning on AO-DIIS***
    3    -889.4778434342745186    -8.62e-02  7.34e-04  2.13e-02  2.60e-02  0.700   0.7
    4    -889.5338003759563890    -5.60e-02  1.14e-03  3.78e-02  1.24e-02  0.000   0.7
    5    -889.6612106171380674    -1.27e-01  3.22e-04  7.21e-03  9.30e-03  0.000   0.7
                              *** Initializing SOSCF ***
---------------------------------------S-O-S-C-F--------------------------------------
Iteration    Energy (Eh)           Delta-E    RMSDP     MaxDP     MaxGrad    Time(sec)
--------------------------------------------------------------------------------------
    6    -889.6626774346179900    -1.47e-03  1.17e-04  2.58e-03  2.00e-03     0.7
               *** Restarting incremental Fock matrix formation ***
    7    -889.6627901247904902    -1.13e-04  1.01e-04  2.80e-03  3.63e-04     0.8
    8    -889.6627873936654396     2.73e-06  3.98e-05  1.41e-03  6.36e-04     0.7
    9    -889.6628038175119855    -1.64e-05  2.63e-05  1.09e-03  1.90e-04     0.7
   10    -889.6628010873328094     2.73e-06  1.73e-05  6.76e-04  3.18e-04     0.6
   11    -889.6628046606981570    -3.57e-06  3.72e-06  7.07e-05  1.60e-05     0.6
   12    -889.6628046461808026     1.45e-08  1.66e-06  5.28e-05  2.26e-05     0.6
   13    -889.6628046877940506    -4.16e-08  7.28e-07  2.70e-05  3.50e-06     0.7
   14    -889.6628046916191579    -3.83e-09  3.69e-07  2.10e-05  3.06e-06     0.6
                 **** Energy Check signals convergence ****

               *****************************************************
               *                     SUCCESS                       *
               *           SCF CONVERGED AFTER  14 CYCLES          *
               *****************************************************

             **** ENERGY FILE WAS UPDATED (data/geom_opt_PO_BP86/13831/13831.en.tmp) ****

----------------
TOTAL SCF ENERGY
----------------

Total Energy       :       -889.66280469161916 Eh          -24208.95568 eV

Components:
Nuclear Repulsion  :       1076.55490027590668 Eh           29294.54814 eV
Electronic Energy  :      -1966.21770496752583 Eh          -53503.50382 eV
One Electron Energy:      -3350.68414124410447 Eh          -91176.75082 eV
Two Electron Energy:       1384.46643627657863 Eh           37673.24700 eV

Virial components:
Potential Energy   :      -1771.77139865333538 Eh          -48212.35083 eV
Kinetic Energy     :        882.10859396171622 Eh           24003.39515 eV
Virial Ratio       :          2.00856381037620

DFT components:
N(Alpha)           :       61.000049537302 electrons
N(Beta)            :       61.000049537302 electrons
N(Total)           :      122.000099074604 electrons
E(X)               :     -102.722621745006 Eh       
E(C)               :       -4.471100624150 Eh       
E(XC)              :     -107.193722369156 Eh       

---------------
SCF CONVERGENCE
---------------

  Last Energy change         ...    3.8251e-09  Tolerance :   1.0000e-08
  Last MAX-Density change    ...    2.1033e-05  Tolerance :   1.0000e-07
  Last RMS-Density change    ...    3.6875e-07  Tolerance :   5.0000e-09
  Last DIIS Error            ...    2.0002e-03  Tolerance :   5.0000e-07
  Last Orbital Gradient      ...    3.0616e-06  Tolerance :   1.0000e-05
  Last Orbital Rotation      ...    3.7145e-06  Tolerance :   1.0000e-05


----------------
ORBITAL ENERGIES
----------------

  NO   OCC          E(Eh)            E(eV) 
   0   2.0000     -76.389530     -2078.6648 
   1   2.0000     -18.695293      -508.7248 
   2   2.0000      -9.912321      -269.7280 
   3   2.0000      -9.912319      -269.7279 
   4   2.0000      -9.912314      -269.7278 
   5   2.0000      -9.911548      -269.7069 
   6   2.0000      -9.911543      -269.7068 
   7   2.0000      -9.911504      -269.7057 
   8   2.0000      -9.909812      -269.6597 
   9   2.0000      -9.909811      -269.6597 
  10   2.0000      -9.909807      -269.6596 
  11   2.0000      -9.901791      -269.4414 
  12   2.0000      -9.901791      -269.4414 
  13   2.0000      -9.901791      -269.4414 
  14   2.0000      -6.351670      -172.8377 
  15   2.0000      -4.572608      -124.4270 
  16   2.0000      -4.572607      -124.4270 
  17   2.0000      -4.572545      -124.4253 
  18   2.0000      -0.839808       -22.8523 
  19   2.0000      -0.734635       -19.9904 
  20   2.0000      -0.726507       -19.7693 
  21   2.0000      -0.726505       -19.7692 
  22   2.0000      -0.682986       -18.5850 
  23   2.0000      -0.658761       -17.9258 
  24   2.0000      -0.658758       -17.9257 
  25   2.0000      -0.596388       -16.2285 
  26   2.0000      -0.566347       -15.4111 
  27   2.0000      -0.566345       -15.4110 
  28   2.0000      -0.522718       -14.2239 
  29   2.0000      -0.522667       -14.2225 
  30   2.0000      -0.522664       -14.2224 
  31   2.0000      -0.466337       -12.6897 
  32   2.0000      -0.434514       -11.8237 
  33   2.0000      -0.434513       -11.8237 
  34   2.0000      -0.432389       -11.7659 
  35   2.0000      -0.402523       -10.9532 
  36   2.0000      -0.402522       -10.9532 
  37   2.0000      -0.393949       -10.7199 
  38   2.0000      -0.382981       -10.4214 
  39   2.0000      -0.382979       -10.4214 
  40   2.0000      -0.377096       -10.2613 
  41   2.0000      -0.366944        -9.9851 
  42   2.0000      -0.366943        -9.9850 
  43   2.0000      -0.349246        -9.5035 
  44   2.0000      -0.336121        -9.1463 
  45   2.0000      -0.336120        -9.1463 
  46   2.0000      -0.327364        -8.9080 
  47   2.0000      -0.315442        -8.5836 
  48   2.0000      -0.315441        -8.5836 
  49   2.0000      -0.306670        -8.3449 
  50   2.0000      -0.303384        -8.2555 
  51   2.0000      -0.301463        -8.2032 
  52   2.0000      -0.301461        -8.2032 
  53   2.0000      -0.292638        -7.9631 
  54   2.0000      -0.288873        -7.8606 
  55   2.0000      -0.288871        -7.8606 
  56   2.0000      -0.279768        -7.6129 
  57   2.0000      -0.279766        -7.6128 
  58   2.0000      -0.278967        -7.5911 
  59   2.0000      -0.201240        -5.4760 
  60   2.0000      -0.201238        -5.4760 
  61   0.0000       0.021925         0.5966 
  62   0.0000       0.036298         0.9877 
  63   0.0000       0.036306         0.9879 
  64   0.0000       0.048056         1.3077 
  65   0.0000       0.053259         1.4493 
  66   0.0000       0.053266         1.4494 
  67   0.0000       0.061694         1.6788 
  68   0.0000       0.072722         1.9789 
  69   0.0000       0.072725         1.9789 
  70   0.0000       0.073789         2.0079 
  71   0.0000       0.086928         2.3654 
*Only the first 10 virtual orbitals were printed.

                    ********************************
                    * MULLIKEN POPULATION ANALYSIS *
                    ********************************

-----------------------
MULLIKEN ATOMIC CHARGES
-----------------------
   0 C :   -0.021169
   1 C :   -0.046979
   2 C :   -0.025083
   3 C :   -0.104966
   4 P :    0.418484
   5 O :   -0.474447
   6 C :   -0.104708
   7 C :   -0.025201
   8 C :   -0.046969
   9 C :   -0.021140
  10 C :   -0.104670
  11 C :   -0.025113
  12 C :   -0.047153
  13 C :   -0.020983
  14 H :    0.023682
  15 H :    0.021732
  16 H :    0.026867
  17 H :    0.010152
  18 H :    0.016903
  19 H :    0.013204
  20 H :    0.037640
  21 H :    0.043182
  22 H :    0.023435
  23 H :    0.023375
  24 H :    0.043141
  25 H :    0.013231
  26 H :    0.037630
  27 H :    0.010153
  28 H :    0.016880
  29 H :    0.021733
  30 H :    0.023699
  31 H :    0.026840
  32 H :    0.023285
  33 H :    0.043177
  34 H :    0.013179
  35 H :    0.037697
  36 H :    0.010282
  37 H :    0.016844
  38 H :    0.023683
  39 H :    0.026786
  40 H :    0.021686
Sum of atomic charges:   -0.0000000

--------------------------------
MULLIKEN REDUCED ORBITAL CHARGES
--------------------------------
  0 C s       :     2.991201  s :     2.991201
      pz      :     1.011042  p :     3.003203
      px      :     0.999686
      py      :     0.992475
      dz2     :     0.008951  d :     0.026765
      dxz     :     0.002686
      dyz     :     0.002983
      dx2y2   :     0.008439
      dxy     :     0.003706

  1 C s       :     3.025072  s :     3.025072
      pz      :     1.007192  p :     2.986763
      px      :     1.012803
      py      :     0.966769
      dz2     :     0.010508  d :     0.035144
      dxz     :     0.002854
      dyz     :     0.005423
      dx2y2   :     0.009201
      dxy     :     0.007158

  2 C s       :     3.028543  s :     3.028543
      pz      :     1.030120  p :     2.961835
      px      :     0.991128
      py      :     0.940587
      dz2     :     0.009949  d :     0.034706
      dxz     :     0.002926
      dyz     :     0.005597
      dx2y2   :     0.008830
      dxy     :     0.007405

  3 C s       :     3.023416  s :     3.023416
      pz      :     1.002846  p :     3.054203
      px      :     1.041171
      py      :     1.010186
      dz2     :     0.009028  d :     0.027348
      dxz     :     0.002812
      dyz     :     0.003357
      dx2y2   :     0.008068
      dxy     :     0.004083

  4 P s       :     5.275252  s :     5.275252
      pz      :     2.852157  p :     8.806510
      px      :     2.978117
      py      :     2.976236
      dz2     :     0.099148  d :     0.499754
      dxz     :     0.151487
      dyz     :     0.131946
      dx2y2   :     0.067909
      dxy     :     0.049264

  5 O s       :     3.819417  s :     3.819417
      pz      :     1.349989  p :     4.642862
      px      :     1.648650
      py      :     1.644223
      dz2     :     0.005084  d :     0.012167
      dxz     :     0.003423
      dyz     :     0.003513
      dx2y2   :     0.000065
      dxy     :     0.000083

  6 C s       :     3.023329  s :     3.023329
      pz      :     1.012816  p :     3.054032
      px      :     1.007030
      py      :     1.034187
      dz2     :     0.007936  d :     0.027347
      dxz     :     0.005196
      dyz     :     0.002119
      dx2y2   :     0.006459
      dxy     :     0.005637

  7 C s       :     3.028616  s :     3.028616
      pz      :     1.028292  p :     2.961878
      px      :     0.929930
      py      :     1.003656
      dz2     :     0.010061  d :     0.034707
      dxz     :     0.006172
      dyz     :     0.002524
      dx2y2   :     0.009693
      dxy     :     0.006257

  8 C s       :     3.025060  s :     3.025060
      pz      :     1.006301  p :     2.986765
      px      :     0.973404
      py      :     1.007060
      dz2     :     0.010405  d :     0.035144
      dxz     :     0.006170
      dyz     :     0.002520
      dx2y2   :     0.009498
      dxy     :     0.006551

  9 C s       :     2.991195  s :     2.991195
      pz      :     1.009761  p :     3.003180
      px      :     0.985020
      py      :     1.008399
      dz2     :     0.007670  d :     0.026765
      dxz     :     0.004939
      dyz     :     0.002237
      dx2y2   :     0.006038
      dxy     :     0.005882

 10 C s       :     3.023347  s :     3.023347
      pz      :     1.004022  p :     3.053977
      px      :     1.023431
      py      :     1.026524
      dz2     :     0.007627  d :     0.027346
      dxz     :     0.003062
      dyz     :     0.004416
      dx2y2   :     0.004712
      dxy     :     0.007528

 11 C s       :     3.028584  s :     3.028584
      pz      :     1.031128  p :     2.961821
      px      :     0.975420
      py      :     0.955274
      dz2     :     0.009876  d :     0.034707
      dxz     :     0.004335
      dyz     :     0.004186
      dx2y2   :     0.006789
      dxy     :     0.009521

 12 C s       :     3.025111  s :     3.025111
      pz      :     1.004633  p :     2.986897
      px      :     0.984560
      py      :     0.997703
      dz2     :     0.010217  d :     0.035145
      dxz     :     0.004291
      dyz     :     0.004284
      dx2y2   :     0.006753
      dxy     :     0.009600

 13 C s       :     2.991124  s :     2.991124
      pz      :     1.013970  p :     3.003095
      px      :     1.002253
      py      :     0.986872
      dz2     :     0.007495  d :     0.026764
      dxz     :     0.003266
      dyz     :     0.003874
      dx2y2   :     0.004986
      dxy     :     0.007143

 14 H s       :     0.953580  s :     0.953580
      pz      :     0.005844  p :     0.022739
      px      :     0.005200
      py      :     0.011695

 15 H s       :     0.955328  s :     0.955328
      pz      :     0.005674  p :     0.022939
      px      :     0.011783
      py      :     0.005482

 16 H s       :     0.950210  s :     0.950210
      pz      :     0.012748  p :     0.022924
      px      :     0.005021
      py      :     0.005155

 17 H s       :     0.968004  s :     0.968004
      pz      :     0.012423  p :     0.021844
      px      :     0.005064
      py      :     0.004357

 18 H s       :     0.961240  s :     0.961240
      pz      :     0.005523  p :     0.021858
      px      :     0.011380
      py      :     0.004955

 19 H s       :     0.964546  s :     0.964546
      pz      :     0.005661  p :     0.022250
      px      :     0.011593
      py      :     0.004995

 20 H s       :     0.940376  s :     0.940376
      pz      :     0.012948  p :     0.021984
      px      :     0.004846
      py      :     0.004191

 21 H s       :     0.933403  s :     0.933403
      pz      :     0.005717  p :     0.023415
      px      :     0.011945
      py      :     0.005753

 22 H s       :     0.953455  s :     0.953455
      pz      :     0.012855  p :     0.023110
      px      :     0.004932
      py      :     0.005323

 23 H s       :     0.953513  s :     0.953513
      pz      :     0.012603  p :     0.023112
      px      :     0.004749
      py      :     0.005761

 24 H s       :     0.933444  s :     0.933444
      pz      :     0.005433  p :     0.023415
      px      :     0.005169
      py      :     0.012813

 25 H s       :     0.964520  s :     0.964520
      pz      :     0.005277  p :     0.022249
      px      :     0.004703
      py      :     0.012269

 26 H s       :     0.940388  s :     0.940388
      pz      :     0.012733  p :     0.021983
      px      :     0.004042
      py      :     0.005208

 27 H s       :     0.968005  s :     0.968005
      pz      :     0.012133  p :     0.021842
      px      :     0.004383
      py      :     0.005326

 28 H s       :     0.961263  s :     0.961263
      pz      :     0.005050  p :     0.021856
      px      :     0.004569
      py      :     0.012237

 29 H s       :     0.955327  s :     0.955327
      pz      :     0.005441  p :     0.022940
      px      :     0.005219
      py      :     0.012280

 30 H s       :     0.953563  s :     0.953563
      pz      :     0.006926  p :     0.022738
      px      :     0.008301
      py      :     0.007511

 31 H s       :     0.950235  s :     0.950235
      pz      :     0.012394  p :     0.022925
      px      :     0.004646
      py      :     0.005885

 32 H s       :     0.953602  s :     0.953602
      pz      :     0.012967  p :     0.023114
      px      :     0.005604
      py      :     0.004543

 33 H s       :     0.933405  s :     0.933405
      pz      :     0.006104  p :     0.023418
      px      :     0.009452
      py      :     0.007862

 34 H s       :     0.964572  s :     0.964572
      pz      :     0.005936  p :     0.022249
      px      :     0.008701
      py      :     0.007612

 35 H s       :     0.940320  s :     0.940320
      pz      :     0.013169  p :     0.021984
      px      :     0.004475
      py      :     0.004340

 36 H s       :     0.967877  s :     0.967877
      pz      :     0.012526  p :     0.021841
      px      :     0.004605
      py      :     0.004710

 37 H s       :     0.961301  s :     0.961301
      pz      :     0.005711  p :     0.021855
      px      :     0.008755
      py      :     0.007389

 38 H s       :     0.953579  s :     0.953579
      pz      :     0.006708  p :     0.022738
      px      :     0.010904
      py      :     0.005126

 39 H s       :     0.950288  s :     0.950288
      pz      :     0.012704  p :     0.022926
      px      :     0.005631
      py      :     0.004591

 40 H s       :     0.955373  s :     0.955373
      pz      :     0.006119  p :     0.022941
      px      :     0.008855
      py      :     0.007967



                     *******************************
                     * LOEWDIN POPULATION ANALYSIS *
                     *******************************

----------------------
LOEWDIN ATOMIC CHARGES
----------------------
   0 C :   -0.067443
   1 C :   -0.045732
   2 C :   -0.046331
   3 C :   -0.189914
   4 P :    0.851685
   5 O :   -0.508075
   6 C :   -0.189872
   7 C :   -0.046342
   8 C :   -0.045732
   9 C :   -0.067442
  10 C :   -0.189855
  11 C :   -0.046328
  12 C :   -0.045758
  13 C :   -0.067414
  14 H :    0.026900
  15 H :    0.024663
  16 H :    0.027114
  17 H :    0.021054
  18 H :    0.023837
  19 H :    0.020430
  20 H :    0.032208
  21 H :    0.033125
  22 H :    0.025543
  23 H :    0.025528
  24 H :    0.033111
  25 H :    0.020440
  26 H :    0.032204
  27 H :    0.021052
  28 H :    0.023839
  29 H :    0.024664
  30 H :    0.026902
  31 H :    0.027107
  32 H :    0.025511
  33 H :    0.033121
  34 H :    0.020431
  35 H :    0.032214
  36 H :    0.021075
  37 H :    0.023831
  38 H :    0.026898
  39 H :    0.027095
  40 H :    0.024656

-------------------------------
LOEWDIN REDUCED ORBITAL CHARGES
-------------------------------
  0 C s       :     2.839553  s :     2.839553
      pz      :     1.061782  p :     3.157680
      px      :     1.049921
      py      :     1.045976
      dz2     :     0.022874  d :     0.070211
      dxz     :     0.007288
      dyz     :     0.007957
      dx2y2   :     0.021015
      dxy     :     0.011078

  1 C s       :     2.839529  s :     2.839529
      pz      :     1.053194  p :     3.117587
      px      :     1.050093
      py      :     1.014299
      dz2     :     0.026670  d :     0.088617
      dxz     :     0.007512
      dyz     :     0.013013
      dx2y2   :     0.023534
      dxy     :     0.017887

  2 C s       :     2.839346  s :     2.839346
      pz      :     1.066611  p :     3.118668
      px      :     1.040081
      py      :     1.011975
      dz2     :     0.025343  d :     0.088317
      dxz     :     0.007648
      dyz     :     0.013220
      dx2y2   :     0.023301
      dxy     :     0.018805

  3 C s       :     2.886717  s :     2.886717
      pz      :     1.069897  p :     3.231442
      px      :     1.071637
      py      :     1.089908
      dz2     :     0.023448  d :     0.071755
      dxz     :     0.007340
      dyz     :     0.008524
      dx2y2   :     0.020751
      dxy     :     0.011692

  4 P s       :     4.927325  s :     4.927325
      pz      :     2.785031  p :     8.521421
      px      :     2.868817
      py      :     2.867572
      dz2     :     0.143340  d :     0.699570
      dxz     :     0.211425
      dyz     :     0.179905
      dx2y2   :     0.097821
      dxy     :     0.067080

  5 O s       :     3.653473  s :     3.653473
      pz      :     1.490613  p :     4.835720
      px      :     1.673912
      py      :     1.671194
      dz2     :     0.010497  d :     0.018882
      dxz     :     0.003943
      dyz     :     0.004259
      dx2y2   :     0.000080
      dxy     :     0.000103

  6 C s       :     2.886715  s :     2.886715
      pz      :     1.076003  p :     3.231400
      px      :     1.066586
      py      :     1.088811
      dz2     :     0.020810  d :     0.071757
      dxz     :     0.013147
      dyz     :     0.005656
      dx2y2   :     0.018517
      dxy     :     0.013627

  7 C s       :     2.839346  s :     2.839346
      pz      :     1.064538  p :     3.118678
      px      :     1.000349
      py      :     1.053791
      dz2     :     0.024941  d :     0.088317
      dxz     :     0.015625
      dyz     :     0.006561
      dx2y2   :     0.025689
      dxy     :     0.015501

  8 C s       :     2.839529  s :     2.839529
      pz      :     1.049634  p :     3.117586
      px      :     1.016643
      py      :     1.051309
      dz2     :     0.025858  d :     0.088617
      dxz     :     0.015798
      dyz     :     0.006572
      dx2y2   :     0.024354
      dxy     :     0.016034

  9 C s       :     2.839552  s :     2.839552
      pz      :     1.063466  p :     3.157678
      px      :     1.028894
      py      :     1.065318
      dz2     :     0.019897  d :     0.070211
      dxz     :     0.012825
      dyz     :     0.005973
      dx2y2   :     0.017355
      dxy     :     0.014162

 10 C s       :     2.886714  s :     2.886714
      pz      :     1.075849  p :     3.231383
      px      :     1.098125
      py      :     1.057410
      dz2     :     0.020931  d :     0.071758
      dxz     :     0.008343
      dyz     :     0.009720
      dx2y2   :     0.013083
      dxy     :     0.019681

 11 C s       :     2.839348  s :     2.839348
      pz      :     1.070497  p :     3.118663
      px      :     1.035810
      py      :     1.012357
      dz2     :     0.025207  d :     0.088317
      dxz     :     0.011229
      dyz     :     0.009407
      dx2y2   :     0.017989
      dxy     :     0.024485

 12 C s       :     2.839530  s :     2.839530
      pz      :     1.053204  p :     3.117613
      px      :     1.031208
      py      :     1.033201
      dz2     :     0.026180  d :     0.088616
      dxz     :     0.011316
      dyz     :     0.009623
      dx2y2   :     0.017968
      dxy     :     0.023529

 13 C s       :     2.839549  s :     2.839549
      pz      :     1.066839  p :     3.157653
      px      :     1.061258
      py      :     1.029556
      dz2     :     0.020165  d :     0.070212
      dxz     :     0.008797
      dyz     :     0.008906
      dx2y2   :     0.013963
      dxy     :     0.018381

 14 H s       :     0.907283  s :     0.907283
      pz      :     0.015373  p :     0.065817
      px      :     0.013935
      py      :     0.036509

 15 H s       :     0.909743  s :     0.909743
      pz      :     0.014352  p :     0.065594
      px      :     0.036730
      py      :     0.014512

 16 H s       :     0.907149  s :     0.907149
      pz      :     0.039608  p :     0.065737
      px      :     0.013115
      py      :     0.013014

 17 H s       :     0.913064  s :     0.913064
      pz      :     0.039080  p :     0.065882
      px      :     0.013332
      py      :     0.013470

 18 H s       :     0.910290  s :     0.910290
[...]
      dz2     :     0.021418  d :     0.067099
      dxz     :     0.005681
      dyz     :     0.008822
      dx2y2   :     0.012605
      dxy     :     0.018573

 14 H s       :     0.907165  s :     0.907165
      pz      :     0.013270  p :     0.063406
      px      :     0.012823
      py      :     0.037313

 15 H s       :     0.909928  s :     0.909928
      pz      :     0.012981  p :     0.063128
      px      :     0.036995
      py      :     0.013152

 16 H s       :     0.907092  s :     0.907092
      pz      :     0.038016  p :     0.063332
      px      :     0.012742
      py      :     0.012574

 17 H s       :     0.913978  s :     0.913978
      pz      :     0.037049  p :     0.063044
      px      :     0.012829
      py      :     0.013166

 18 H s       :     0.911485  s :     0.911485
      pz      :     0.012900  p :     0.063061
      px      :     0.036351
      py      :     0.013809

 19 H s       :     0.913037  s :     0.913037
      pz      :     0.013253  p :     0.063825
      px      :     0.036536
      py      :     0.014036

 20 H s       :     0.899836  s :     0.899836
      pz      :     0.039878  p :     0.066359
      px      :     0.012645
      py      :     0.013837

 21 H s       :     0.897523  s :     0.897523
      pz      :     0.012835  p :     0.068783
      px      :     0.038307
      py      :     0.017640

 22 H s       :     0.902758  s :     0.902758
      pz      :     0.039680  p :     0.068980
      px      :     0.013407
      py      :     0.015893

 23 H s       :     0.902781  s :     0.902781
      pz      :     0.039333  p :     0.068975
      px      :     0.014500
      py      :     0.015142

 24 H s       :     0.897434  s :     0.897434
      pz      :     0.012713  p :     0.068761
      px      :     0.015362
      py      :     0.040686

 25 H s       :     0.913073  s :     0.913073
      pz      :     0.012699  p :     0.063831
      px      :     0.013610
      py      :     0.037522

 26 H s       :     0.899873  s :     0.899873
      pz      :     0.040519  p :     0.066373
      px      :     0.012722
      py      :     0.013132

 27 H s       :     0.913986  s :     0.913986
      pz      :     0.037219  p :     0.063043
      px      :     0.012537
      py      :     0.013288

 28 H s       :     0.911395  s :     0.911395
      pz      :     0.012251  p :     0.063071
      px      :     0.013638
      py      :     0.037182

 29 H s       :     0.909957  s :     0.909957
      pz      :     0.012292  p :     0.063125
      px      :     0.014340
      py      :     0.036493

 30 H s       :     0.907158  s :     0.907158
      pz      :     0.016010  p :     0.063406
      px      :     0.026876
      py      :     0.020519

 31 H s       :     0.907088  s :     0.907088
      pz      :     0.037753  p :     0.063335
      px      :     0.012253
      py      :     0.013329

 32 H s       :     0.902766  s :     0.902766
      pz      :     0.041026  p :     0.068973
      px      :     0.014992
      py      :     0.012955

 33 H s       :     0.897548  s :     0.897548
      pz      :     0.013600  p :     0.068768
      px      :     0.030210
      py      :     0.024958

 34 H s       :     0.913027  s :     0.913027
      pz      :     0.013973  p :     0.063817
      px      :     0.025842
      py      :     0.024001

 35 H s       :     0.899833  s :     0.899833
      pz      :     0.042170  p :     0.066374
      px      :     0.012334
      py      :     0.011870

 36 H s       :     0.913976  s :     0.913976
      pz      :     0.038519  p :     0.063046
      px      :     0.012323
      py      :     0.012204

 37 H s       :     0.911469  s :     0.911469
      pz      :     0.013612  p :     0.063064
      px      :     0.025424
      py      :     0.024028

 38 H s       :     0.907170  s :     0.907170
      pz      :     0.015304  p :     0.063405
      px      :     0.033264
      py      :     0.014837

 39 H s       :     0.907092  s :     0.907092
      pz      :     0.039105  p :     0.063334
      px      :     0.012077
      py      :     0.012151

 40 H s       :     0.909943  s :     0.909943
      pz      :     0.013784  p :     0.063125
      px      :     0.024031
      py      :     0.025310



                      *****************************
                      * MAYER POPULATION ANALYSIS *
                      *****************************

  NA   - Mulliken gross atomic population
  ZA   - Total nuclear charge
  QA   - Mulliken gross atomic charge
  VA   - Mayer's total valence
  BVA  - Mayer's bonded valence
  FA   - Mayer's free valence

  ATOM       NA         ZA         QA         VA         BVA        FA
  0 C      6.0437     6.0000    -0.0437     4.0203     4.0203    -0.0000
  1 C      6.0477     6.0000    -0.0477     4.1180     4.1180    -0.0000
  2 C      6.0383     6.0000    -0.0383     4.0619     4.0619    -0.0000
  3 C      6.1334     6.0000    -0.1334     3.8873     3.8873    -0.0000
  4 P     14.5510    15.0000     0.4490     4.8134     4.8134    -0.0000
  5 O      8.4757     8.0000    -0.4757     2.1144     2.1144    -0.0000
  6 C      6.1330     6.0000    -0.1330     3.8879     3.8879    -0.0000
  7 C      6.0387     6.0000    -0.0387     4.0618     4.0618    -0.0000
  8 C      6.0484     6.0000    -0.0484     4.1187     4.1187    -0.0000
  9 C      6.0436     6.0000    -0.0436     4.0202     4.0202    -0.0000
 10 C      6.1335     6.0000    -0.1335     3.8876     3.8876    -0.0000
 11 C      6.0381     6.0000    -0.0381     4.0618     4.0618    -0.0000
 12 C      6.0483     6.0000    -0.0483     4.1185     4.1185    -0.0000
 13 C      6.0435     6.0000    -0.0435     4.0200     4.0200    -0.0000
 14 H      0.9696     1.0000     0.0304     0.9821     0.9821    -0.0000
 15 H      0.9731     1.0000     0.0269     0.9883     0.9883    -0.0000
 16 H      0.9676     1.0000     0.0324     0.9891     0.9891    -0.0000
 17 H      0.9854     1.0000     0.0146     0.9756     0.9756     0.0000
 18 H      0.9798     1.0000     0.0202     0.9785     0.9785    -0.0000
 19 H      0.9801     1.0000     0.0199     0.9865     0.9865    -0.0000
 20 H      0.9551     1.0000     0.0449     1.0090     1.0090    -0.0000
 21 H      0.9533     1.0000     0.0467     0.9989     0.9989    -0.0000
 22 H      0.9640     1.0000     0.0360     0.9854     0.9854    -0.0000
 23 H      0.9640     1.0000     0.0360     0.9852     0.9852    -0.0000
 24 H      0.9533     1.0000     0.0467     0.9989     0.9989    -0.0000
 25 H      0.9800     1.0000     0.0200     0.9865     0.9865    -0.0000
 26 H      0.9550     1.0000     0.0450     1.0091     1.0091    -0.0000
 27 H      0.9853     1.0000     0.0147     0.9756     0.9756    -0.0000
 28 H      0.9795     1.0000     0.0205     0.9784     0.9784    -0.0000
 29 H      0.9731     1.0000     0.0269     0.9883     0.9883     0.0000
 30 H      0.9696     1.0000     0.0304     0.9821     0.9821    -0.0000
 31 H      0.9676     1.0000     0.0324     0.9891     0.9891    -0.0000
 32 H      0.9640     1.0000     0.0360     0.9853     0.9853    -0.0000
 33 H      0.9534     1.0000     0.0466     0.9989     0.9989    -0.0000
 34 H      0.9800     1.0000     0.0200     0.9864     0.9864    -0.0000
 35 H      0.9550     1.0000     0.0450     1.0091     1.0091    -0.0000
 36 H      0.9853     1.0000     0.0147     0.9756     0.9756    -0.0000
 37 H      0.9798     1.0000     0.0202     0.9785     0.9785    -0.0000
 38 H      0.9697     1.0000     0.0303     0.9821     0.9821    -0.0000
 39 H      0.9676     1.0000     0.0324     0.9891     0.9891    -0.0000
 40 H      0.9731     1.0000     0.0269     0.9883     0.9883    -0.0000

  Mayer bond orders larger than 0.100000
B(  0-C ,  1-C ) :   1.1146 B(  0-C , 14-H ) :   0.9618 B(  0-C , 15-H ) :   0.9658 
B(  0-C , 16-H ) :   0.9659 B(  1-C ,  2-C ) :   1.0851 B(  1-C , 17-H ) :   0.9387 
B(  1-C , 18-H ) :   0.9394 B(  2-C ,  3-C ) :   1.0611 B(  2-C , 19-H ) :   0.9363 
B(  2-C , 20-H ) :   0.9309 B(  3-C ,  4-P ) :   0.9169 B(  3-C , 21-H ) :   0.9202 
B(  3-C , 22-H ) :   0.9132 B(  4-P ,  5-O ) :   1.8510 B(  4-P ,  6-C ) :   0.9171 
B(  4-P , 10-C ) :   0.9168 B(  6-C ,  7-C ) :   1.0614 B(  6-C , 23-H ) :   0.9132 
B(  6-C , 24-H ) :   0.9201 B(  7-C ,  8-C ) :   1.0854 B(  7-C , 25-H ) :   0.9363 
B(  7-C , 26-H ) :   0.9307 B(  8-C ,  9-C ) :   1.1146 B(  8-C , 27-H ) :   0.9388 
B(  8-C , 28-H ) :   0.9394 B(  9-C , 29-H ) :   0.9658 B(  9-C , 30-H ) :   0.9618 
B(  9-C , 31-H ) :   0.9659 B( 10-C , 11-C ) :   1.0612 B( 10-C , 32-H ) :   0.9131 
B( 10-C , 33-H ) :   0.9201 B( 11-C , 12-C ) :   1.0852 B( 11-C , 34-H ) :   0.9363 
B( 11-C , 35-H ) :   0.9309 B( 12-C , 13-C ) :   1.1146 B( 12-C , 36-H ) :   0.9387 
B( 12-C , 37-H ) :   0.9394 B( 13-C , 38-H ) :   0.9618 B( 13-C , 39-H ) :   0.9659 
B( 13-C , 40-H ) :   0.9657 

-------
TIMINGS
-------

Total SCF time: 0 days 0 hours 0 min 4 sec 

Total time                  ....       4.136 sec
Sum of individual times     ....       4.057 sec  ( 98.1%)

SCF preparation             ....       0.114 sec  (  2.8%)
Fock matrix formation       ....       3.550 sec  ( 85.8%)
  Startup                   ....       0.018 sec  (  0.5% of F)
  Split-RI-J                ....       1.182 sec  ( 33.3% of F)
  XC integration            ....       2.276 sec  ( 64.1% of F)
    Basis function eval.    ....       0.693 sec  ( 30.4% of XC)
    Density eval.           ....       0.610 sec  ( 26.8% of XC)
    XC-Functional eval.     ....       0.065 sec  (  2.9% of XC)
    XC-Potential eval.      ....       0.496 sec  ( 21.8% of XC)
Diagonalization             ....       0.000 sec  (  0.0%)
Density matrix formation    ....       0.044 sec  (  1.1%)
Total Energy calculation    ....       0.019 sec  (  0.5%)
Population analysis         ....       0.082 sec  (  2.0%)
Orbital Transformation      ....       0.031 sec  (  0.7%)
Orbital Orthonormalization  ....       0.000 sec  (  0.0%)
DIIS solution               ....       0.040 sec  (  1.0%)
SOSCF solution              ....       0.177 sec  (  4.3%)
Finished LeanSCF after   4.2 sec

Maximum memory used throughout the entire LEANSCF-calculation: 35.5 MB


-------------------------------------------------------------------------------
                          DFT DISPERSION CORRECTION                            
                                                                               
                              DFTD3 V3.1  Rev 1                                
                          USING Becke-Johnson damping                          
-------------------------------------------------------------------------------
The BP86 functional is recognized
Active option DFTDOPT                   ...         4   

molecular C6(AA) [au] = 13049.847197 


            DFT-D V3
 parameters
 s6 scaling factor         :     1.0000 
 a1 scaling factor         :     0.3946 
 s8 scaling factor         :     3.2822 
 a2 scaling factor         :     4.8516 
 ad hoc parameters k1-k3   :    16.0000     1.3333    -4.0000 

 Edisp/kcal,au: -39.416675908819  -0.062814464695 
 E6   /kcal   : -15.444628992 
 E8   /kcal   : -23.972046917 
 % E8         :  60.817018087 

-------------------------   ----------------
Dispersion correction           -0.062814465
-------------------------   ----------------


-------------------------   --------------------
FINAL SINGLE POINT ENERGY      -889.737131296514
-------------------------   --------------------

                                *** OPTIMIZATION RUN DONE ***



           ************************************************************
           *        Program running with 6 parallel MPI-processes     *
           *              working on a common directory               *
           ************************************************************

------------------------------------------------------------------------------
                              ORCA PROPERTY CALCULATIONS
------------------------------------------------------------------------------

GBWName                                 ... data/geom_opt_PO_BP86/13831/13831.gbw
Number of atoms                         ...     41
Number of basis functions               ...    335
Max core memory                         ...   1024 MB

Electric properties:
Dipole moment                           ... YES
Quadrupole moment                       ...  NO
Static polarizability (Dipole/Dipole)   ...  NO
Static polarizability (Dipole/Quad.)    ...  NO
Static polarizability (Quad./Quad.)     ...  NO
Static polarizability (Velocity)        ...  NO

Atomic electric properties:
Dipole moment                           ...  NO
Quadrupole moment                       ...  NO
Static polarizability                   ...  NO

Choice of electric origin               ... Center of mass
Position of electric origin             ...     0.001677    -0.026266    -0.400755

General magnetic properties:
Magnetizability                         ...  NO

EPR properties:
g-Tensor (aka g-matrix)                 ...  NO
Zero-Field splitting spin-orbit         ...  NO
Zero-field splitting spin-spin          ...  NO
Hyperfine couplings                     ...  NO (   0 nuclei)
Quadrupole couplings                    ...  NO (   0 nuclei)
Contact density                         ...  NO (   0 nuclei)

NMR properties:
Chemical shifts                         ...  NO (   0 nuclei)
Spin-rotation constants                 ...  NO (   0 nuclei)
Spin-spin couplings                     ...  NO (   0 nuclei,    0 pairs)

Choice of magnetic origin               ... GIAO
Position of magnetic origin             ...     0.000000     0.000000     0.000000

Properties with geometric perturbations:
SCF Hessian                             ...  NO
IR spectrum                             ...  NO
VCD spectrum                            ...  NO
X-ray spectroscopy properties:
SCF XES/XAS/RIXS spectra                ...  NO


-------------
DIPOLE MOMENT
-------------

Method             : SCF
Type of density    : Electron Density
Multiplicity       :   1
Irrep              :   0
Energy             :  -889.6743168318191692 Eh
Relativity type    : 
Basis              : AO
                                X                 Y                 Z
Electronic contribution:      0.025190462      -0.342718066      -2.659272267
Nuclear contribution   :     -0.032671908       0.505393374       3.986972561
                        -----------------------------------------
Total Dipole Moment    :     -0.007481446       0.162675309       1.327700294
                        -----------------------------------------
Magnitude (a.u.)       :      1.337649917
Magnitude (Debye)      :      3.400035883



--------------------
Rotational spectrum 
--------------------
 
Rotational constants in cm-1:             0.012417             0.012383             0.006655 
Rotational constants in MHz :           372.241853           371.218511           199.526734 

Dipole components along the rotational axes: 
x,y,z [a.u.] :     0.002201    -0.000412     1.337648 
x,y,z [Debye]:     0.005594    -0.001048     3.400031 

 

Dipole moment calculation done in   0.0 sec 

Maximum memory used throughout the entire PROP-calculation: 17.2 MB

--------------------------------
SUGGESTED CITATIONS FOR THIS RUN
--------------------------------

Below you find a list of papers that are relevant to this ORCA run
We neither can nor want to force you to cite these papers, but we appreciate if you do
You receive ORCA, which is the product of decades of hard work by many enthusiastic individuals, for free
The only thing we kindly ask in return is that you cite our papers,
We deeply appreciate it, if you show your appreciation for ORCA by not just citing the generic ORCA reference.

Please note that relegating all ORCA citations to the supporting information does *not* help us.
SI sections are not indexed - citations you put there will not count into any citation statistics
But we need these citations in order to attract the funding resources that allow us to do what we are doing

Therefore, if you are a happy ORCA user, please consider citing a few of the papers listed below in the main body of your paper

In addition to the list printed below, the program has created the file data/geom_opt_PO_BP86/13831/13831.bibtex that contains the list in bibtex format
You can import this file easily into all common literature databanks and citation aid programs


List of essential papers. We consider these as the minimum necessary citations

  1. Neese,F.
     Software update: the ORCA program system, version 5.0
     WIRES Comput. Molec. Sci., 2022 12(1)e1606
     doi.org/10.1002/wcms.1606

List of papers to cite with high priority. The work reported in these papers was absolutely
necessary for this run to complete.
Our perspective: the developers of density functionals and basis sets usually get cited in chemistry papers
Good! But without the algorithms to do something with them, the functionals or basis sets would not do anything.
Hence, in our opinion, the algorithm design and method developments papers are equally worthy of getting cited

  1. Neese,F.
     An improvement of the resolution of the identity approximation for the formation of the Coulomb matrix
     J. Comp. Chem., 2003 24(14)1740-1747
     doi.org/10.1002/jcc.10318
  2. Neese,F.
     The SHARK Integral Generation and Digestion System
     J. Comp. Chem., 2022  1-16
     doi.org/10.1002/jcc.26942
  3. Grimme,S.; Antony,J.; Ehrlich,S.; Krieg,H.
     A consistent and accurate ab initio parametrization of density functional dispersion correction (DFT-D) for the 94 elements H-Pu
     J. Chem. Phys., 2010 132 154104-XXXX
     doi.org/10.1063/1.3382344
  4. Grimme,S.; Ehrlich,S.; Goerigk,L.
     Effect of the damping function in dispersion corrected density functional theory
     J. Comput. Chem., 2011 32(7)1456-1465
     doi.org/10.1002/jcc.21759

List of suggested additional citations. These are papers that are important in the 'surrounding' of 
of this run, or papers that preceded the highly important papers. If you like your results we are grateful for a citation.

  1. Neese,F.
     The ORCA program system
     WIRES Comput. Molec. Sci., 2012 2(1)73-78
     doi.org/10.1002/wcms.81
  2. Neese,F.
     Software update: the ORCA program system, version 4.0
     WIRES Comput. Molec. Sci., 2018 8(1)1-6
     doi.org/10.1002/wcms.1327
  3. Neese,F.; Wennmohs,F.; Becker,U.; Riplinger,C.
     The ORCA quantum chemistry program package
     J. Chem. Phys., 2020 152 Art. No. L224108
     doi.org/10.1063/5.0004608

List of optional additional citations

  1. Neese,F.
     Approximate second-order SCF convergence for spin unrestricted wavefunctions
     Chem. Phys. Lett., 2000 325(1-3)93-98
     doi.org/10.1016/s0009-2614(00)00662-x

Timings for individual modules:

Sum of individual times          ...       96.611 sec (=   1.610 min)
Startup calculation              ...        9.575 sec (=   0.160 min)   9.9 %
SCF iterations                   ...       53.081 sec (=   0.885 min)  54.9 %
Property calculations            ...        0.164 sec (=   0.003 min)   0.2 %
SCF Gradient evaluation          ...       33.653 sec (=   0.561 min)  34.8 %
Geometry relaxation              ...        0.138 sec (=   0.002 min)   0.1 %
                             ****ORCA TERMINATED NORMALLY****
TOTAL RUN TIME: 0 days 0 hours 1 minutes 38 seconds 117 msec
