
                                 *****************
                                 * O   R   C   A *
                                 *****************

                                            #,                                       
                                            ###                                      
                                            ####                                     
                                            #####                                    
                                            ######                                   
                                           ########,                                 
                                     ,,################,,,,,                         
                               ,,#################################,,                 
                          ,,##########################################,,             
                       ,#########################################, ''#####,          
                    ,#############################################,,   '####,        
                  ,##################################################,,,,####,       
                ,###########''''           ''''###############################       
              ,#####''   ,,,,##########,,,,          '''####'''          '####       
            ,##' ,,,,###########################,,,                        '##       
           ' ,,###''''                  '''############,,,                           
         ,,##''                                '''############,,,,        ,,,,,,###''
      ,#''                                            '''#######################'''  
     '                                                          ''''####''''         
             ,#######,   #######,   ,#######,      ##                                
            ,#'     '#,  ##    ##  ,#'     '#,    #''#        ,####,   ,####,        
            ##       ##  ##   ,#'  ##            #'  '#       #'       #'  '#        
            ##       ##  #######   ##           ,######,      #####,   #    #        
            '#,     ,#'  ##    ##  '#,     ,#' ,#      #,     #,   #   #,  ,#        
             '#######'   ##     ##  '#######'  #'      '#     '####' # '####'        



                #########################################################
                #                        -***-                          #
                #          Department of theory and spectroscopy        #
                #                                                       #
                #                      Frank Neese                      #
                #                                                       #
                #     Directorship, Architecture, Infrastructure        #
                #                    SHARK, DRIVERS                     #
                #        Core code/Algorithms in most modules           #
                #                                                       #
                #        Max Planck Institute fuer Kohlenforschung      #
                #                Kaiser Wilhelm Platz 1                 #
                #                 D-45470 Muelheim/Ruhr                 #
                #                      Germany                          #
                #                                                       #
                #                  All rights reserved                  #
                #                        -***-                          #
                #########################################################


                         Program Version 6.0.0  -   RELEASE   -


 With contributions from (in alphabetic order):
   Daniel Aravena         : Magnetic Suceptibility
   Michael Atanasov       : Ab Initio Ligand Field Theory (pilot matlab implementation)
   Alexander A. Auer      : GIAO ZORA, VPT2 properties, NMR spectrum
   Ute Becker             : All parallelization in ORCA, NUMFREQ, NUMCALC
   Giovanni Bistoni       : ED, misc. LED, open-shell LED, HFLD
   Martin Brehm           : Molecular dynamics
   Dmytro Bykov           : pre 5.0 version of the SCF Hessian
   Marcos Casanova-Páez   : Triplet and SCS-CIS(D). UHF-(DLPNO)-IP/EA/STEOM-CCSD. UHF-CVS-IP/STEOM-CCSD
   Vijay G. Chilkuri      : MRCI spin determinant printing, contributions to CSF-ICE
   Pauline Colinet        : FMM embedding
   Dipayan Datta          : RHF DLPNO-CCSD density
   Achintya Kumar Dutta   : EOM-CC, STEOM-CC
   Nicolas Foglia         : Exact transition moments, OPA infrastructure, MCD improvements
   Dmitry Ganyushin       : Spin-Orbit,Spin-Spin,Magnetic field MRCI
   Miquel Garcia          : C-PCM and meta-GGA Hessian, CCSD/C-PCM, Gaussian charge scheme
   Tiago L. C. Gouveia    : GS-ROHF, GS-ROCIS
   Yang Guo               : DLPNO-NEVPT2, F12-NEVPT2, CIM, IAO-localization
   Andreas Hansen         : Spin unrestricted coupled pair/coupled cluster methods
   Ingolf Harden          : AUTO-CI MPn and infrastructure 
   Benjamin Helmich-Paris : MC-RPA, TRAH-(SCF,CASSCF), AVAS, COSX integrals, SCF dyn. polar.
   Lee Huntington         : MR-EOM, pCC
   Robert Izsak           : Overlap fitted RIJCOSX, COSX-SCS-MP3, EOM
   Riya Kayal             : Wick's Theorem for AUTO-CI, AUTO-CI UHF-CCSDT
   Emily Kempfer          : AUTO-CI, RHF CISDT and CCSDT
   Christian Kollmar      : KDIIS, OOCD, Brueckner-CCSD(T), CCSD density, CASPT2, CASPT2-K, improved NEVPT2
   Axel Koslowski         : Symmetry handling
   Simone Kossmann        : Meta GGA functionals, TD-DFT gradient, OOMP2, (MP2 Hessian; deprecated post 5.0)
   Lucas Lang             : DCDCAS
   Marvin Lechner         : AUTO-CI (C++ implementation), FIC-MRCC
   Spencer Leger          : CASSCF response
   Dagmar Lenk            : GEPOL surface, SMD, ORCA-2-JSON
   Dimitrios Liakos       : Extrapolation schemes; Compound Job, initial MDCI parallelization
   Dimitrios Manganas     : Further ROCIS development; embedding schemes. LFT, Crystal Embedding
   Dimitrios Pantazis     : SARC Basis sets
   Anastasios Papadopoulos: AUTO-CI, single reference methods and gradients
   Taras Petrenko         : pre 6.0 DFT Hessian and TD-DFT gradient, (ASA, deprecated), ECA, 1-Electron XAS/XES, NRVS
   Peter Pinski           : DLPNO-MP2, DLPNO-MP2 Gradient
   Christoph Reimann      : Effective Core Potentials
   Marius Retegan         : Local ZFS, SOC
   Christoph Riplinger    : Optimizer, TS searches, QM/MM, DLPNO-CCSD(T), (RO)-DLPNO pert. Triples
   Michael Roemelt        : Original ROCIS implementation
   Masaaki Saitow         : Open-shell DLPNO-CCSD energy and density
   Barbara Sandhoefer     : DKH picture change effects
   Kantharuban Sivalingam : CASSCF convergence/infrastructure, NEVPT2 and variants, FIC-MRCI
   Bernardo de Souza      : ESD, SOC TD-DFT
   Georgi Stoychev        : AutoAux, RI-MP2 NMR, DLPNO-MP2 response, X2C
   Van Anh Tran           : RI-MP2 g-tensors
   Willem Van den Heuvel  : Paramagnetic NMR
   Zikuan Wang            : NOTCH, Electric field optimization 
   Frank Wennmohs         : Technical directorship and infrastructure
   Hang Xu                : AUTO-CI-Response properties 


 We gratefully acknowledge several colleagues who have allowed us to
 interface, adapt or use parts of their codes:
   Stefan Grimme, W. Hujo, H. Kruse, P. Pracht,  : VdW corrections, initial TS optimization,
                  C. Bannwarth, S. Ehlert,         DFT functionals, gCP, sTDA/sTD-DF
                  L. Wittmann, M. Mueller
   Ed Valeev, F. Pavosevic, A. Kumar             : LibInt (2-el integral package), F12 methods
   Garnet Chan, S. Sharma, J. Yang, R. Olivares  : DMRG
   Ulf Ekstrom                                   : XCFun DFT Library
   Mihaly Kallay                                 : mrcc  (arbitrary order and MRCC methods)
   Frank Weinhold                                : gennbo (NPA and NBO analysis)
   Simon Mueller                                 : openCOSMO-RS
   Christopher J. Cramer and Donald G. Truhlar   : smd solvation model
   Lars Goerigk                                  : TD-DFT with DH, B97 family of functionals
   V. Asgeirsson, H. Jonsson                     : NEB implementation
   FAccTs GmbH                                   : IRC, NEB, NEB-TS, DLPNO-Multilevel, CI-OPT
                                                   MM, QMMM, 2- and 3-layer-ONIOM, Crystal-QMMM,
                                                   LR-CPCM, SF, NACMEs, symmetry and pop. for TD-DFT,
                                                   nearIR, NL-DFT gradient (VV10), updates on ESD,
                                                   ML-optimized integration grids, MBIS, APM,
                                                   GOAT, DOCKER, SOLVATOR, interface openCOSMO-RS
   S Lehtola, MJT Oliveira, MAL Marques          : LibXC Library
   Liviu Ungur et al                             : ANISO software


 Your calculation uses the libint2 library for the computation of 2-el integrals
 For citations please refer to: http://libint.valeyev.net

 Your ORCA version has been built with support for libXC version: 6.2.2
 For citations please refer to: https://libxc.gitlab.io

 This ORCA versions uses:
   CBLAS   interface :  Fast vector & matrix operations
   LAPACKE interface :  Fast linear algebra routines
   Shared memory     :  Shared parallel matrices


Your calculation utilizes the atom-pairwise dispersion correction
with the zero-damping scheme (D30)


XCFun DFT library Copyright 2009-2010 Ulf Ekstrom and contributors.
See http://admol.org/xcfun for more information.
This is free software; see the source code for copying conditions.
There is ABSOLUTELY NO WARRANTY; not even for MERCHANTABILITY or FITNESS FOR A PARTICULAR PURPOSE.
For details see the documentation.
Scientific users of this library should cite U. Ekstrom, L. Visscher, R. Bast, A. J. Thorvaldsen and K. Ruud;
J.Chem.Theor.Comp. 2010, DOI: 10.1021/ct100117s
XCFun Version 0.99 

Warning: RI is on but no J-basis has been assigned. Assigning Def2/J (nothing to worry about!)
================================================================================

----- Orbital basis set information -----
Your calculation utilizes the basis: def2-TZVP
   F. Weigend and R. Ahlrichs, Phys. Chem. Chem. Phys. 7, 3297 (2005).

----- AuxJ basis set information -----
Your calculation utilizes the auxiliary basis: def2/J
   F. Weigend, Phys. Chem. Chem. Phys. 8, 1057 (2006).

================================================================================
                                        WARNINGS
                       Please study these warnings very carefully!
================================================================================

WARNING: Functional chosen is sensitive to the integration grid.
         DEFGRID3 seems to be a minimum grid for robust results!

================================================================================
                                       INPUT FILE
================================================================================
NAME = data/single_point_PO_M06-2x/68983/68983.inp
|  1> ! RIJCOSX M062X def2-TZVP D3ZERO NormalSCF
|  2> %pal
|  3> nprocs 6
|  4> end
|  5> 
|  6> * xyz 0 1
|  7>   C           1.43654162554470     -0.71532220734435     -0.46051299422252
|  8>   P           0.16845102909007      0.02561067558033      0.64701940635190
|  9>   O           0.57849696003686      0.08803298151262      2.10253183878361
| 10>   C          -1.34868811442695     -0.96640300562477      0.33466176769443
| 11>   C          -0.19358124797587      1.66559642222128     -0.10322811780677
| 12>   H           2.36695675773891     -0.11952433415044     -0.37846525759692
| 13>   H           1.10901724530849     -0.74681174607938     -1.51895210243186
| 14>   H           1.65324078830740     -1.74345965106080     -0.10932780506559
| 15>   H          -1.62348693613103     -0.99410721699365     -0.73879060582186
| 16>   H          -1.17610378655281     -1.99819150246823      0.69936166149593
| 17>   H          -2.18208952688199     -0.52890313300519      0.91898352665312
| 18>   H           0.71053320010619      2.29996614100236     -0.01654764038200
| 19>   H          -0.49118748530681      1.58851511634219     -1.16814664675428
| 20>   H          -1.00810050885715      2.14500146006802      0.47480196910281
| 21> **                         ****END OF INPUT****
================================================================================

                       ****************************
                       * Single Point Calculation *
                       ****************************

---------------------------------
CARTESIAN COORDINATES (ANGSTROEM)
---------------------------------
  C      1.436542   -0.715322   -0.460513
  P      0.168451    0.025611    0.647019
  O      0.578497    0.088033    2.102532
  C     -1.348688   -0.966403    0.334662
  C     -0.193581    1.665596   -0.103228
  H      2.366957   -0.119524   -0.378465
  H      1.109017   -0.746812   -1.518952
  H      1.653241   -1.743460   -0.109328
  H     -1.623487   -0.994107   -0.738791
  H     -1.176104   -1.998192    0.699362
  H     -2.182090   -0.528903    0.918984
  H      0.710533    2.299966   -0.016548
  H     -0.491187    1.588515   -1.168147
  H     -1.008101    2.145001    0.474802

----------------------------
CARTESIAN COORDINATES (A.U.)
----------------------------
  NO LB      ZA    FRAG     MASS         X           Y           Z
   0 C     6.0000    0    12.011    2.714670   -1.351763   -0.870243
   1 P    15.0000    0    30.974    0.318326    0.048397    1.222689
   2 O     8.0000    0    15.999    1.093201    0.166358    3.973209
   3 C     6.0000    0    12.011   -2.548651   -1.826237    0.632419
   4 C     6.0000    0    12.011   -0.365816    3.147521   -0.195073
   5 H     1.0000    0     1.008    4.472900   -0.225868   -0.715196
   6 H     1.0000    0     1.008    2.095739   -1.411270   -2.870403
   7 H     1.0000    0     1.008    3.124172   -3.294661   -0.206600
   8 H     1.0000    0     1.008   -3.067946   -1.878590   -1.396112
   9 H     1.0000    0     1.008   -2.222514   -3.776035    1.321602
  10 H     1.0000    0     1.008   -4.123552   -0.999482    1.736627
  11 H     1.0000    0     1.008    1.342713    4.346306   -0.031271
  12 H     1.0000    0     1.008   -0.928210    3.001859   -2.207477
  13 H     1.0000    0     1.008   -1.905034    4.053465    0.897246

--------------------------------
INTERNAL COORDINATES (ANGSTROEM)
--------------------------------
 C      0   0   0     0.000000000000     0.00000000     0.00000000
 P      1   0   0     1.839473651928     0.00000000     0.00000000
 O      2   1   0     1.513456524228   114.13439772     0.00000000
 C      2   1   3     1.839393818332   104.42555805   234.68688062
 C      2   1   3     1.839427075567   104.43189273   125.30038026
 H      1   2   3     1.107871497514   108.52664366   301.40253337
 H      1   2   3     1.108402975675   112.50035882   180.05200960
 H      1   2   3     1.107861077661   108.52955575    58.70115593
 H      4   2   1     1.108414143696   112.48397667   305.33367650
 H      4   2   1     1.107871321492   108.53528349    66.67880614
 H      4   2   1     1.107879041600   108.53709536   183.98651720
 H      5   2   1     1.107863430439   108.54129465   293.36193830
 H      5   2   1     1.108405374180   112.50171924    54.71971644
 H      5   2   1     1.107876165477   108.52408765   176.05450785

---------------------------
INTERNAL COORDINATES (A.U.)
---------------------------
 C      0   0   0     0.000000000000     0.00000000     0.00000000
 P      1   0   0     3.476101432708     0.00000000     0.00000000
 O      2   1   0     2.860018346387   114.13439772     0.00000000
 C      2   1   3     3.475950569075   104.42555805   234.68688062
 C      2   1   3     3.476013416141   104.43189273   125.30038026
 H      1   2   3     2.093573721879   108.52664366   301.40253337
 H      1   2   3     2.094578070050   112.50035882   180.05200960
 H      1   2   3     2.093554031211   108.52955575    58.70115593
 H      4   2   1     2.094599174550   112.48397667   305.33367650
 H      4   2   1     2.093573389246   108.53528349    66.67880614
 H      4   2   1     2.093587978135   108.53709536   183.98651720
 H      5   2   1     2.093558477316   108.54129465   293.36193830
 H      5   2   1     2.094582602566   112.50171924    54.71971644
 H      5   2   1     2.093582543050   108.52408765   176.05450785

---------------------
BASIS SET INFORMATION
---------------------
There are 4 groups of distinct atoms

 Group   1 Type C   : 11s6p2d1f contracted to 5s3p2d1f pattern {62111/411/11/1}
 Group   2 Type P   : 14s9p3d1f contracted to 5s5p2d1f pattern {73211/51111/21/1}
 Group   3 Type O   : 11s6p2d1f contracted to 5s3p2d1f pattern {62111/411/11/1}
 Group   4 Type H   : 5s1p contracted to 3s1p pattern {311/1}

Atom   0C    basis set group =>   1
Atom   1P    basis set group =>   2
Atom   2O    basis set group =>   3
Atom   3C    basis set group =>   1
Atom   4C    basis set group =>   1
Atom   5H    basis set group =>   4
Atom   6H    basis set group =>   4
Atom   7H    basis set group =>   4
Atom   8H    basis set group =>   4
Atom   9H    basis set group =>   4
Atom  10H    basis set group =>   4
Atom  11H    basis set group =>   4
Atom  12H    basis set group =>   4
Atom  13H    basis set group =>   4
---------------------------------
AUXILIARY/J BASIS SET INFORMATION
---------------------------------
There are 4 groups of distinct atoms

 Group   1 Type C   : 12s5p4d2f1g contracted to 6s4p3d1f1g pattern {711111/2111/211/2/1}
 Group   2 Type P   : 14s5p5d2f1g contracted to 8s4p3d1f1g pattern {71111111/2111/311/2/1}
 Group   3 Type O   : 12s5p4d2f1g contracted to 6s4p3d1f1g pattern {711111/2111/211/2/1}
 Group   4 Type H   : 5s2p1d contracted to 3s1p1d pattern {311/2/1}

Atom   0C    basis set group =>   1
Atom   1P    basis set group =>   2
Atom   2O    basis set group =>   3
Atom   3C    basis set group =>   1
Atom   4C    basis set group =>   1
Atom   5H    basis set group =>   4
Atom   6H    basis set group =>   4
Atom   7H    basis set group =>   4
Atom   8H    basis set group =>   4
Atom   9H    basis set group =>   4
Atom  10H    basis set group =>   4
Atom  11H    basis set group =>   4
Atom  12H    basis set group =>   4
Atom  13H    basis set group =>   4


           ************************************************************
           *        Program running with 6 parallel MPI-processes     *
           *              working on a common directory               *
           ************************************************************
------------------------------------------------------------------------------
                             ORCA STARTUP CALCULATIONS
                           -- RI-GTO INTEGRALS CHOSEN --
------------------------------------------------------------------------------
------------------------------------------------------------------------------
                   ___                                                        
                  /   \      - P O W E R E D   B Y -                         
                 /     \                                                     
                 |  |  |   _    _      __       _____    __    __             
                 |  |  |  | |  | |    /  \     |  _  \  |  |  /  |          
                  \  \/   | |  | |   /    \    | | | |  |  | /  /          
                 / \  \   | |__| |  /  /\  \   | |_| |  |  |/  /          
                |  |  |   |  __  | /  /__\  \  |    /   |      \           
                |  |  |   | |  | | |   __   |  |    \   |  |\   \          
                \     /   | |  | | |  |  |  |  | |\  \  |  | \   \       
                 \___/    |_|  |_| |__|  |__|  |_| \__\ |__|  \__/        
                                                                              
                      - O R C A' S   B I G   F R I E N D -                    
                                      &                                       
                       - I N T E G R A L  F E E D E R -                       
                                                                              
 v1 FN, 2020, v2 2021, v3 2022-2024                                           
------------------------------------------------------------------------------


----------------------
SHARK INTEGRAL PACKAGE
----------------------

Number of atoms                             ...     14
Number of basis functions                   ...    215
Number of shells                            ...     93
Maximum angular momentum                    ...      3
Integral batch strategy                     ... SHARK/LIBINT Hybrid
RI-J (if used) integral strategy            ... SPLIT-RIJ (Revised 2003 algorithm where possible)
Printlevel                                  ...      1
Contraction scheme used                     ... SEGMENTED contraction
Prescreening option                         ... SCHWARTZ
   Thresh                                   ... 1.000e-10
   Tcut                                     ... 1.000e-11
   Tpresel                                  ... 1.000e-11 
Coulomb Range Separation                    ... NOT USED
Exchange Range Separation                   ... NOT USED
Multipole approximations                    ... NOT USED
Finite Nucleus Model                        ... NOT USED
CABS basis                                  ... NOT available
Auxiliary Coulomb fitting basis             ... AVAILABLE
   # of basis functions in Aux-J            ...    346
   # of shells in Aux-J                     ...    122
   Maximum angular momentum in Aux-J        ...      4
Auxiliary J/K fitting basis                 ... NOT available
Auxiliary Correlation fitting basis         ... NOT available
Auxiliary 'external' fitting basis          ... NOT available

Checking pre-screening integrals            ... done (  0.0 sec) Dimension = 93
Check shell pair data                       ... done (  0.0 sec)
Shell pair information
Shell pair cut-off parameter TPreSel        ...   1.0e-11
Total number of shell pairs                 ...      4371
Shell pairs after pre-screening             ...      4151
Total number of primitive shell pairs       ...     13192
Primitive shell pairs kept                  ...      9613
          la=0 lb=0:   1264 shell pairs
          la=1 lb=0:   1281 shell pairs
          la=1 lb=1:    348 shell pairs
          la=2 lb=0:    496 shell pairs
          la=2 lb=1:    258 shell pairs
          la=2 lb=2:     55 shell pairs
          la=3 lb=0:    254 shell pairs
          la=3 lb=1:    130 shell pairs
          la=3 lb=2:     50 shell pairs
          la=3 lb=3:     15 shell pairs

Calculating one electron integrals          ... done (  0.0 sec)
Calculating RI/J V-Matrix + Cholesky decomp.... done (  0.0 sec)
Calculating Nuclear repulsion               ... done (  0.0 sec) ENN=    256.654433792101 Eh

Diagonalization of the overlap matrix:
Smallest eigenvalue                        ... 8.775e-04
Time for diagonalization                   ...    0.019 sec
Threshold for overlap eigenvalues          ... 1.000e-07
Number of eigenvalues below threshold      ... 0
Time for construction of square roots      ...    0.004 sec
Total time needed                          ...    0.023 sec

-------------------
DFT GRID GENERATION
-------------------

General Integration Accuracy     IntAcc      ... 4.388
Radial Grid Type                 RadialGrid  ... OptM3 with GC (2021)
Angular Grid (max. ang.)         AngularGrid ... 4 (Lebedev-302)
Angular grid pruning method      GridPruning ... 4 (adaptive)
Weight generation scheme         WeightScheme... mBecke (2022)
Basis function cutoff            BFCut       ... 1.0000e-10
Integration weight cutoff        WCut        ... 1.0000e-14
Partially contracted basis set               ... off
Rotationally invariant grid construction     ... off
Angular grids for H and He will be reduced by one unit

Total number of grid points                  ...    60604
Total number of batches                      ...      953
Average number of points per batch           ...       63
Average number of grid points per atom       ...     4329

--------------------
COSX GRID GENERATION
--------------------

GRIDX 1
-------
General Integration Accuracy     IntAcc      ... 3.816
Radial Grid Type                 RadialGrid  ... OptM3 with GC (2021)
Angular Grid (max. ang.)         AngularGrid ... 1 (Lebedev-50)
Angular grid pruning method      GridPruning ... 4 (adaptive)
Weight generation scheme         WeightScheme... mBecke (2022)
Basis function cutoff            BFCut       ... 1.0000e-10
Integration weight cutoff        WCut        ... 1.0000e-14
Partially contracted basis set               ... on
Rotationally invariant grid construction     ... off
Angular grids for H and He will be reduced by one unit

Total number of grid points                  ...     8829
Total number of batches                      ...       78
Average number of points per batch           ...      113
Average number of grid points per atom       ...      631
UseSFitting                                  ... on

GRIDX 2
-------
General Integration Accuracy     IntAcc      ... 4.020
Radial Grid Type                 RadialGrid  ... OptM3 with GC (2021)
Angular Grid (max. ang.)         AngularGrid ... 2 (Lebedev-110)
Angular grid pruning method      GridPruning ... 4 (adaptive)
Weight generation scheme         WeightScheme... mBecke (2022)
Basis function cutoff            BFCut       ... 1.0000e-10
Integration weight cutoff        WCut        ... 1.0000e-14
Partially contracted basis set               ... on
Rotationally invariant grid construction     ... off
Angular grids for H and He will be reduced by one unit

Total number of grid points                  ...    16190
Total number of batches                      ...      133
Average number of points per batch           ...      121
Average number of grid points per atom       ...     1156
UseSFitting                                  ... on

GRIDX 3
-------
General Integration Accuracy     IntAcc      ... 4.338
Radial Grid Type                 RadialGrid  ... OptM3 with GC (2021)
Angular Grid (max. ang.)         AngularGrid ... 3 (Lebedev-194)
Angular grid pruning method      GridPruning ... 4 (adaptive)
Weight generation scheme         WeightScheme... mBecke (2022)
Basis function cutoff            BFCut       ... 1.0000e-10
Integration weight cutoff        WCut        ... 1.0000e-14
Partially contracted basis set               ... on
Rotationally invariant grid construction     ... off
Angular grids for H and He will be reduced by one unit

Total number of grid points                  ...    35953
Total number of batches                      ...      289
Average number of points per batch           ...      124
Average number of grid points per atom       ...     2568
UseSFitting                                  ... on
Initializing property integral containers    ... done (  0.0 sec)

SHARK setup successfully completed in   0.8 seconds

Maximum memory used throughout the entire STARTUP-calculation: 20.9 MB


           ************************************************************
           *        Program running with 6 parallel MPI-processes     *
           *              working on a common directory               *
           ************************************************************
-------------------------------------------------------------------------------
                                 ORCA GUESS
                   Start orbitals & Density for SCF / CASSCF
-------------------------------------------------------------------------------

------------
SCF SETTINGS
------------
Hamiltonian:
 Density Functional     Method          .... DFT(GTOs)
 Exchange Functional    Exchange        .... M062X
 Correlation Functional Correlation     .... M062X
 Gradients option       PostSCFGGA      .... off
 Hybrid DFT is turned on
   Fraction HF Exchange ScalHFX         ....  0.540000
   Scaling of DF-GGA-X  ScalDFX         ....  0.460000
   Scaling of DF-GGA-C  ScalDFC         ....  1.000000
   Scaling of DF-LDA-C  ScalLDAC        ....  1.000000
   Perturbative correction              ....  0.000000
 RI-approximation to the Coulomb term is turned on
   Number of AuxJ basis functions       .... 346
   RIJ-COSX (HFX calculated with COS-X)).... on


General Settings:
 Integral files         IntName         .... data/single_point_PO_M06-2x/68983/68983
 Hartree-Fock type      HFTyp           .... RHF
 Total Charge           Charge          ....    0
 Multiplicity           Mult            ....    1
 Number of Electrons    NEL             ....   50
 Basis Dimension        Dim             ....  215
 Nuclear Repulsion      ENuc            ....    256.6544337921 Eh

Convergence Acceleration:
 AO-DIIS                CNVDIIS         .... on
   Start iteration      DIISMaxIt       ....    12
   Startup error        DIISStart       ....  0.200000
   # of expansion vecs  DIISMaxEq       ....     5
   Bias factor          DIISBfac        ....   1.050
   Max. coefficient     DIISMaxC        ....  10.000
 MO-DIIS                CNVKDIIS        .... off
 Trust-Rad. Augm. Hess. CNVTRAH         .... auto
   Auto Start mean grad. ratio tolernc. ....  1.125000
   Auto Start start iteration           ....    50
   Auto Start num. interpolation iter.  ....    10
   Max. Number of Micro iterations      ....    24
   Max. Number of Macro iterations      .... Maxiter - #DIIS iter
   Number of Davidson start vectors     ....     2
   Converg. threshold    (grad. norm)   ....   5.000e-05
   Grad. Scal. Fac. for Micro threshold ....   0.100
   Minimum threshold for Micro iter.    ....   1.000e-02
   NR start threshold (gradient norm)   ....   1.000e-04
   Initial trust radius                 ....   0.400
   Minimum AH scaling param. (alpha)    ....   1.000
   Maximum AH scaling param. (alpha)    .... 1000.000
   Quad. conv. algorithm                .... NR
   White noise on init. David. guess    .... on
   Maximum white noise                  ....   0.010
   Pseudo random numbers                .... off
   Inactive MOs                         .... canonical
   Orbital update algorithm             .... Taylor
   Preconditioner                       .... Diag
   Full preconditioner red. dimension   ....   250
 SOSCF                  CNVSOSCF        .... on
   Start iteration      SOSCFMaxIt      ....   150
   Startup grad/error   SOSCFStart      ....  0.003300
   Hessian update       SOSCFHessUp     .... L-BFGS
 Level Shifting         CNVShift        .... on
   Level shift para.    LevelShift      ....    0.2500
   Turn off err/grad.   ShiftErr        ....    0.0010
 Zerner damping         CNVZerner       .... off
 Static damping         CNVDamp         .... on
   Fraction old density DampFac         ....    0.7000
   Max. Damping (<1)    DampMax         ....    0.9800
   Min. Damping (>=0)   DampMin         ....    0.0000
   Turn off err/grad.   DampErr         ....    0.1000

SCF Procedure:
 Maximum # iterations   MaxIter         ....   125
 SCF integral mode      SCFMode         .... Direct
   Integral package                     .... SHARK and LIBINT hybrid scheme
 Reset frequency        DirectResetFreq ....    20
 Integral Threshold     Thresh          ....  1.000e-10 Eh
 Primitive CutOff       TCut            ....  1.000e-11 Eh

Convergence Tolerance:
 Convergence Check Mode ConvCheckMode   .... Total+1el-Energy
 Convergence forced     ConvForced      .... 0
 Energy Change          TolE            ....  1.000e-06 Eh
 1-El. energy change                    ....  1.000e-03 Eh
 Orbital Gradient       TolG            ....  5.000e-05
 Orbital Rotation angle TolX            ....  5.000e-05
 DIIS Error             TolErr          ....  1.000e-05

------------------------------
INITIAL GUESS: MODEL POTENTIAL
------------------------------
Loading Hartree-Fock densities                     ... done
Calculating cut-offs                               ... done
Initializing the effective Hamiltonian             ... done
Setting up the integral package (SHARK)            ... done
Starting the Coulomb interaction                   ... done (   0.0 sec)
Making the grid                                    ... done (   0.1 sec)
Mapping shells                                     ... done
Starting the XC term evaluation                    ... done (   0.1 sec)
  promolecular density results
     # of electrons  =     49.996831203
     EX              =    -48.656912233
     EC              =     -1.703490181
     EX+EC           =    -50.360402414
Transforming the Hamiltonian                       ... done (   0.0 sec)
Diagonalizing the Hamiltonian                      ... done (   0.0 sec)
Back transforming the eigenvectors                 ... done (   0.0 sec)
Now organizing SCF variables                       ... done
                      ------------------
                      INITIAL GUESS DONE (   0.2 sec)
                      ------------------
             **** ENERGY FILE WAS UPDATED (data/single_point_PO_M06-2x/68983/68983.en.tmp) ****
Finished Guess after   0.3 sec
Maximum memory used throughout the entire GUESS-calculation: 12.8 MB


           ************************************************************
           *        Program running with 6 parallel MPI-processes     *
           *              working on a common directory               *
           ************************************************************

-------------------------------------------------------------------------------------------
                                      ORCA LEAN-SCF
                              memory conserving SCF solver
-------------------------------------------------------------------------------------------

----------------------------------------D-I-I-S--------------------------------------------
Iteration    Energy (Eh)           Delta-E    RMSDP     MaxDP     DIISErr   Damp  Time(sec)
-------------------------------------------------------------------------------------------
               ***  Starting incremental Fock matrix formation  ***
    1    -536.0391956060152552     0.00e+00  2.09e-03  5.76e-02  3.75e-01  0.700   1.3
    2    -536.1743826283131966    -1.35e-01  1.64e-03  4.22e-02  1.64e-01  0.700   1.0
                               ***Turning on AO-DIIS***
    3    -536.2309379973902423    -5.66e-02  6.53e-04  1.71e-02  5.13e-02  0.700   0.9
    4    -536.2645632481358007    -3.36e-02  1.04e-03  2.93e-02  3.20e-02  0.000   0.9
    5    -536.3373999500789751    -7.28e-02  2.65e-04  8.27e-03  6.59e-03  0.000   0.9
    6    -536.3376878391754872    -2.88e-04  1.10e-04  3.57e-03  3.49e-03  0.000   0.9
                              *** Initializing SOSCF ***
---------------------------------------S-O-S-C-F--------------------------------------
Iteration    Energy (Eh)           Delta-E    RMSDP     MaxDP     MaxGrad    Time(sec)
--------------------------------------------------------------------------------------
    7    -536.3377080245192019    -2.02e-05  4.68e-05  1.57e-03  2.00e-04     0.7
               *** Restarting incremental Fock matrix formation ***
    8    -536.3377231614311995    -1.51e-05  2.83e-05  1.01e-03  6.75e-05     1.2
    9    -536.3377234656951487    -3.04e-07  9.50e-06  3.41e-04  4.99e-05     1.5
                 **** Energy Check signals convergence ****

               *****************************************************
               *                     SUCCESS                       *
               *           SCF CONVERGED AFTER   9 CYCLES          *
               *****************************************************

Recomputing exchange energy using gridx3       ... done (    1.557 sec)
Old exchange energy                            :    -26.801592718 Eh
New exchange energy                            :    -26.801610350 Eh
Exchange energy change after final integration :     -0.000017633 Eh
Total energy after final integration           :   -536.337741098 Eh
             **** ENERGY FILE WAS UPDATED (data/single_point_PO_M06-2x/68983/68983.en.tmp) ****

----------------
TOTAL SCF ENERGY
----------------

Total Energy       :       -536.33774109842000 Eh          -14594.49190 eV

Components:
Nuclear Repulsion  :        256.65443379210058 Eh            6983.92220 eV
Electronic Energy  :       -792.99215725779572 Eh          -21578.41362 eV
One Electron Energy:      -1245.36130074691960 Eh          -33888.00383 eV
Two Electron Energy:        452.36914348912387 Eh           12309.59020 eV

Virial components:
Potential Energy   :      -1070.69760692099953 Eh          -29135.16309 eV
Kinetic Energy     :        534.35986582257942 Eh           14540.67118 eV
Virial Ratio       :          2.00370139189401

DFT components:
N(Alpha)           :       24.999990616199 electrons
N(Beta)            :       24.999990616199 electrons
N(Total)           :       49.999981232399 electrons
E(XC)              :      -24.612023020569 Eh       

---------------
SCF CONVERGENCE
---------------

  Last Energy change         ...    3.0426e-07  Tolerance :   1.0000e-06
  Last MAX-Density change    ...    3.4123e-04  Tolerance :   1.0000e-05
  Last RMS-Density change    ...    9.5025e-06  Tolerance :   1.0000e-06
  Last DIIS Error            ...    2.0031e-04  Tolerance :   1.0000e-05
  Last Orbital Gradient      ...    4.9915e-05  Tolerance :   5.0000e-05
  Last Orbital Rotation      ...    8.4291e-05  Tolerance :   5.0000e-05


----------------
ORBITAL ENERGIES
----------------

  NO   OCC          E(Eh)            E(eV) 
   0   2.0000     -78.092200     -2124.9968 
   1   2.0000     -19.558404      -532.2112 
   2   2.0000     -10.549116      -287.0561 
   3   2.0000     -10.549111      -287.0559 
   4   2.0000     -10.549100      -287.0556 
   5   2.0000      -6.897939      -187.7025 
   6   2.0000      -5.015083      -136.4673 
   7   2.0000      -5.015083      -136.4673 
   8   2.0000      -5.013263      -136.4178 
   9   2.0000      -1.055628       -28.7251 
  10   2.0000      -0.857307       -23.3285 
  11   2.0000      -0.796878       -21.6841 
  12   2.0000      -0.796870       -21.6839 
  13   2.0000      -0.607622       -16.5342 
  14   2.0000      -0.515219       -14.0198 
  15   2.0000      -0.512319       -13.9409 
  16   2.0000      -0.512304       -13.9405 
  17   2.0000      -0.485434       -13.2093 
  18   2.0000      -0.485400       -13.2084 
  19   2.0000      -0.464183       -12.6311 
  20   2.0000      -0.424521       -11.5518 
  21   2.0000      -0.424496       -11.5511 
  22   2.0000      -0.420676       -11.4472 
  23   2.0000      -0.329172        -8.9572 
  24   2.0000      -0.329149        -8.9566 
  25   0.0000       0.044267         1.2046 
  26   0.0000       0.087103         2.3702 
  27   0.0000       0.096814         2.6344 
  28   0.0000       0.096824         2.6347 
  29   0.0000       0.115262         3.1364 
  30   0.0000       0.115275         3.1368 
  31   0.0000       0.123910         3.3717 
  32   0.0000       0.128702         3.5022 
  33   0.0000       0.151431         4.1206 
  34   0.0000       0.151469         4.1217 
  35   0.0000       0.167197         4.5497 
*Only the first 10 virtual orbitals were printed.

                    ********************************
                    * MULLIKEN POPULATION ANALYSIS *
                    ********************************

-----------------------
MULLIKEN ATOMIC CHARGES
-----------------------
   0 C :   -0.505234
   1 P :    0.645960
   2 O :   -0.600038
   3 C :   -0.505553
   4 C :   -0.505206
   5 H :    0.169436
   6 H :    0.151421
   7 H :    0.169294
   8 H :    0.151428
   9 H :    0.169332
  10 H :    0.169258
  11 H :    0.169268
  12 H :    0.151546
  13 H :    0.169086
Sum of atomic charges:   -0.0000000

--------------------------------
MULLIKEN REDUCED ORBITAL CHARGES
--------------------------------
  0 C s       :     3.273702  s :     3.273702
      pz      :     1.034952  p :     3.197729
      px      :     1.067527
      py      :     1.095249
      dz2     :     0.009882  d :     0.031877
      dxz     :     0.005140
      dyz     :     0.003427
      dx2y2   :     0.006306
      dxy     :     0.007122
      f0      :     0.000420  f :     0.001927
      f+1     :     0.000417
      f-1     :     0.000095
      f+2     :     0.000198
      f-2     :     0.000183
      f+3     :     0.000183
      f-3     :     0.000430

  1 P s       :     5.304516  s :     5.304516
      pz      :     2.631680  p :     8.279911
      px      :     2.816321
      py      :     2.831910
      dz2     :     0.144204  d :     0.703130
      dxz     :     0.185399
      dyz     :     0.193657
      dx2y2   :     0.078355
      dxy     :     0.101516
      f0      :     0.011762  f :     0.066482
      f+1     :     0.012948
      f-1     :     0.016991
      f+2     :     0.007583
      f-2     :     0.007484
      f+3     :     0.006439
      f-3     :     0.003275

  2 O s       :     3.855646  s :     3.855646
      pz      :     1.404340  p :     4.717772
      px      :     1.646528
      py      :     1.666903
      dz2     :     0.009581  d :     0.025341
      dxz     :     0.007553
      dyz     :     0.007001
      dx2y2   :     0.000624
      dxy     :     0.000583
      f0      :     0.000467  f :     0.001279
      f+1     :     0.000373
      f-1     :     0.000299
      f+2     :     0.000068
      f-2     :     0.000067
      f+3     :     0.000003
      f-3     :     0.000002

  3 C s       :     3.273996  s :     3.273996
      pz      :     1.057815  p :     3.197723
      px      :     1.054247
      py      :     1.085661
      dz2     :     0.008953  d :     0.031905
      dxz     :     0.005772
      dyz     :     0.003277
      dx2y2   :     0.007443
      dxy     :     0.006460
      f0      :     0.000552  f :     0.001928
      f+1     :     0.000265
      f-1     :     0.000091
      f+2     :     0.000114
      f-2     :     0.000239
      f+3     :     0.000223
      f-3     :     0.000444

  4 C s       :     3.273697  s :     3.273697
      pz      :     1.048534  p :     3.197716
      px      :     1.100738
      py      :     1.048444
      dz2     :     0.009385  d :     0.031864
      dxz     :     0.005160
      dyz     :     0.003646
      dx2y2   :     0.004811
      dxy     :     0.008862
      f0      :     0.000429  f :     0.001929
      f+1     :     0.000303
      f-1     :     0.000195
      f+2     :     0.000186
      f-2     :     0.000179
      f+3     :     0.000199
      f-3     :     0.000438

  5 H s       :     0.810917  s :     0.810917
      pz      :     0.003830  p :     0.019647
      px      :     0.010016
      py      :     0.005801

  6 H s       :     0.829385  s :     0.829385
      pz      :     0.011188  p :     0.019194
      px      :     0.004352
      py      :     0.003653

  7 H s       :     0.811040  s :     0.811040
      pz      :     0.004545  p :     0.019666
      px      :     0.004463
      py      :     0.010658

  8 H s       :     0.829371  s :     0.829371
      pz      :     0.010733  p :     0.019201
      px      :     0.004712
      py      :     0.003756

  9 H s       :     0.811013  s :     0.811013
      pz      :     0.004533  p :     0.019655
      px      :     0.004218
      py      :     0.010903

 10 H s       :     0.811078  s :     0.811078
      pz      :     0.005897  p :     0.019664
      px      :     0.008889
      py      :     0.004878

 11 H s       :     0.811070  s :     0.811070
      pz      :     0.003729  p :     0.019662
      px      :     0.008725
      py      :     0.007208

 12 H s       :     0.829273  s :     0.829273
      pz      :     0.010920  p :     0.019181
      px      :     0.004131
      py      :     0.004130

 13 H s       :     0.811241  s :     0.811241
      pz      :     0.005816  p :     0.019673
      px      :     0.007837
      py      :     0.006021



                     *******************************
                     * LOEWDIN POPULATION ANALYSIS *
                     *******************************

----------------------
LOEWDIN ATOMIC CHARGES
----------------------
   0 C :   -0.436053
   1 P :    0.478194
   2 O :   -0.329013
   3 C :   -0.436053
   4 C :   -0.436047
   5 H :    0.131498
   6 H :    0.123367
   7 H :    0.131474
   8 H :    0.123398
   9 H :    0.131483
  10 H :    0.131464
  11 H :    0.131478
  12 H :    0.123351
  13 H :    0.131461

-------------------------------
LOEWDIN REDUCED ORBITAL CHARGES
-------------------------------
  0 C s       :     2.908651  s :     2.908651
      pz      :     1.108794  p :     3.341978
      px      :     1.122342
      py      :     1.110842
      dz2     :     0.047682  d :     0.171790
      dxz     :     0.033288
      dyz     :     0.018879
      dx2y2   :     0.033332
      dxy     :     0.038609
      f0      :     0.002023  f :     0.013633
      f+1     :     0.002323
      f-1     :     0.001255
      f+2     :     0.002364
      f-2     :     0.001878
      f+3     :     0.001132
      f-3     :     0.002658

  1 P s       :     4.676964  s :     4.676964
      pz      :     2.746823  p :     8.363949
      px      :     2.806095
      py      :     2.811031
      dz2     :     0.272980  d :     1.252670
      dxz     :     0.312796
      dyz     :     0.315132
      dx2y2   :     0.155270
      dxy     :     0.196491
      f0      :     0.045423  f :     0.228223
      f+1     :     0.045275
      f-1     :     0.051411
      f+2     :     0.026222
      f-2     :     0.025583
      f+3     :     0.021442
      f-3     :     0.012868

  2 O s       :     3.546385  s :     3.546385
      pz      :     1.539666  p :     4.738394
      px      :     1.596958
      py      :     1.601770
      dz2     :     0.021665  d :     0.042118
      dxz     :     0.011205
      dyz     :     0.007740
      dx2y2   :     0.000726
      dxy     :     0.000782
      f0      :     0.000902  f :     0.002116
      f+1     :     0.000655
      f-1     :     0.000357
      f+2     :     0.000091
      f-2     :     0.000102
      f+3     :     0.000004
      f-3     :     0.000006

  3 C s       :     2.908657  s :     2.908657
      pz      :     1.093005  p :     3.341969
      px      :     1.132653
      py      :     1.116311
      dz2     :     0.042147  d :     0.171792
      dxz     :     0.032145
      dyz     :     0.016449
      dx2y2   :     0.041839
      dxy     :     0.039211
      f0      :     0.002431  f :     0.013636
      f+1     :     0.001464
      f-1     :     0.000884
      f+2     :     0.002331
      f-2     :     0.002401
      f+3     :     0.001485
      f-3     :     0.002639

  4 C s       :     2.908649  s :     2.908649
      pz      :     1.099742  p :     3.341969
      px      :     1.104721
      py      :     1.137506
      dz2     :     0.043226  d :     0.171792
      dxz     :     0.023164
      dyz     :     0.028708
      dx2y2   :     0.027605
      dxy     :     0.049089
      f0      :     0.002107  f :     0.013636
      f+1     :     0.001603
      f-1     :     0.001500
      f+2     :     0.002345
      f-2     :     0.002087
      f+3     :     0.001221
      f-3     :     0.002774

  5 H s       :     0.806627  s :     0.806627
      pz      :     0.012426  p :     0.061875
      px      :     0.030114
      py      :     0.019334

  6 H s       :     0.815199  s :     0.815199
      pz      :     0.034018  p :     0.061434
      px      :     0.014871
      py      :     0.012545

  7 H s       :     0.806646  s :     0.806646
      pz      :     0.014824  p :     0.061880
      px      :     0.014134
      py      :     0.032922

  8 H s       :     0.815173  s :     0.815173
      pz      :     0.033912  p :     0.061429
      px      :     0.014790
      py      :     0.012727

  9 H s       :     0.806636  s :     0.806636
      pz      :     0.014697  p :     0.061882
      px      :     0.013871
      py      :     0.033314

 10 H s       :     0.806665  s :     0.806665
      pz      :     0.018849  p :     0.061871
      px      :     0.026619
      py      :     0.016403

 11 H s       :     0.806649  s :     0.806649
      pz      :     0.012216  p :     0.061872
      px      :     0.028142
      py      :     0.021515

 12 H s       :     0.815209  s :     0.815209
      pz      :     0.033886  p :     0.061441
      px      :     0.014026
      py      :     0.013528

 13 H s       :     0.806666  s :     0.806666
      pz      :     0.018792  p :     0.061873
      px      :     0.024917
      py      :     0.018164



                      *****************************
                      * MAYER POPULATION ANALYSIS *
                      *****************************

  NA   - Mulliken gross atomic population
  ZA   - Total nuclear charge
  QA   - Mulliken gross atomic charge
  VA   - Mayer's total valence
  BVA  - Mayer's bonded valence
  FA   - Mayer's free valence

  ATOM       NA         ZA         QA         VA         BVA        FA
  0 C      6.5052     6.0000    -0.5052     3.7409     3.7409     0.0000
  1 P     14.3540    15.0000     0.6460     4.9000     4.9000     0.0000
  2 O      8.6000     8.0000    -0.6000     1.9741     1.9741    -0.0000
  3 C      6.5056     6.0000    -0.5056     3.7412     3.7412    -0.0000
  4 C      6.5052     6.0000    -0.5052     3.7415     3.7415    -0.0000
  5 H      0.8306     1.0000     0.1694     0.9638     0.9638     0.0000
  6 H      0.8486     1.0000     0.1514     0.9561     0.9561    -0.0000
  7 H      0.8307     1.0000     0.1693     0.9638     0.9638     0.0000
  8 H      0.8486     1.0000     0.1514     0.9559     0.9559    -0.0000
  9 H      0.8307     1.0000     0.1693     0.9638     0.9638    -0.0000
 10 H      0.8307     1.0000     0.1693     0.9639     0.9639    -0.0000
 11 H      0.8307     1.0000     0.1693     0.9639     0.9639    -0.0000
 12 H      0.8485     1.0000     0.1515     0.9559     0.9559    -0.0000
 13 H      0.8309     1.0000     0.1691     0.9638     0.9638    -0.0000

  Mayer bond orders larger than 0.100000
B(  0-C ,  1-P ) :   0.9401 B(  0-C ,  5-H ) :   0.9455 B(  0-C ,  6-H ) :   0.9378 
B(  0-C ,  7-H ) :   0.9455 B(  1-P ,  2-O ) :   1.9454 B(  1-P ,  3-C ) :   0.9411 
B(  1-P ,  4-C ) :   0.9407 B(  3-C ,  8-H ) :   0.9376 B(  3-C ,  9-H ) :   0.9454 
B(  3-C , 10-H ) :   0.9455 B(  4-C , 11-H ) :   0.9455 B(  4-C , 12-H ) :   0.9377 
B(  4-C , 13-H ) :   0.9455 

-------
TIMINGS
-------

Total SCF time: 0 days 0 hours 0 min 10 sec 

Total time                  ....      10.999 sec
Sum of individual times     ....      10.983 sec  ( 99.9%)

SCF preparation             ....       0.105 sec  (  1.0%)
Fock matrix formation       ....      10.510 sec  ( 95.6%)
  Startup                   ....       0.022 sec  (  0.2% of F)
  Split-RI-J                ....       0.622 sec  (  5.9% of F)
  Chain of spheres X        ....       6.451 sec  ( 61.4% of F)
  XC integration            ....       3.331 sec  ( 31.7% of F)
    Basis function eval.    ....       0.493 sec  ( 14.8% of XC)
    Density eval.           ....       1.042 sec  ( 31.3% of XC)
    XC-Functional eval.     ....       0.161 sec  (  4.8% of XC)
    XC-Potential eval.      ....       1.044 sec  ( 31.3% of XC)
Diagonalization             ....       0.000 sec  (  0.0%)
Density matrix formation    ....       0.050 sec  (  0.5%)
Total Energy calculation    ....       0.026 sec  (  0.2%)
Population analysis         ....       0.032 sec  (  0.3%)
Orbital Transformation      ....       0.033 sec  (  0.3%)
Orbital Orthonormalization  ....       0.000 sec  (  0.0%)
DIIS solution               ....       0.188 sec  (  1.7%)
SOSCF solution              ....       0.039 sec  (  0.4%)
Finished LeanSCF after  11.0 sec

Maximum memory used throughout the entire LEANSCF-calculation: 19.9 MB


-------------------------------------------------------------------------------
                          DFT DISPERSION CORRECTION                            
                                                                               
                              DFTD3 V3.1  Rev 1                                
                              USING zero damping                               
-------------------------------------------------------------------------------
The M062X functional is recognized
Active option DFTDOPT                   ...         3   

molecular C6(AA) [au] = 1959.868351 


            DFT-D V3
 parameters
 s6 scaling factor         :     1.0000 
 rs6 scaling factor        :     1.6190 
 s8 scaling factor         :     0.0000 
 rs8 scaling factor        :     1.0000 
 Damping factor alpha6     :    14.0000 
 Damping factor alpha8     :    16.0000 
 ad hoc parameters k1-k3   :    16.0000     1.3333    -4.0000 

 Edisp/kcal,au: -0.160084523297  -0.000255110899 
 E6   /kcal   :  -0.160084523 
 E8   /kcal   :  -0.000000000 
 % E8         :   0.000000000 

-------------------------   ----------------
Dispersion correction           -0.000255111
-------------------------   ----------------


-------------------------   --------------------
FINAL SINGLE POINT ENERGY      -536.337996209319
-------------------------   --------------------



           ************************************************************
           *        Program running with 6 parallel MPI-processes     *
           *              working on a common directory               *
           ************************************************************

------------------------------------------------------------------------------
                              ORCA PROPERTY CALCULATIONS
------------------------------------------------------------------------------

GBWName                                 ... data/single_point_PO_M06-2x/68983/68983.gbw
Number of atoms                         ...     14
Number of basis functions               ...    215
Max core memory                         ...   1024 MB

Electric properties:
Dipole moment                           ... YES
Quadrupole moment                       ...  NO
Static polarizability (Dipole/Dipole)   ...  NO
Static polarizability (Dipole/Quad.)    ...  NO
Static polarizability (Quad./Quad.)     ...  NO
Static polarizability (Velocity)        ...  NO

Atomic electric properties:
Dipole moment                           ...  NO
Quadrupole moment                       ...  NO
Static polarizability                   ...  NO

Choice of electric origin               ... Center of mass
Position of electric origin             ...     0.257703     0.039193     1.007190

General magnetic properties:
Magnetizability                         ...  NO

EPR properties:
g-Tensor (aka g-matrix)                 ...  NO
Zero-Field splitting spin-orbit         ...  NO
Zero-field splitting spin-spin          ...  NO
Hyperfine couplings                     ...  NO (   0 nuclei)
Quadrupole couplings                    ...  NO (   0 nuclei)
Contact density                         ...  NO (   0 nuclei)

NMR properties:
Chemical shifts                         ...  NO (   0 nuclei)
Spin-rotation constants                 ...  NO (   0 nuclei)
Spin-spin couplings                     ...  NO (   0 nuclei,    0 pairs)

Choice of magnetic origin               ... GIAO
Position of magnetic origin             ...     0.000000     0.000000     0.000000

Properties with geometric perturbations:
SCF Hessian                             ...  NO
IR spectrum                             ...  NO
VCD spectrum                            ...  NO
X-ray spectroscopy properties:
SCF XES/XAS/RIXS spectra                ...  NO


-------------
DIPOLE MOMENT
-------------

Method             : SCF
Type of density    : Electron Density
Multiplicity       :   1
Irrep              :   0
Energy             :  -536.3377410984199969 Eh
Relativity type    : 
Basis              : AO
                                X                 Y                 Z
Electronic contribution:      1.293569688       0.196468889       4.592610799
Nuclear contribution   :     -1.775159533      -0.269961967      -6.302468783
                        -----------------------------------------
Total Dipole Moment    :     -0.481589845      -0.073493078      -1.709857984
                        -----------------------------------------
Magnitude (a.u.)       :      1.777904479
Magnitude (Debye)      :      4.519074048



--------------------
Rotational spectrum 
--------------------
 
Rotational constants in cm-1:             0.120929             0.120921             0.116661 
Rotational constants in MHz :          3625.356486          3625.122244          3497.414770 

Dipole components along the rotational axes: 
x,y,z [a.u.] :     0.002019    -0.001367    -1.777903 
x,y,z [Debye]:     0.005131    -0.003475    -4.519070 

 

Dipole moment calculation done in   0.0 sec 

Maximum memory used throughout the entire PROP-calculation: 9.6 MB

--------------------------------
SUGGESTED CITATIONS FOR THIS RUN
--------------------------------

Below you find a list of papers that are relevant to this ORCA run
We neither can nor want to force you to cite these papers, but we appreciate if you do
You receive ORCA, which is the product of decades of hard work by many enthusiastic individuals, for free
The only thing we kindly ask in return is that you cite our papers,
We deeply appreciate it, if you show your appreciation for ORCA by not just citing the generic ORCA reference.

Please note that relegating all ORCA citations to the supporting information does *not* help us.
SI sections are not indexed - citations you put there will not count into any citation statistics
But we need these citations in order to attract the funding resources that allow us to do what we are doing

Therefore, if you are a happy ORCA user, please consider citing a few of the papers listed below in the main body of your paper

In addition to the list printed below, the program has created the file data/single_point_PO_M06-2x/68983/68983.bibtex that contains the list in bibtex format
You can import this file easily into all common literature databanks and citation aid programs


List of essential papers. We consider these as the minimum necessary citations

  1. Neese,F.
     Software update: the ORCA program system, version 5.0
     WIRES Comput. Molec. Sci., 2022 12(1)e1606
     doi.org/10.1002/wcms.1606

List of papers to cite with high priority. The work reported in these papers was absolutely
necessary for this run to complete.
Our perspective: the developers of density functionals and basis sets usually get cited in chemistry papers
Good! But without the algorithms to do something with them, the functionals or basis sets would not do anything.
Hence, in our opinion, the algorithm design and method developments papers are equally worthy of getting cited

  1. Neese,F.
     An improvement of the resolution of the identity approximation for the formation of the Coulomb matrix
     J. Comp. Chem., 2003 24(14)1740-1747
     doi.org/10.1002/jcc.10318
  2. Neese,F.; Wennmohs,F.; Hansen,A.; Becker,U.
     Efficient, approximate and parallel Hartree-Fock and hybrid DFT calculations. A 'chain-of-spheres' algorithm for the Hartree-Fock exchange
     Chem. Phys., 2009 356(1-3)98-109
     doi.org/10.1016/j.chemphys.2008.10.036
  3. Helmich-Paris,B.; de Souza,B.; Neese,F.; Izsák,R.
     An improved chain of spheres for exchange algorithm
     J. Chem. Phys., 2021 155 104109
     doi.org/doi: 10.1063/5.0058766.
  4. Neese,F.
     The SHARK Integral Generation and Digestion System
     J. Comp. Chem., 2022  1-16
     doi.org/10.1002/jcc.26942
  5. Grimme,S.; Antony,J.; Ehrlich,S.; Krieg,H.
     A consistent and accurate ab initio parametrization of density functional dispersion correction (DFT-D) for the 94 elements H-Pu
     J. Chem. Phys., 2010 132 154104-XXXX
     doi.org/10.1063/1.3382344

List of suggested additional citations. These are papers that are important in the 'surrounding' of 
of this run, or papers that preceded the highly important papers. If you like your results we are grateful for a citation.

  1. Izsak,R.; Neese,F.
     An overlap fitted chain of spheres exchange method
     J. Chem. Phys., 2011 135 144105
     doi.org/10.1063/1.3646921
  2. Izsak,R.; Hansen,A.; Neese,F.
     The resolution of identity and chain of spheres approximations for the LPNO-CCSD singles Fock term
     Molec. Phys., 2012 110 2413-2417
     doi.org/10.1080/00268976.2012.687466
  3. Neese,F.
     The ORCA program system
     WIRES Comput. Molec. Sci., 2012 2(1)73-78
     doi.org/10.1002/wcms.81
  4. Izsak,R.; Neese,F.; Klopper,W.
     Robust fitting techniques in the chain of spheres approximation to the Fock exchange: The role of the complementary space
     J. Chem. Phys., 2013 139 
     doi.org/10.1063/1.4819264
  5. Neese,F.
     Software update: the ORCA program system, version 4.0
     WIRES Comput. Molec. Sci., 2018 8(1)1-6
     doi.org/10.1002/wcms.1327
  6. Neese,F.; Wennmohs,F.; Becker,U.; Riplinger,C.
     The ORCA quantum chemistry program package
     J. Chem. Phys., 2020 152 Art. No. L224108
     doi.org/10.1063/5.0004608

List of optional additional citations

  1. Neese,F.
     Approximate second-order SCF convergence for spin unrestricted wavefunctions
     Chem. Phys. Lett., 2000 325(1-3)93-98
     doi.org/10.1016/s0009-2614(00)00662-x

Timings for individual modules:

Sum of individual times          ...       12.521 sec (=   0.209 min)
Startup calculation              ...        0.894 sec (=   0.015 min)   7.1 %
SCF iterations                   ...       11.490 sec (=   0.192 min)  91.8 %
Property calculations            ...        0.137 sec (=   0.002 min)   1.1 %
                             ****ORCA TERMINATED NORMALLY****
TOTAL RUN TIME: 0 days 0 hours 0 minutes 12 seconds 756 msec
