
                                 *****************
                                 * O   R   C   A *
                                 *****************

                                            #,                                       
                                            ###                                      
                                            ####                                     
                                            #####                                    
                                            ######                                   
                                           ########,                                 
                                     ,,################,,,,,                         
                               ,,#################################,,                 
                          ,,##########################################,,             
                       ,#########################################, ''#####,          
                    ,#############################################,,   '####,        
                  ,##################################################,,,,####,       
                ,###########''''           ''''###############################       
              ,#####''   ,,,,##########,,,,          '''####'''          '####       
            ,##' ,,,,###########################,,,                        '##       
           ' ,,###''''                  '''############,,,                           
         ,,##''                                '''############,,,,        ,,,,,,###''
      ,#''                                            '''#######################'''  
     '                                                          ''''####''''         
             ,#######,   #######,   ,#######,      ##                                
            ,#'     '#,  ##    ##  ,#'     '#,    #''#        ,####,   ,####,        
            ##       ##  ##   ,#'  ##            #'  '#       #'       #'  '#        
            ##       ##  #######   ##           ,######,      #####,   #    #        
            '#,     ,#'  ##    ##  '#,     ,#' ,#      #,     #,   #   #,  ,#        
             '#######'   ##     ##  '#######'  #'      '#     '####' # '####'        



                #########################################################
                #                        -***-                          #
                #          Department of theory and spectroscopy        #
                #                                                       #
                #                      Frank Neese                      #
                #                                                       #
                #     Directorship, Architecture, Infrastructure        #
                #                    SHARK, DRIVERS                     #
                #        Core code/Algorithms in most modules           #
                #                                                       #
                #        Max Planck Institute fuer Kohlenforschung      #
                #                Kaiser Wilhelm Platz 1                 #
                #                 D-45470 Muelheim/Ruhr                 #
                #                      Germany                          #
                #                                                       #
                #                  All rights reserved                  #
                #                        -***-                          #
                #########################################################


                         Program Version 6.0.0  -   RELEASE   -


 With contributions from (in alphabetic order):
   Daniel Aravena         : Magnetic Suceptibility
   Michael Atanasov       : Ab Initio Ligand Field Theory (pilot matlab implementation)
   Alexander A. Auer      : GIAO ZORA, VPT2 properties, NMR spectrum
   Ute Becker             : All parallelization in ORCA, NUMFREQ, NUMCALC
   Giovanni Bistoni       : ED, misc. LED, open-shell LED, HFLD
   Martin Brehm           : Molecular dynamics
   Dmytro Bykov           : pre 5.0 version of the SCF Hessian
   Marcos Casanova-Páez   : Triplet and SCS-CIS(D). UHF-(DLPNO)-IP/EA/STEOM-CCSD. UHF-CVS-IP/STEOM-CCSD
   Vijay G. Chilkuri      : MRCI spin determinant printing, contributions to CSF-ICE
   Pauline Colinet        : FMM embedding
   Dipayan Datta          : RHF DLPNO-CCSD density
   Achintya Kumar Dutta   : EOM-CC, STEOM-CC
   Nicolas Foglia         : Exact transition moments, OPA infrastructure, MCD improvements
   Dmitry Ganyushin       : Spin-Orbit,Spin-Spin,Magnetic field MRCI
   Miquel Garcia          : C-PCM and meta-GGA Hessian, CCSD/C-PCM, Gaussian charge scheme
   Tiago L. C. Gouveia    : GS-ROHF, GS-ROCIS
   Yang Guo               : DLPNO-NEVPT2, F12-NEVPT2, CIM, IAO-localization
   Andreas Hansen         : Spin unrestricted coupled pair/coupled cluster methods
   Ingolf Harden          : AUTO-CI MPn and infrastructure 
   Benjamin Helmich-Paris : MC-RPA, TRAH-(SCF,CASSCF), AVAS, COSX integrals, SCF dyn. polar.
   Lee Huntington         : MR-EOM, pCC
   Robert Izsak           : Overlap fitted RIJCOSX, COSX-SCS-MP3, EOM
   Riya Kayal             : Wick's Theorem for AUTO-CI, AUTO-CI UHF-CCSDT
   Emily Kempfer          : AUTO-CI, RHF CISDT and CCSDT
   Christian Kollmar      : KDIIS, OOCD, Brueckner-CCSD(T), CCSD density, CASPT2, CASPT2-K, improved NEVPT2
   Axel Koslowski         : Symmetry handling
   Simone Kossmann        : Meta GGA functionals, TD-DFT gradient, OOMP2, (MP2 Hessian; deprecated post 5.0)
   Lucas Lang             : DCDCAS
   Marvin Lechner         : AUTO-CI (C++ implementation), FIC-MRCC
   Spencer Leger          : CASSCF response
   Dagmar Lenk            : GEPOL surface, SMD, ORCA-2-JSON
   Dimitrios Liakos       : Extrapolation schemes; Compound Job, initial MDCI parallelization
   Dimitrios Manganas     : Further ROCIS development; embedding schemes. LFT, Crystal Embedding
   Dimitrios Pantazis     : SARC Basis sets
   Anastasios Papadopoulos: AUTO-CI, single reference methods and gradients
   Taras Petrenko         : pre 6.0 DFT Hessian and TD-DFT gradient, (ASA, deprecated), ECA, 1-Electron XAS/XES, NRVS
   Peter Pinski           : DLPNO-MP2, DLPNO-MP2 Gradient
   Christoph Reimann      : Effective Core Potentials
   Marius Retegan         : Local ZFS, SOC
   Christoph Riplinger    : Optimizer, TS searches, QM/MM, DLPNO-CCSD(T), (RO)-DLPNO pert. Triples
   Michael Roemelt        : Original ROCIS implementation
   Masaaki Saitow         : Open-shell DLPNO-CCSD energy and density
   Barbara Sandhoefer     : DKH picture change effects
   Kantharuban Sivalingam : CASSCF convergence/infrastructure, NEVPT2 and variants, FIC-MRCI
   Bernardo de Souza      : ESD, SOC TD-DFT
   Georgi Stoychev        : AutoAux, RI-MP2 NMR, DLPNO-MP2 response, X2C
   Van Anh Tran           : RI-MP2 g-tensors
   Willem Van den Heuvel  : Paramagnetic NMR
   Zikuan Wang            : NOTCH, Electric field optimization 
   Frank Wennmohs         : Technical directorship and infrastructure
   Hang Xu                : AUTO-CI-Response properties 


 We gratefully acknowledge several colleagues who have allowed us to
 interface, adapt or use parts of their codes:
   Stefan Grimme, W. Hujo, H. Kruse, P. Pracht,  : VdW corrections, initial TS optimization,
                  C. Bannwarth, S. Ehlert,         DFT functionals, gCP, sTDA/sTD-DF
                  L. Wittmann, M. Mueller
   Ed Valeev, F. Pavosevic, A. Kumar             : LibInt (2-el integral package), F12 methods
   Garnet Chan, S. Sharma, J. Yang, R. Olivares  : DMRG
   Ulf Ekstrom                                   : XCFun DFT Library
   Mihaly Kallay                                 : mrcc  (arbitrary order and MRCC methods)
   Frank Weinhold                                : gennbo (NPA and NBO analysis)
   Simon Mueller                                 : openCOSMO-RS
   Christopher J. Cramer and Donald G. Truhlar   : smd solvation model
   Lars Goerigk                                  : TD-DFT with DH, B97 family of functionals
   V. Asgeirsson, H. Jonsson                     : NEB implementation
   FAccTs GmbH                                   : IRC, NEB, NEB-TS, DLPNO-Multilevel, CI-OPT
                                                   MM, QMMM, 2- and 3-layer-ONIOM, Crystal-QMMM,
                                                   LR-CPCM, SF, NACMEs, symmetry and pop. for TD-DFT,
                                                   nearIR, NL-DFT gradient (VV10), updates on ESD,
                                                   ML-optimized integration grids, MBIS, APM,
                                                   GOAT, DOCKER, SOLVATOR, interface openCOSMO-RS
   S Lehtola, MJT Oliveira, MAL Marques          : LibXC Library
   Liviu Ungur et al                             : ANISO software


 Your calculation uses the libint2 library for the computation of 2-el integrals
 For citations please refer to: http://libint.valeyev.net

 Your ORCA version has been built with support for libXC version: 6.2.2
 For citations please refer to: https://libxc.gitlab.io

 This ORCA versions uses:
   CBLAS   interface :  Fast vector & matrix operations
   LAPACKE interface :  Fast linear algebra routines
   Shared memory     :  Shared parallel matrices


Your calculation utilizes the atom-pairwise dispersion correction
with the Becke-Johnson damping scheme (D3BJ)


Warning: RI is on but no J-basis has been assigned. Assigning Def2/J (nothing to worry about!)
================================================================================

----- Orbital basis set information -----
Your calculation utilizes the basis: def2-SVP
   F. Weigend and R. Ahlrichs, Phys. Chem. Chem. Phys. 7, 3297 (2005).

----- AuxJ basis set information -----
Your calculation utilizes the auxiliary basis: def2/J
   F. Weigend, Phys. Chem. Chem. Phys. 8, 1057 (2006).

================================================================================
                                        WARNINGS
                       Please study these warnings very carefully!
================================================================================


WARNING: Geometry Optimization
  ===> : Switching off AutoStart
         For restart on a previous wavefunction, please use MOREAD

================================================================================
                                       INPUT FILE
================================================================================
NAME = data/geom_opt_P_BP86/11776/11776.inp
|  1> ! RI BP86 def2-SVP D3BJ TIGHTSCF Opt
|  2> %pal
|  3> nprocs 6
|  4> end
|  5> 
|  6> * xyz 0 1
|  7> C     -2.770365   -3.236144   -0.608013
|  8> C     -1.990317   -3.526482    0.506803
|  9> C     -1.178125   -2.537240    1.068385
| 10> C     -1.127785   -1.240494    0.525182
| 11> C     -1.924284   -0.969186   -0.597142
| 12> C     -2.737758   -1.958559   -1.159493
| 13> P     -0.038247   -0.020818    1.330177
| 14> C      1.605642   -0.356379    0.617614
| 15> C      2.721520    0.248737    1.224082
| 16> C      4.013995    0.038643    0.735209
| 17> C      4.215085   -0.783767   -0.368779
| 18> C      3.125091   -1.394681   -0.982061
| 19> C      1.831820   -1.183544   -0.492464
| 20> C     -0.527577    1.569809    0.586414
| 21> C     -1.641799    2.234991    1.129731
| 22> C     -2.077040    3.458845    0.613617
| 23> C     -1.403557    4.042318   -0.454823
| 24> C     -0.296843    3.402446   -1.005427
| 25> C      0.137850    2.177380   -0.488619
| 26> H     -3.403469   -4.003160   -1.045838
| 27> H     -2.011656   -4.521745    0.942859
| 28> H     -0.577129   -2.792504    1.939730
| 29> H     -1.925742    0.013244   -1.062219
| 30> H     -3.346110   -1.726215   -2.029893
| 31> H      2.593191    0.898165    2.088589
| 32> H      4.860730    0.518086    1.219283
| 33> H      5.219029   -0.949583   -0.750125
| 34> H      3.276861   -2.039028   -1.844300
| 35> H      1.009200   -1.676370   -1.004210
| 36> H     -2.188405    1.800623    1.965282
| 37> H     -2.941407    3.953493    1.048754
| 38> H     -1.739275    4.994269   -0.857200
| 39> H      0.233548    3.854583   -1.839650
| 40> H      1.003328    1.710264   -0.951453
| 41> **                         ****END OF INPUT****
================================================================================

                       *****************************
                       * Geometry Optimization Run *
                       *****************************

Geometry optimization settings:
Update method            Update   .... BFGS
Choice of coordinates    CoordSys .... (2022) Redundant Internals
Initial Hessian          InHess   .... Almloef's Model
Max. no of cycles        MaxIter  .... 102

Convergence Tolerances:
Energy Change            TolE     ....  5.0000e-06 Eh
Max. Gradient            TolMAXG  ....  3.0000e-04 Eh/bohr
RMS Gradient             TolRMSG  ....  1.0000e-04 Eh/bohr
Max. Displacement        TolMAXD  ....  4.0000e-03 bohr
RMS Displacement         TolRMSD  ....  2.0000e-03 bohr
Strict Convergence                .... False

------------------------------------------------------------------------------
                        ORCA OPTIMIZATION COORDINATE SETUP
------------------------------------------------------------------------------

The optimization will be done in redundant internal coordinates (2022)
Making redundant internal coordinates   ...  (2022 redundants) done
Evaluating the initial hessian          ...  (Almloef) done
Evaluating the coordinates              ...  done
Calculating the B-matrix                .... done
Calculating the G-matrix                .... done
Diagonalizing the G-matrix              .... done
Small eigenvalue found = 5.617e-03
Small eigenvalue found = 5.617e-03
Small eigenvalue found = 1.062e-02
The first mode is                       ....   81
The number of degrees of freedom        ....   96

    -----------------------------------------------------------------
                    Redundant Internal Coordinates


    -----------------------------------------------------------------
         Definition                    Initial Value    Approx d2E/dq
    -----------------------------------------------------------------
      1. B(C   1,C   0)                  1.3913         0.621926   
      2. B(C   2,C   1)                  1.3977         0.607319   
      3. B(C   3,C   2)                  1.4068         0.587350   
      4. B(C   4,C   3)                  1.4027         0.596267   
      5. B(C   5,C   4)                  1.3989         0.604765   
      6. B(C   5,C   0)                  1.3919         0.620425   
      7. B(P   6,C   3)                  1.8228         0.428228   
      8. B(C   7,P   6)                  1.8228         0.428229   
      9. B(C   8,C   7)                  1.4068         0.587351   
     10. B(C   9,C   8)                  1.3977         0.607321   
     11. B(C  10,C   9)                  1.3913         0.621927   
     12. B(C  11,C  10)                  1.3919         0.620424   
     13. B(C  12,C  11)                  1.3989         0.604768   
     14. B(C  12,C   7)                  1.4027         0.596266   
     15. B(C  13,P   6)                  1.8228         0.428227   
     16. B(C  14,C  13)                  1.4068         0.587352   
     17. B(C  15,C  14)                  1.3977         0.607321   
     18. B(C  16,C  15)                  1.3913         0.621928   
     19. B(C  17,C  16)                  1.3919         0.620425   
     20. B(C  18,C  17)                  1.3989         0.604767   
     21. B(C  18,C  13)                  1.4027         0.596266   
     22. B(H  19,C   0)                  1.0867         0.364549   
     23. B(H  20,C   1)                  1.0868         0.364349   
     24. B(H  21,C   2)                  1.0889         0.361622   
     25. B(H  22,C   4)                  1.0870         0.364153   
     26. B(H  23,C   5)                  1.0870         0.364027   
     27. B(H  24,C   8)                  1.0889         0.361623   
     28. B(H  25,C   9)                  1.0868         0.364346   
     29. B(H  26,C  10)                  1.0867         0.364550   
     30. B(H  27,C  11)                  1.0870         0.364026   
     31. B(H  28,C  12)                  1.0870         0.364155   
     32. B(H  29,C  14)                  1.0889         0.361622   
     33. B(H  30,C  15)                  1.0868         0.364348   
     34. B(H  31,C  16)                  1.0867         0.364549   
     35. B(H  32,C  17)                  1.0870         0.364028   
     36. B(H  33,C  18)                  1.0870         0.364155   
     37. A(C   5,C   0,H  19)          120.1249         0.353684   
     38. A(C   1,C   0,H  19)          120.1464         0.353829   
     39. A(C   1,C   0,C   5)          119.7286         0.434362   
     40. A(C   2,C   1,H  20)          119.8903         0.352376   
     41. A(C   0,C   1,C   2)          120.0034         0.432697   
     42. A(C   0,C   1,H  20)          120.1063         0.353796   
     43. A(C   1,C   2,C   3)          121.2002         0.428276   
     44. A(C   3,C   2,H  21)          120.3532         0.349946   
     45. A(C   1,C   2,H  21)          118.4462         0.351928   
     46. A(C   2,C   3,P   6)          117.8803         0.429113   
     47. A(C   2,C   3,C   4)          117.8332         0.426869   
     48. A(C   4,C   3,P   6)          124.2858         0.430275   
     49. A(C   5,C   4,H  22)          117.8053         0.352093   
     50. A(C   3,C   4,C   5)          121.0009         0.429111   
     51. A(C   3,C   4,H  22)          121.1928         0.351251   
     52. A(C   0,C   5,C   4)          120.2332         0.432182   
     53. A(C   0,C   5,H  23)          120.0207         0.353599   
     54. A(C   4,C   5,H  23)          119.7460         0.352072   
     55. A(C   3,P   6,C   7)          104.0774         0.432542   
     56. A(C   3,P   6,C  13)          104.0772         0.432542   
     57. A(C   7,P   6,C  13)          104.0771         0.432542   
     58. A(C   8,C   7,C  12)          117.8332         0.426869   
     59. A(P   6,C   7,C  12)          124.2859         0.430275   
     60. A(P   6,C   7,C   8)          117.8802         0.429113   
     61. A(C   7,C   8,C   9)          121.2002         0.428276   
     62. A(C   9,C   8,H  24)          118.4462         0.351929   
     63. A(C   7,C   8,H  24)          120.3533         0.349946   
     64. A(C  10,C   9,H  25)          120.1063         0.353796   
     65. A(C   8,C   9,H  25)          119.8902         0.352375   
     66. A(C   8,C   9,C  10)          120.0036         0.432697   
     67. A(C   9,C  10,C  11)          119.7284         0.434362   
     68. A(C  11,C  10,H  26)          120.1250         0.353685   
     69. A(C   9,C  10,H  26)          120.1465         0.353829   
     70. A(C  12,C  11,H  27)          119.7461         0.352072   
     71. A(C  10,C  11,H  27)          120.0206         0.353598   
     72. A(C  10,C  11,C  12)          120.2333         0.432182   
     73. A(C  11,C  12,H  28)          117.8053         0.352093   
     74. A(C   7,C  12,H  28)          121.1928         0.351251   
     75. A(C   7,C  12,C  11)          121.0008         0.429111   
     76. A(C  14,C  13,C  18)          117.8332         0.426869   
     77. A(P   6,C  13,C  18)          124.2859         0.430274   
     78. A(P   6,C  13,C  14)          117.8802         0.429113   
     79. A(C  15,C  14,H  29)          118.4462         0.351928   
     80. A(C  13,C  14,H  29)          120.3533         0.349946   
     81. A(C  13,C  14,C  15)          121.2002         0.428277   
     82. A(C  16,C  15,H  30)          120.1063         0.353796   
     83. A(C  14,C  15,H  30)          119.8902         0.352376   
     84. A(C  14,C  15,C  16)          120.0035         0.432697   
     85. A(C  17,C  16,H  31)          120.1250         0.353684   
     86. A(C  15,C  16,H  31)          120.1465         0.353829   
     87. A(C  15,C  16,C  17)          119.7285         0.434362   
     88. A(C  18,C  17,H  32)          119.7460         0.352072   
     89. A(C  16,C  17,H  32)          120.0206         0.353599   
     90. A(C  16,C  17,C  18)          120.2333         0.432182   
     91. A(C  17,C  18,H  33)          117.8054         0.352093   
     92. A(C  13,C  18,H  33)          121.1928         0.351251   
     93. A(C  13,C  18,C  17)          121.0008         0.429111   
     94. D(H  20,C   1,C   0,C   5)    179.9512         0.026775   
     95. D(C   2,C   1,C   0,H  19)   -179.9333         0.026775   
     96. D(H  20,C   1,C   0,H  19)      0.0250         0.026775   
     97. D(C   2,C   1,C   0,C   5)     -0.0070         0.026775   
     98. D(C   3,C   2,C   1,C   0)     -0.1387         0.025461   
     99. D(C   3,C   2,C   1,H  20)    179.9030         0.025461   
    100. D(H  21,C   2,C   1,C   0)   -179.9204         0.025461   
    101. D(H  21,C   2,C   1,H  20)      0.1213         0.025461   
    102. D(P   6,C   3,C   2,H  21)     -0.2523         0.023730   
    103. D(C   4,C   3,C   2,C   1)      0.2542         0.023730   
    104. D(C   4,C   3,C   2,H  21)   -179.9681         0.023730   
    105. D(P   6,C   3,C   2,C   1)    179.9701         0.023730   
    106. D(H  22,C   4,C   3,C   2)   -179.8503         0.024493   
    107. D(C   5,C   4,C   3,C   2)     -0.2314         0.024493   
    108. D(C   5,C   4,C   3,P   6)   -179.9274         0.024493   
    109. D(H  22,C   4,C   3,P   6)      0.4537         0.024493   
    110. D(H  23,C   5,C   4,H  22)     -0.3101         0.025235   
    111. D(C   0,C   5,C   4,H  22)    179.7254         0.025235   
    112. D(H  23,C   5,C   0,H  19)     -0.0090         0.026638   
    113. D(H  23,C   5,C   0,C   1)   -179.9353         0.026638   
    114. D(C   4,C   5,C   0,H  19)    179.9554         0.026638   
    115. D(H  23,C   5,C   4,C   3)   -179.9415         0.025235   
    116. D(C   4,C   5,C   0,C   1)      0.0292         0.026638   
    117. D(C   0,C   5,C   4,C   3)      0.0939         0.025235   
    118. D(C  13,P   6,C   3,C   4)     11.7312         0.003783   
    119. D(C  13,P   6,C   3,C   2)   -167.9647         0.003783   
    120. D(C   7,P   6,C   3,C   4)    -97.0167         0.003783   
    121. D(C   7,P   6,C   3,C   2)     83.2875         0.003783   
    122. D(C  12,C   7,P   6,C   3)     11.7287         0.003783   
    123. D(C   8,C   7,P   6,C  13)     83.2851         0.003783   
    124. D(C   8,C   7,P   6,C   3)   -167.9670         0.003783   
    125. D(C  12,C   7,P   6,C  13)    -97.0191         0.003783   
    126. D(H  24,C   8,C   7,C  12)   -179.9682         0.023730   
    127. D(H  24,C   8,C   7,P   6)     -0.2524         0.023730   
    128. D(C   9,C   8,C   7,C  12)      0.2544         0.023730   
    129. D(C   9,C   8,C   7,P   6)    179.9701         0.023730   
    130. D(H  25,C   9,C   8,H  24)      0.1215         0.025461   
    131. D(H  25,C   9,C   8,C   7)    179.9032         0.025461   
    132. D(C  10,C   9,C   8,H  24)   -179.9204         0.025461   
    133. D(C  10,C   9,C   8,C   7)     -0.1387         0.025461   
    134. D(H  26,C  10,C   9,H  25)      0.0248         0.026775   
    135. D(H  26,C  10,C   9,C   8)   -179.9333         0.026775   
    136. D(C  11,C  10,C   9,H  25)    179.9511         0.026775   
    137. D(C  11,C  10,C   9,C   8)     -0.0069         0.026775   
    138. D(H  27,C  11,C  10,H  26)     -0.0088         0.026638   
    139. D(H  27,C  11,C  10,C   9)   -179.9352         0.026638   
    140. D(C  12,C  11,C  10,H  26)    179.9553         0.026638   
    141. D(C  12,C  11,C  10,C   9)      0.0289         0.026638   
    142. D(H  28,C  12,C  11,H  27)     -0.3099         0.025235   
    143. D(C   7,C  12,C  11,H  27)   -179.9416         0.025235   
    144. D(C   7,C  12,C  11,C  10)      0.0942         0.025235   
    145. D(H  28,C  12,C   7,C   8)   -179.8507         0.024493   
    146. D(H  28,C  12,C   7,P   6)      0.4534         0.024493   
    147. D(H  28,C  12,C  11,C  10)    179.7258         0.025235   
    148. D(C  11,C  12,C   7,C   8)     -0.2316         0.024493   
    149. D(C  11,C  12,C   7,P   6)   -179.9275         0.024493   
    150. D(C  18,C  13,P   6,C   7)     11.7318         0.003783   
    151. D(C  18,C  13,P   6,C   3)    -97.0163         0.003783   
    152. D(C  14,C  13,P   6,C   7)   -167.9642         0.003783   
    153. D(C  14,C  13,P   6,C   3)     83.2877         0.003783   
    154. D(H  29,C  14,C  13,P   6)     -0.2521         0.023730   
    155. D(C  15,C  14,C  13,C  18)      0.2543         0.023730   
    156. D(C  15,C  14,C  13,P   6)    179.9702         0.023730   
    157. D(H  29,C  14,C  13,C  18)   -179.9680         0.023730   
    158. D(H  30,C  15,C  14,H  29)      0.1213         0.025461   
    159. D(H  30,C  15,C  14,C  13)    179.9032         0.025461   
    160. D(C  16,C  15,C  14,H  29)   -179.9206         0.025461   
    161. D(C  16,C  15,C  14,C  13)     -0.1387         0.025461   
    162. D(H  31,C  16,C  15,H  30)      0.0248         0.026775   
    163. D(H  31,C  16,C  15,C  14)   -179.9332         0.026775   
    164. D(C  17,C  16,C  15,H  30)    179.9510         0.026775   
    165. D(C  17,C  16,C  15,C  14)     -0.0070         0.026775   
    166. D(H  32,C  17,C  16,H  31)     -0.0092         0.026638   
    167. D(H  32,C  17,C  16,C  15)   -179.9355         0.026638   
    168. D(C  18,C  17,C  16,H  31)    179.9555         0.026638   
    169. D(C  18,C  17,C  16,C  15)      0.0292         0.026638   
    170. D(H  33,C  18,C  17,H  32)     -0.3099         0.025235   
    171. D(H  33,C  18,C  17,C  16)    179.7254         0.025235   
    172. D(C  13,C  18,C  17,H  32)   -179.9414         0.025235   
    173. D(C  13,C  18,C  17,C  16)      0.0939         0.025235   
    174. D(H  33,C  18,C  13,C  14)   -179.8504         0.024493   
    175. D(H  33,C  18,C  13,P   6)      0.4535         0.024493   
    176. D(C  17,C  18,C  13,C  14)     -0.2314         0.024493   
    177. D(C  17,C  18,C  13,P   6)   -179.9275         0.024493   
    -----------------------------------------------------------------

Number of atoms                         .... 34
Number of degrees of freedom            .... 177


         *************************************************************
         *                GEOMETRY OPTIMIZATION CYCLE   1            *
         *************************************************************
---------------------------------
CARTESIAN COORDINATES (ANGSTROEM)
---------------------------------
  C     -2.770365   -3.236144   -0.608013
  C     -1.990317   -3.526482    0.506803
  C     -1.178125   -2.537240    1.068385
  C     -1.127785   -1.240494    0.525182
  C     -1.924284   -0.969186   -0.597142
  C     -2.737758   -1.958559   -1.159493
  P     -0.038247   -0.020818    1.330177
  C      1.605642   -0.356379    0.617614
  C      2.721520    0.248737    1.224082
  C      4.013995    0.038643    0.735209
  C      4.215085   -0.783767   -0.368779
  C      3.125091   -1.394681   -0.982061
  C      1.831820   -1.183544   -0.492464
  C     -0.527577    1.569809    0.586414
  C     -1.641799    2.234991    1.129731
  C     -2.077040    3.458845    0.613617
  C     -1.403557    4.042318   -0.454823
  C     -0.296843    3.402446   -1.005427
  C      0.137850    2.177380   -0.488619
  H     -3.403469   -4.003160   -1.045838
  H     -2.011656   -4.521745    0.942859
  H     -0.577129   -2.792504    1.939730
  H     -1.925742    0.013244   -1.062219
  H     -3.346110   -1.726215   -2.029893
  H      2.593191    0.898165    2.088589
  H      4.860730    0.518086    1.219283
  H      5.219029   -0.949583   -0.750125
  H      3.276861   -2.039028   -1.844300
  H      1.009200   -1.676370   -1.004210
  H     -2.188405    1.800623    1.965282
  H     -2.941407    3.953493    1.048754
  H     -1.739275    4.994269   -0.857200
  H      0.233548    3.854583   -1.839650
  H      1.003328    1.710264   -0.951453

----------------------------
CARTESIAN COORDINATES (A.U.)
----------------------------
  NO LB      ZA    FRAG     MASS         X           Y           Z
   0 C     6.0000    0    12.011   -5.235231   -6.115426   -1.148978
   1 C     6.0000    0    12.011   -3.761154   -6.664085    0.957719
   2 C     6.0000    0    12.011   -2.226334   -4.794689    2.018955
   3 C     6.0000    0    12.011   -2.131205   -2.344194    0.992450
   4 C     6.0000    0    12.011   -3.636370   -1.831496   -1.128435
   5 C     6.0000    0    12.011   -5.173613   -3.701140   -2.191124
   6 P    15.0000    0    30.974   -0.072276   -0.039340    2.513670
   7 C     6.0000    0    12.011    3.034224   -0.673459    1.167121
   8 C     6.0000    0    12.011    5.142927    0.470045    2.313180
   9 C     6.0000    0    12.011    7.585351    0.073025    1.389344
  10 C     6.0000    0    12.011    7.965356   -1.481105   -0.696891
  11 C     6.0000    0    12.011    5.905566   -2.635565   -1.855826
  12 C     6.0000    0    12.011    3.461638   -2.236574   -0.930622
  13 C     6.0000    0    12.011   -0.996976    2.966509    1.108162
  14 C     6.0000    0    12.011   -3.102550    4.223521    2.134882
  15 C     6.0000    0    12.011   -3.925037    6.536270    1.159568
  16 C     6.0000    0    12.011   -2.652338    7.638874   -0.859491
  17 C     6.0000    0    12.011   -0.560952    6.429691   -1.899982
  18 C     6.0000    0    12.011    0.260499    4.114652   -0.923356
  19 H     1.0000    0     1.008   -6.431624   -7.564876   -1.976347
  20 H     1.0000    0     1.008   -3.801479   -8.544860    1.781745
  21 H     1.0000    0     1.008   -1.090616   -5.277068    3.665558
  22 H     1.0000    0     1.008   -3.639125    0.025028   -2.007303
  23 H     1.0000    0     1.008   -6.323232   -3.262074   -3.835942
  24 H     1.0000    0     1.008    4.900421    1.697286    3.946861
  25 H     1.0000    0     1.008    9.185449    0.979041    2.304111
  26 H     1.0000    0     1.008    9.862535   -1.794452   -1.417531
  27 H     1.0000    0     1.008    6.192370   -3.853204   -3.485222
  28 H     1.0000    0     1.008    1.907112   -3.167880   -1.897682
  29 H     1.0000    0     1.008   -4.135486    3.402684    3.713845
  30 H     1.0000    0     1.008   -5.558454    7.471019    1.981858
  31 H     1.0000    0     1.008   -3.286753    9.437801   -1.619873
  32 H     1.0000    0     1.008    0.441342    7.284106   -3.476435
  33 H     1.0000    0     1.008    1.896015    3.231931   -1.797986

--------------------------------
INTERNAL COORDINATES (ANGSTROEM)
--------------------------------
 C      0   0   0     0.000000000000     0.00000000     0.00000000
 C      1   0   0     1.391253302028     0.00000000     0.00000000
 C      2   1   0     1.397723120705   120.00344812     0.00000000
 C      3   2   1     1.406824012919   121.20019355   359.86132100
 C      4   3   2     1.402722299260   117.83321855     0.25423653
 C      1   2   3     1.391911218100   119.72857967     0.00000000
 P      4   3   2     1.822832836122   117.88028393   179.97008045
 C      7   4   3     1.822832482158   104.07742102    83.28747366
 C      8   7   4     1.406823556586   117.88024818   192.03301053
 C      9   8   7     1.397722406127   121.20018923   179.97006599
 C     10   9   8     1.391252996527   120.00355156   359.86127780
 C     11  10   9     1.391911508306   119.72843289     0.00000000
 C     12  11  10     1.398868805363   120.23334188     0.02892530
 C      7   4   3     1.822833372033   104.07716989   192.03531574
 C     14   7   4     1.406823059555   117.88024501    83.28774385
 C     15  14   7     1.397722076234   121.20020601   179.97020513
 C     16  15  14     1.391252718458   120.00350007   359.86126426
 C     17  16  15     1.391911210888   119.72849785     0.00000000
 C     18  17  16     1.398869263895   120.23332631     0.02916215
 H      1   2   3     1.086657696654   120.14644162   180.06674723
 H      2   1   3     1.086806619057   120.10628599   179.95822133
 H      3   2   1     1.088851693637   118.44619705   180.07957070
 H      5   4   3     1.086953286298   121.19284012   180.14967922
 H      6   1   2     1.087047400181   120.02073370   180.06467962
 H      9   8   7     1.088851418915   120.35326415   359.74755926
 H     10   9   8     1.086808809290   119.89015481   179.90315762
 H     11  10   9     1.086656925026   120.14653000   180.06673905
 H     12  11  10     1.087047966941   120.02057853   180.06478662
 H     13  12  11     1.086952206489   117.80532266   179.72582802
 H     15  14   7     1.088852217824   120.35325664   359.74790228
 H     16  15  14     1.086807785840   119.89017534   179.90317764
 H     17  16  15     1.086657504485   120.14650920   180.06675642
 H     18  17  16     1.087046684084   120.02062412   180.06454165
 H     19  18  17     1.086952086109   117.80537419   179.72539223

---------------------------
INTERNAL COORDINATES (A.U.)
---------------------------
 C      0   0   0     0.000000000000     0.00000000     0.00000000
 C      1   0   0     2.629087723747     0.00000000     0.00000000
 C      2   1   0     2.641313909181   120.00344812     0.00000000
 C      3   2   1     2.658512103041   121.20019355   359.86132100
 C      4   3   2     2.650760987546   117.83321855     0.25423653
 C      1   2   3     2.630331004943   119.72857967     0.00000000
 P      4   3   2     3.444654848190   117.88028393   179.97008045
 C      7   4   3     3.444654179295   104.07742102    83.28747366
 C      8   7   4     2.658511240696   117.88024818   192.03301053
 C      9   8   7     2.641312558826   121.20018923   179.97006599
 C     10   9   8     2.629087146432   120.00355156   359.86127780
 C     11  10   9     2.630331553352   119.72843289     0.00000000
 C     12  11  10     2.643478939423   120.23334188     0.02892530
 C      7   4   3     3.444655860915   104.07716989   192.03531574
 C     14   7   4     2.658510301445   117.88024501    83.28774385
 C     15  14   7     2.641311935419   121.20020601   179.97020513
 C     16  15  14     2.629086620960   120.00350007   359.86126426
 C     17  16  15     2.630330991313   119.72849785     0.00000000
 C     18  17  16     2.643479805921   120.23332631     0.02916215
 H      1   2   3     2.053485447993   120.14644162   180.06674723
 H      2   1   3     2.053766870551   120.10628599   179.95822133
 H      3   2   1     2.057631501431   118.44619705   180.07957070
 H      5   4   3     2.054044031468   121.19284012   180.14967922
 H      6   1   2     2.054221880933   120.02073370   180.06467962
 H      9   8   7     2.057630982282   120.35326415   359.74755926
 H     10   9   8     2.053771009491   119.89015481   179.90315762
 H     11  10   9     2.053483989829   120.14653000   180.06673905
 H     12  11  10     2.054222951954   120.02057853   180.06478662
 H     13  12  11     2.054041990926   117.80532266   179.72582802
 H     15  14   7     2.057632492001   120.35325664   359.74790228
 H     16  15  14     2.053769075451   119.89017534   179.90317764
 H     17  16  15     2.053485084847   120.14650920   180.06675642
 H     18  17  16     2.054220527707   120.02062412   180.06454165
 H     19  18  17     2.054041763440   117.80537419   179.72539223

---------------------
BASIS SET INFORMATION
---------------------
There are 3 groups of distinct atoms

 Group   1 Type C   : 7s4p1d contracted to 3s2p1d pattern {511/31/1}
 Group   2 Type P   : 10s7p1d contracted to 4s3p1d pattern {5311/511/1}
 Group   3 Type H   : 4s1p contracted to 2s1p pattern {31/1}

Atom   0C    basis set group =>   1
Atom   1C    basis set group =>   1
Atom   2C    basis set group =>   1
Atom   3C    basis set group =>   1
Atom   4C    basis set group =>   1
Atom   5C    basis set group =>   1
Atom   6P    basis set group =>   2
Atom   7C    basis set group =>   1
Atom   8C    basis set group =>   1
Atom   9C    basis set group =>   1
Atom  10C    basis set group =>   1
Atom  11C    basis set group =>   1
Atom  12C    basis set group =>   1
Atom  13C    basis set group =>   1
Atom  14C    basis set group =>   1
Atom  15C    basis set group =>   1
Atom  16C    basis set group =>   1
Atom  17C    basis set group =>   1
Atom  18C    basis set group =>   1
Atom  19H    basis set group =>   3
Atom  20H    basis set group =>   3
Atom  21H    basis set group =>   3
Atom  22H    basis set group =>   3
Atom  23H    basis set group =>   3
Atom  24H    basis set group =>   3
Atom  25H    basis set group =>   3
Atom  26H    basis set group =>   3
Atom  27H    basis set group =>   3
Atom  28H    basis set group =>   3
Atom  29H    basis set group =>   3
Atom  30H    basis set group =>   3
Atom  31H    basis set group =>   3
Atom  32H    basis set group =>   3
Atom  33H    basis set group =>   3
---------------------------------
AUXILIARY/J BASIS SET INFORMATION
---------------------------------
There are 3 groups of distinct atoms

 Group   1 Type C   : 12s5p4d2f1g contracted to 6s4p3d1f1g pattern {711111/2111/211/2/1}
 Group   2 Type P   : 14s5p5d2f1g contracted to 8s4p3d1f1g pattern {71111111/2111/311/2/1}
 Group   3 Type H   : 5s2p1d contracted to 3s1p1d pattern {311/2/1}

Atom   0C    basis set group =>   1
Atom   1C    basis set group =>   1
Atom   2C    basis set group =>   1
Atom   3C    basis set group =>   1
Atom   4C    basis set group =>   1
Atom   5C    basis set group =>   1
Atom   6P    basis set group =>   2
Atom   7C    basis set group =>   1
Atom   8C    basis set group =>   1
Atom   9C    basis set group =>   1
Atom  10C    basis set group =>   1
Atom  11C    basis set group =>   1
Atom  12C    basis set group =>   1
Atom  13C    basis set group =>   1
Atom  14C    basis set group =>   1
Atom  15C    basis set group =>   1
Atom  16C    basis set group =>   1
Atom  17C    basis set group =>   1
Atom  18C    basis set group =>   1
Atom  19H    basis set group =>   3
Atom  20H    basis set group =>   3
Atom  21H    basis set group =>   3
Atom  22H    basis set group =>   3
Atom  23H    basis set group =>   3
Atom  24H    basis set group =>   3
Atom  25H    basis set group =>   3
Atom  26H    basis set group =>   3
Atom  27H    basis set group =>   3
Atom  28H    basis set group =>   3
Atom  29H    basis set group =>   3
Atom  30H    basis set group =>   3
Atom  31H    basis set group =>   3
Atom  32H    basis set group =>   3
Atom  33H    basis set group =>   3


           ************************************************************
           *        Program running with 6 parallel MPI-processes     *
           *              working on a common directory               *
           ************************************************************
------------------------------------------------------------------------------
                             ORCA STARTUP CALCULATIONS
                           -- RI-GTO INTEGRALS CHOSEN --
------------------------------------------------------------------------------
------------------------------------------------------------------------------
                   ___                                                        
                  /   \      - P O W E R E D   B Y -                         
                 /     \                                                     
                 |  |  |   _    _      __       _____    __    __             
                 |  |  |  | |  | |    /  \     |  _  \  |  |  /  |          
                  \  \/   | |  | |   /    \    | | | |  |  | /  /          
                 / \  \   | |__| |  /  /\  \   | |_| |  |  |/  /          
                |  |  |   |  __  | /  /__\  \  |    /   |      \           
                |  |  |   | |  | | |   __   |  |    \   |  |\   \          
                \     /   | |  | | |  |  |  |  | |\  \  |  | \   \       
                 \___/    |_|  |_| |__|  |__|  |_| \__\ |__|  \__/        
                                                                              
                      - O R C A' S   B I G   F R I E N D -                    
                                      &                                       
                       - I N T E G R A L  F E E D E R -                       
                                                                              
 v1 FN, 2020, v2 2021, v3 2022-2024                                           
------------------------------------------------------------------------------


----------------------
SHARK INTEGRAL PACKAGE
----------------------

Number of atoms                             ...     34
Number of basis functions                   ...    345
Number of shells                            ...    161
Maximum angular momentum                    ...      2
Integral batch strategy                     ... SHARK/LIBINT Hybrid
RI-J (if used) integral strategy            ... SPLIT-RIJ (Revised 2003 algorithm where possible)
Printlevel                                  ...      1
Contraction scheme used                     ... SEGMENTED contraction
Prescreening option                         ... SCHWARTZ
   Thresh                                   ... 2.500e-11
   Tcut                                     ... 2.500e-12
   Tpresel                                  ... 2.500e-12 
Coulomb Range Separation                    ... NOT USED
Exchange Range Separation                   ... NOT USED
Multipole approximations                    ... NOT USED
Finite Nucleus Model                        ... NOT USED
CABS basis                                  ... NOT available
Auxiliary Coulomb fitting basis             ... AVAILABLE
   # of basis functions in Aux-J            ...   1098
   # of shells in Aux-J                     ...    362
   Maximum angular momentum in Aux-J        ...      4
Auxiliary J/K fitting basis                 ... NOT available
Auxiliary Correlation fitting basis         ... NOT available
Auxiliary 'external' fitting basis          ... NOT available

Checking pre-screening integrals            ... done (  0.0 sec) Dimension = 161
Check shell pair data                       ... done (  0.0 sec)
Shell pair information
Shell pair cut-off parameter TPreSel        ...   2.5e-12
Total number of shell pairs                 ...     13041
Shell pairs after pre-screening             ...     10274
Total number of primitive shell pairs       ...     48197
Primitive shell pairs kept                  ...     24544
          la=0 lb=0:   3154 shell pairs
          la=1 lb=0:   3830 shell pairs
          la=1 lb=1:   1194 shell pairs
          la=2 lb=0:   1222 shell pairs
          la=2 lb=1:    756 shell pairs
          la=2 lb=2:    118 shell pairs

Calculating one electron integrals          ... done (  0.0 sec)
Calculating RI/J V-Matrix + Cholesky decomp.... done (  0.1 sec)
Calculating Nuclear repulsion               ... done (  0.0 sec) ENN=   1404.635941162027 Eh

Diagonalization of the overlap matrix:
Smallest eigenvalue                        ... 2.736e-04
Time for diagonalization                   ...    0.016 sec
Threshold for overlap eigenvalues          ... 1.000e-07
Number of eigenvalues below threshold      ... 0
Time for construction of square roots      ...    0.009 sec
Total time needed                          ...    0.026 sec

-------------------
DFT GRID GENERATION
-------------------

General Integration Accuracy     IntAcc      ... 4.388
Radial Grid Type                 RadialGrid  ... OptM3 with GC (2021)
Angular Grid (max. ang.)         AngularGrid ... 4 (Lebedev-302)
Angular grid pruning method      GridPruning ... 4 (adaptive)
Weight generation scheme         WeightScheme... mBecke (2022)
Basis function cutoff            BFCut       ... 1.0000e-11
Integration weight cutoff        WCut        ... 1.0000e-14
Partially contracted basis set               ... off
Rotationally invariant grid construction     ... off
Angular grids for H and He will be reduced by one unit

Total number of grid points                  ...   162739
Total number of batches                      ...     2564
Average number of points per batch           ...       63
Average number of grid points per atom       ...     4786
Initializing property integral containers    ... done (  0.0 sec)

SHARK setup successfully completed in   1.1 seconds

Maximum memory used throughout the entire STARTUP-calculation: 43.1 MB


           ************************************************************
           *        Program running with 6 parallel MPI-processes     *
           *              working on a common directory               *
           ************************************************************
-------------------------------------------------------------------------------
                                 ORCA GUESS
                   Start orbitals & Density for SCF / CASSCF
-------------------------------------------------------------------------------

------------
SCF SETTINGS
------------
Hamiltonian:
 Density Functional     Method          .... DFT(GTOs)
 Exchange Functional    Exchange        .... B88
   X-Alpha parameter    XAlpha          ....  0.666667
   Becke's b parameter  XBeta           ....  0.004200
 Correlation Functional Correlation     .... P86
 LDA part of GGA corr.  LDAOpt          .... PW91-LDA
 Gradients option       PostSCFGGA      .... off
   NL short-range parameter             ....  4.400000
 RI-approximation to the Coulomb term is turned on
   Number of AuxJ basis functions       .... 1098


General Settings:
 Integral files         IntName         .... data/geom_opt_P_BP86/11776/11776
 Hartree-Fock type      HFTyp           .... RHF
 Total Charge           Charge          ....    0
 Multiplicity           Mult            ....    1
 Number of Electrons    NEL             ....  138
 Basis Dimension        Dim             ....  345
 Nuclear Repulsion      ENuc            ....   1404.6359411620 Eh

Convergence Acceleration:
 AO-DIIS                CNVDIIS         .... on
   Start iteration      DIISMaxIt       ....    12
   Startup error        DIISStart       ....  0.200000
   # of expansion vecs  DIISMaxEq       ....     5
   Bias factor          DIISBfac        ....   1.050
   Max. coefficient     DIISMaxC        ....  10.000
 MO-DIIS                CNVKDIIS        .... off
 Trust-Rad. Augm. Hess. CNVTRAH         .... auto
   Auto Start mean grad. ratio tolernc. ....  1.125000
   Auto Start start iteration           ....    50
   Auto Start num. interpolation iter.  ....    10
   Max. Number of Micro iterations      ....    24
   Max. Number of Macro iterations      .... Maxiter - #DIIS iter
   Number of Davidson start vectors     ....     2
   Converg. threshold    (grad. norm)   ....   1.000e-05
   Grad. Scal. Fac. for Micro threshold ....   0.100
   Minimum threshold for Micro iter.    ....   1.000e-02
   NR start threshold (gradient norm)   ....   1.000e-04
   Initial trust radius                 ....   0.400
   Minimum AH scaling param. (alpha)    ....   1.000
   Maximum AH scaling param. (alpha)    .... 1000.000
   Quad. conv. algorithm                .... NR
   White noise on init. David. guess    .... on
   Maximum white noise                  ....   0.010
   Pseudo random numbers                .... off
   Inactive MOs                         .... canonical
   Orbital update algorithm             .... Taylor
   Preconditioner                       .... Diag
   Full preconditioner red. dimension   ....   250
 SOSCF                  CNVSOSCF        .... on
   Start iteration      SOSCFMaxIt      ....   150
   Startup grad/error   SOSCFStart      ....  0.003300
   Hessian update       SOSCFHessUp     .... L-BFGS
 Level Shifting         CNVShift        .... on
   Level shift para.    LevelShift      ....    0.2500
   Turn off err/grad.   ShiftErr        ....    0.0010
 Zerner damping         CNVZerner       .... off
 Static damping         CNVDamp         .... on
   Fraction old density DampFac         ....    0.7000
   Max. Damping (<1)    DampMax         ....    0.9800
   Min. Damping (>=0)   DampMin         ....    0.0000
   Turn off err/grad.   DampErr         ....    0.1000

SCF Procedure:
 Maximum # iterations   MaxIter         ....   125
 SCF integral mode      SCFMode         .... Direct
   Integral package                     .... SHARK and LIBINT hybrid scheme
 Reset frequency        DirectResetFreq ....    20
 Integral Threshold     Thresh          ....  2.500e-11 Eh
 Primitive CutOff       TCut            ....  2.500e-12 Eh

Convergence Tolerance:
 Convergence Check Mode ConvCheckMode   .... Total+1el-Energy
 Convergence forced     ConvForced      .... 0
 Energy Change          TolE            ....  1.000e-08 Eh
 1-El. energy change                    ....  1.000e-05 Eh
 Orbital Gradient       TolG            ....  1.000e-05
 Orbital Rotation angle TolX            ....  1.000e-05
 DIIS Error             TolErr          ....  5.000e-07

------------------------------
INITIAL GUESS: MODEL POTENTIAL
------------------------------
Loading Hartree-Fock densities                     ... done
Calculating cut-offs                               ... done
Initializing the effective Hamiltonian             ... done
Setting up the integral package (SHARK)            ... done
Starting the Coulomb interaction                   ... done (   0.2 sec)
Making the grid                                    ... done (   0.3 sec)
Mapping shells                                     ... done
Starting the XC term evaluation                    ... done (   0.1 sec)
  promolecular density results
     # of electrons  =    138.000089163
     EX              =   -119.618539325
     EC              =     -5.098621995
     EX+EC           =   -124.717161320
Transforming the Hamiltonian                       ... done (   0.0 sec)
Diagonalizing the Hamiltonian                      ... done (   0.0 sec)
Back transforming the eigenvectors                 ... done (   0.0 sec)
Now organizing SCF variables                       ... done
                      ------------------
                      INITIAL GUESS DONE (   0.6 sec)
                      ------------------
             **** ENERGY FILE WAS UPDATED (data/geom_opt_P_BP86/11776/11776.en.tmp) ****
Finished Guess after   0.7 sec
Maximum memory used throughout the entire GUESS-calculation: 24.3 MB


           ************************************************************
           *        Program running with 6 parallel MPI-processes     *
           *              working on a common directory               *
           ************************************************************

-------------------------------------------------------------------------------------------
                                      ORCA LEAN-SCF
                              memory conserving SCF solver
-------------------------------------------------------------------------------------------

----------------------------------------D-I-I-S--------------------------------------------
Iteration    Energy (Eh)           Delta-E    RMSDP     MaxDP     DIISErr   Damp  Time(sec)
-------------------------------------------------------------------------------------------
               ***  Starting incremental Fock matrix formation  ***
    1    -1035.4086796135397890     0.00e+00  2.10e-03  5.80e-02  1.09e-01  0.700   0.8
    2    -1035.5591323754288169    -1.50e-01  1.49e-03  5.92e-02  5.05e-02  0.700   0.8
                               ***Turning on AO-DIIS***
    3    -1035.6158676900595310    -5.67e-02  6.46e-04  3.49e-02  1.82e-02  0.700   0.9
    4    -1035.6490765715579982    -3.32e-02  1.19e-03  6.32e-02  8.91e-03  0.000   0.8
    5    -1035.7223510622052345    -7.33e-02  2.33e-04  1.54e-02  4.46e-03  0.000   0.8
                              *** Initializing SOSCF ***
---------------------------------------S-O-S-C-F--------------------------------------
Iteration    Energy (Eh)           Delta-E    RMSDP     MaxDP     MaxGrad    Time(sec)
--------------------------------------------------------------------------------------
    6    -1035.7228911570609853    -5.40e-04  8.37e-05  5.02e-03  8.11e-04     0.8
               *** Restarting incremental Fock matrix formation ***
    7    -1035.7229198236072989    -2.87e-05  5.58e-05  2.39e-03  1.73e-04     0.8
    8    -1035.7229188759215504     9.48e-07  2.30e-05  7.53e-04  3.02e-04     0.7
    9    -1035.7229223185236151    -3.44e-06  2.58e-05  1.63e-03  1.21e-04     0.7
   10    -1035.7229223565923348    -3.81e-08  1.09e-05  6.72e-04  9.58e-05     0.7
   11    -1035.7229232180775398    -8.61e-07  1.06e-05  7.70e-04  6.29e-05     0.6
   12    -1035.7229229639751793     2.54e-07  5.91e-06  4.14e-04  8.37e-05     0.7
   13    -1035.7229233747643775    -4.11e-07  3.23e-06  1.83e-04  1.41e-05     0.6
   14    -1035.7229233460338946     2.87e-08  1.86e-06  1.14e-04  2.30e-05     0.7
   15    -1035.7229234019991964    -5.60e-08  5.52e-07  1.56e-05  1.85e-06     0.7
                  *** Gradient check signals convergence ***

               *****************************************************
               *                     SUCCESS                       *
               *           SCF CONVERGED AFTER  15 CYCLES          *
               *****************************************************

             **** ENERGY FILE WAS UPDATED (data/geom_opt_P_BP86/11776/11776.en.tmp) ****

----------------
TOTAL SCF ENERGY
----------------

Total Energy       :      -1035.72292340199920 Eh          -28183.45356 eV

Components:
Nuclear Repulsion  :       1404.63594116202739 Eh           38222.08713 eV
Electronic Energy  :      -2440.35886456402659 Eh          -66405.54070 eV
One Electron Energy:      -4199.92751559440421 Eh         -114285.83788 eV
Two Electron Energy:       1759.56865103037762 Eh           47880.29718 eV

Virial components:
Potential Energy   :      -2062.37887905256684 Eh          -56120.18239 eV
Kinetic Energy     :       1026.65595565056765 Eh           27936.72883 eV
Virial Ratio       :          2.00883155423346

DFT components:
N(Alpha)           :       69.000088474936 electrons
N(Beta)            :       69.000088474936 electrons
N(Total)           :      138.000176949871 electrons
E(X)               :     -121.318843590877 Eh       
E(C)               :       -5.105805248302 Eh       
E(XC)              :     -126.424648839179 Eh       

---------------
SCF CONVERGENCE
---------------

  Last Energy change         ...    5.5965e-08  Tolerance :   1.0000e-08
  Last MAX-Density change    ...    1.5573e-05  Tolerance :   1.0000e-07
  Last RMS-Density change    ...    5.5234e-07  Tolerance :   5.0000e-09
  Last DIIS Error            ...    8.1054e-04  Tolerance :   5.0000e-07
  Last Orbital Gradient      ...    1.8531e-06  Tolerance :   1.0000e-05
  Last Orbital Rotation      ...    1.4046e-05  Tolerance :   1.0000e-05


----------------
ORBITAL ENERGIES
----------------

  NO   OCC          E(Eh)            E(eV) 
   0   2.0000     -76.341494     -2077.3577 
   1   2.0000      -9.924389      -270.0563 
   2   2.0000      -9.924378      -270.0561 
   3   2.0000      -9.924301      -270.0540 
   4   2.0000      -9.920848      -269.9600 
   5   2.0000      -9.920834      -269.9596 
   6   2.0000      -9.920829      -269.9595 
   7   2.0000      -9.919127      -269.9132 
   8   2.0000      -9.919099      -269.9124 
   9   2.0000      -9.919094      -269.9123 
  10   2.0000      -9.918725      -269.9022 
  11   2.0000      -9.918721      -269.9021 
  12   2.0000      -9.918719      -269.9021 
  13   2.0000      -9.918330      -269.8915 
  14   2.0000      -9.918328      -269.8914 
  15   2.0000      -9.918326      -269.8914 
  16   2.0000      -9.918123      -269.8858 
  17   2.0000      -9.918121      -269.8858 
  18   2.0000      -9.918116      -269.8857 
  19   2.0000      -6.310970      -171.7302 
  20   2.0000      -4.532328      -123.3309 
  21   2.0000      -4.532326      -123.3309 
  22   2.0000      -4.528615      -123.2299 
  23   2.0000      -0.782529       -21.2937 
  24   2.0000      -0.774779       -21.0828 
  25   2.0000      -0.774778       -21.0828 
  26   2.0000      -0.701690       -19.0940 
  27   2.0000      -0.674197       -18.3458 
  28   2.0000      -0.674195       -18.3458 
  29   2.0000      -0.672143       -18.2900 
  30   2.0000      -0.669600       -18.2208 
  31   2.0000      -0.669599       -18.2207 
  32   2.0000      -0.589427       -16.0391 
  33   2.0000      -0.546849       -14.8805 
  34   2.0000      -0.546847       -14.8805 
  35   2.0000      -0.544262       -14.8101 
  36   2.0000      -0.536322       -14.5941 
  37   2.0000      -0.536320       -14.5940 
  38   2.0000      -0.504794       -13.7362 
  39   2.0000      -0.469821       -12.7845 
  40   2.0000      -0.469820       -12.7844 
  41   2.0000      -0.444502       -12.0955 
  42   2.0000      -0.411293       -11.1919 
  43   2.0000      -0.411291       -11.1918 
  44   2.0000      -0.409682       -11.1480 
  45   2.0000      -0.401890       -10.9360 
  46   2.0000      -0.401888       -10.9359 
  47   2.0000      -0.395236       -10.7549 
  48   2.0000      -0.377145       -10.2626 
  49   2.0000      -0.376756       -10.2520 
  50   2.0000      -0.376753       -10.2520 
  51   2.0000      -0.367809       -10.0086 
  52   2.0000      -0.367807       -10.0085 
  53   2.0000      -0.336637        -9.1604 
  54   2.0000      -0.334511        -9.1025 
  55   2.0000      -0.334509        -9.1024 
  56   2.0000      -0.324198        -8.8219 
  57   2.0000      -0.306841        -8.3496 
  58   2.0000      -0.306838        -8.3495 
  59   2.0000      -0.306182        -8.3316 
  60   2.0000      -0.290029        -7.8921 
  61   2.0000      -0.290025        -7.8920 
  62   2.0000      -0.251617        -6.8468 
  63   2.0000      -0.239658        -6.5214 
  64   2.0000      -0.239656        -6.5214 
  65   2.0000      -0.237347        -6.4585 
  66   2.0000      -0.231442        -6.2979 
  67   2.0000      -0.231440        -6.2978 
  68   2.0000      -0.185626        -5.0511 
  69   0.0000      -0.058043        -1.5794 
  70   0.0000      -0.058038        -1.5793 
  71   0.0000      -0.053616        -1.4590 
  72   0.0000      -0.039959        -1.0873 
  73   0.0000      -0.038968        -1.0604 
  74   0.0000      -0.038966        -1.0603 
  75   0.0000       0.034274         0.9326 
  76   0.0000       0.034276         0.9327 
  77   0.0000       0.044481         1.2104 
  78   0.0000       0.061146         1.6639 
  79   0.0000       0.061147         1.6639 
*Only the first 10 virtual orbitals were printed.

                    ********************************
                    * MULLIKEN POPULATION ANALYSIS *
                    ********************************

-----------------------
MULLIKEN ATOMIC CHARGES
-----------------------
   0 C :    0.009731
   1 C :    0.009262
   2 C :    0.010873
   3 C :   -0.126833
   4 C :   -0.000005
   5 C :    0.012726
   6 P :    0.285287
   7 C :   -0.126917
   8 C :    0.010895
   9 C :    0.009269
  10 C :    0.009734
  11 C :    0.012664
  12 C :    0.000058
  13 C :   -0.126520
  14 C :    0.010827
  15 C :    0.009349
  16 C :    0.009674
  17 C :    0.012666
  18 C :   -0.000136
  19 H :   -0.004254
  20 H :   -0.003221
  21 H :   -0.003312
  22 H :    0.005714
  23 H :   -0.005827
  24 H :   -0.003306
  25 H :   -0.003215
  26 H :   -0.004248
  27 H :   -0.005827
  28 H :    0.005741
  29 H :   -0.003277
  30 H :   -0.003209
  31 H :   -0.004245
  32 H :   -0.005809
  33 H :    0.005692
Sum of atomic charges:   -0.0000000

--------------------------------
MULLIKEN REDUCED ORBITAL CHARGES
--------------------------------
  0 C s       :     3.168462  s :     3.168462
      pz      :     0.947251  p :     2.788645
      px      :     0.931882
      py      :     0.909512
      dz2     :     0.006835  d :     0.033163
      dxz     :     0.004764
      dyz     :     0.008676
      dx2y2   :     0.005418
      dxy     :     0.007471

  1 C s       :     3.168526  s :     3.168526
      pz      :     0.951266  p :     2.789315
      px      :     0.979062
      py      :     0.858988
      dz2     :     0.006841  d :     0.032896
      dxz     :     0.005450
      dyz     :     0.007915
      dx2y2   :     0.007371
      dxy     :     0.005319

  2 C s       :     3.219405  s :     3.219405
      pz      :     0.888634  p :     2.737197
      px      :     0.915968
      py      :     0.932595
      dz2     :     0.005231  d :     0.032525
      dxz     :     0.004625
      dyz     :     0.007887
      dx2y2   :     0.007308
      dxy     :     0.007474

  3 C s       :     3.075177  s :     3.075177
      pz      :     0.992432  p :     3.016723
      px      :     1.014452
      py      :     1.009839
      dz2     :     0.007659  d :     0.034933
      dxz     :     0.005387
      dyz     :     0.008968
      dx2y2   :     0.005720
      dxy     :     0.007199

  4 C s       :     3.234315  s :     3.234315
      pz      :     0.935716  p :     2.733031
      px      :     0.958392
      py      :     0.838923
      dz2     :     0.006629  d :     0.032659
      dxz     :     0.005356
      dyz     :     0.008027
      dx2y2   :     0.007301
      dxy     :     0.005346

  5 C s       :     3.168385  s :     3.168385
      pz      :     0.887525  p :     2.785988
      px      :     0.940108
      py      :     0.958354
      dz2     :     0.005421  d :     0.032901
      dxz     :     0.004644
      dyz     :     0.007848
      dx2y2   :     0.007574
      dxy     :     0.007412

  6 P s       :     5.655581  s :     5.655581
      pz      :     3.346839  p :     8.883567
      px      :     2.768507
      py      :     2.768221
      dz2     :     0.015444  d :     0.175565
      dxz     :     0.034207
      dyz     :     0.035558
      dx2y2   :     0.046346
      dxy     :     0.044010

  7 C s       :     3.075281  s :     3.075281
      pz      :     0.993880  p :     3.016703
      px      :     0.998138
      py      :     1.024685
      dz2     :     0.007609  d :     0.034933
      dxz     :     0.009542
      dyz     :     0.004881
      dx2y2   :     0.007000
      dxy     :     0.005901

  8 C s       :     3.219358  s :     3.219358
      pz      :     0.891824  p :     2.737222
      px      :     0.916091
      py      :     0.929307
      dz2     :     0.005137  d :     0.032525
      dxz     :     0.008268
      dyz     :     0.004259
      dx2y2   :     0.007475
      dxy     :     0.007386

  9 C s       :     3.168518  s :     3.168518
      pz      :     0.946859  p :     2.789316
      px      :     0.887005
      py      :     0.955452
      dz2     :     0.006513  d :     0.032896
      dxz     :     0.009016
      dyz     :     0.004416
      dx2y2   :     0.005890
      dxy     :     0.007061

 10 C s       :     3.168449  s :     3.168449
      pz      :     0.952345  p :     2.788654
      px      :     0.862624
      py      :     0.973686
      dz2     :     0.007058  d :     0.033163
      dxz     :     0.008229
      dyz     :     0.004941
      dx2y2   :     0.007269
      dxy     :     0.005666

 11 C s       :     3.168393  s :     3.168393
      pz      :     0.888764  p :     2.786043
      px      :     0.964681
      py      :     0.932598
      dz2     :     0.005337  d :     0.032901
      dxz     :     0.008258
      dyz     :     0.004237
      dx2y2   :     0.007440
      dxy     :     0.007629

 12 C s       :     3.234212  s :     3.234212
      pz      :     0.934620  p :     2.733071
      px      :     0.840487
      py      :     0.957964
      dz2     :     0.006332  d :     0.032659
      dxz     :     0.009030
      dyz     :     0.004378
      dx2y2   :     0.005750
      dxy     :     0.007168

 13 C s       :     3.075099  s :     3.075099
      pz      :     0.993548  p :     3.016489
      px      :     1.022342
      py      :     1.000600
      dz2     :     0.007340  d :     0.034932
      dxz     :     0.006436
      dyz     :     0.007594
      dx2y2   :     0.007045
      dxy     :     0.006518

 14 C s       :     3.219425  s :     3.219425
      pz      :     0.896057  p :     2.737222
      px      :     0.935426
      py      :     0.905739
      dz2     :     0.004779  d :     0.032526
      dxz     :     0.005838
      dyz     :     0.006610
      dx2y2   :     0.007553
      dxy     :     0.007745

 15 C s       :     3.168498  s :     3.168498
      pz      :     0.952430  p :     2.789258
      px      :     0.892670
      py      :     0.944157
      dz2     :     0.006441  d :     0.032896
      dxz     :     0.005488
      dyz     :     0.007444
      dx2y2   :     0.006367
      dxy     :     0.007157

 16 C s       :     3.168479  s :     3.168479
      pz      :     0.951265  p :     2.788684
      px      :     0.963105
      py      :     0.874314
      dz2     :     0.006617  d :     0.033163
      dxz     :     0.006659
      dyz     :     0.006229
      dx2y2   :     0.007190
      dxy     :     0.006468

 17 C s       :     3.168375  s :     3.168375
      pz      :     0.895343  p :     2.786057
      px      :     0.938322
      py      :     0.952393
      dz2     :     0.004958  d :     0.032901
      dxz     :     0.005813
      dyz     :     0.006602
      dx2y2   :     0.007637
      dxy     :     0.007891

 18 C s       :     3.234227  s :     3.234227
      pz      :     0.937053  p :     2.733250
      px      :     0.897106
      py      :     0.899091
      dz2     :     0.006246  d :     0.032659
      dxz     :     0.005555
      dyz     :     0.007380
      dx2y2   :     0.006540
      dxy     :     0.006938

 19 H s       :     0.981883  s :     0.981883
      pz      :     0.005790  p :     0.022371
      px      :     0.007830
      py      :     0.008751

 20 H s       :     0.980824  s :     0.980824
      pz      :     0.005813  p :     0.022397
      px      :     0.004465
      py      :     0.012119

 21 H s       :     0.980821  s :     0.980821
      pz      :     0.010642  p :     0.022491
      px      :     0.007595
      py      :     0.004254

 22 H s       :     0.971115  s :     0.971115
      pz      :     0.005870  p :     0.023171
      px      :     0.004482
      py      :     0.012818

 23 H s       :     0.983480  s :     0.983480
      pz      :     0.010521  p :     0.022347
      px      :     0.007570
      py      :     0.004256

 24 H s       :     0.980816  s :     0.980816
      pz      :     0.010537  p :     0.022490
      px      :     0.003950
      py      :     0.008004

 25 H s       :     0.980819  s :     0.980819
      pz      :     0.006197  p :     0.022396
      px      :     0.009732
      py      :     0.006468

 26 H s       :     0.981877  s :     0.981877
      pz      :     0.005416  p :     0.022371
      px      :     0.012186
      py      :     0.004770

 27 H s       :     0.983480  s :     0.983480
      pz      :     0.010414  p :     0.022347
      px      :     0.003908
      py      :     0.008025

 28 H s       :     0.971089  s :     0.971089
      pz      :     0.006261  p :     0.023170
      px      :     0.010351
      py      :     0.006558

 29 H s       :     0.980789  s :     0.980789
      pz      :     0.010182  p :     0.022489
      px      :     0.006514
      py      :     0.005793

 30 H s       :     0.980813  s :     0.980813
      pz      :     0.005876  p :     0.022396
      px      :     0.010453
      py      :     0.006067

 31 H s       :     0.981874  s :     0.981874
      pz      :     0.005608  p :     0.022371
      px      :     0.005132
      py      :     0.011631

 32 H s       :     0.983461  s :     0.983461
      pz      :     0.010072  p :     0.022347
      px      :     0.006543
      py      :     0.005732

 33 H s       :     0.971136  s :     0.971136
      pz      :     0.005925  p :     0.023172
      px      :     0.010893
      py      :     0.006353



                     *******************************
                     * LOEWDIN POPULATION ANALYSIS *
                     *******************************

----------------------
LOEWDIN ATOMIC CHARGES
----------------------
   0 C :   -0.027059
   1 C :   -0.028756
   2 C :   -0.028173
   3 C :   -0.176578
   4 C :   -0.031972
   5 C :   -0.028429
   6 P :    0.509083
   7 C :   -0.176601
   8 C :   -0.028183
   9 C :   -0.028747
  10 C :   -0.027055
  11 C :   -0.028430
  12 C :   -0.031965
  13 C :   -0.176552
  14 C :   -0.028197
  15 C :   -0.028746
  16 C :   -0.027066
  17 C :   -0.028425
  18 C :   -0.031989
  19 H :    0.029823
  20 H :    0.031127
  21 H :    0.028571
  22 H :    0.031333
  23 H :    0.030420
  24 H :    0.028573
  25 H :    0.031129
  26 H :    0.029825
  27 H :    0.030421
  28 H :    0.031338
  29 H :    0.028583
  30 H :    0.031129
  31 H :    0.029824
  32 H :    0.030423
  33 H :    0.031320

-------------------------------
LOEWDIN REDUCED ORBITAL CHARGES
-------------------------------
  0 C s       :     2.863121  s :     2.863121
      pz      :     1.026941  p :     3.074065
      px      :     0.999511
      py      :     1.047613
      dz2     :     0.017445  d :     0.089873
      dxz     :     0.013472
      dyz     :     0.024478
      dx2y2   :     0.015429
      dxy     :     0.019048

  1 C s       :     2.863641  s :     2.863641
      pz      :     1.028649  p :     3.075936
      px      :     1.011588
      py      :     1.035699
      dz2     :     0.017429  d :     0.089179
      dxz     :     0.015998
      dyz     :     0.021821
      dx2y2   :     0.018893
      dxy     :     0.015038

  2 C s       :     2.869324  s :     2.869324
      pz      :     1.015414  p :     3.069897
      px      :     0.998869
      py      :     1.055614
      dz2     :     0.013834  d :     0.088952
      dxz     :     0.011928
      dyz     :     0.022012
      dx2y2   :     0.020496
      dxy     :     0.020682

  3 C s       :     2.914715  s :     2.914715
      pz      :     1.058235  p :     3.170756
      px      :     1.040937
      py      :     1.071584
      dz2     :     0.018394  d :     0.091108
      dxz     :     0.015173
      dyz     :     0.024421
      dx2y2   :     0.015831
      dxy     :     0.017288

  4 C s       :     2.868449  s :     2.868449
      pz      :     1.018354  p :     3.074117
      px      :     1.011431
      py      :     1.044332
      dz2     :     0.016989  d :     0.089406
      dxz     :     0.016273
      dyz     :     0.022231
      dx2y2   :     0.018816
      dxy     :     0.015097

  5 C s       :     2.864276  s :     2.864276
      pz      :     1.013930  p :     3.074976
      px      :     1.001093
      py      :     1.059953
      dz2     :     0.013844  d :     0.089176
      dxz     :     0.011862
      dyz     :     0.022246
      dx2y2   :     0.020910
      dxy     :     0.020315

  6 P s       :     5.234871  s :     5.234871
      pz      :     3.407748  p :     9.011913
      px      :     2.802256
      py      :     2.801909
      dz2     :     0.022063  d :     0.244133
      dxz     :     0.046026
      dyz     :     0.048225
      dx2y2   :     0.065761
      dxy     :     0.062058

  7 C s       :     2.914713  s :     2.914713
      pz      :     1.057538  p :     3.170779
      px      :     1.079259
      py      :     1.033982
      dz2     :     0.018112  d :     0.091109
      dxz     :     0.025620
      dyz     :     0.014338
      dx2y2   :     0.017548
      dxy     :     0.015491

  8 C s       :     2.869323  s :     2.869323
      pz      :     1.014270  p :     3.069909
      px      :     1.063661
      py      :     0.991978
      dz2     :     0.013560  d :     0.088951
      dxz     :     0.023199
      dyz     :     0.010749
      dx2y2   :     0.022084
      dxy     :     0.019360

  9 C s       :     2.863640  s :     2.863640
      pz      :     1.026659  p :     3.075927
      px      :     1.048695
      py      :     1.000573
      dz2     :     0.016604  d :     0.089179
      dxz     :     0.025093
      dyz     :     0.012652
      dx2y2   :     0.016820
      dxy     :     0.018010

 10 C s       :     2.863120  s :     2.863120
      pz      :     1.027167  p :     3.074061
      px      :     1.043972
      py      :     1.002923
      dz2     :     0.017861  d :     0.089873
      dxz     :     0.022930
      dyz     :     0.014535
      dx2y2   :     0.019268
      dxy     :     0.015279

 11 C s       :     2.864275  s :     2.864275
      pz      :     1.013382  p :     3.074979
      px      :     1.066622
      py      :     0.994974
      dz2     :     0.013616  d :     0.089176
      dxz     :     0.023375
      dyz     :     0.010667
      dx2y2   :     0.021418
      dxy     :     0.020101

 12 C s       :     2.868445  s :     2.868445
      pz      :     1.016625  p :     3.074115
      px      :     1.054671
      py      :     1.002819
      dz2     :     0.016218  d :     0.089406
      dxz     :     0.025726
      dyz     :     0.012609
      dx2y2   :     0.016363
      dxy     :     0.018491

 13 C s       :     2.914712  s :     2.914712
      pz      :     1.053037  p :     3.170729
      px      :     1.051514
      py      :     1.066178
      dz2     :     0.017161  d :     0.091110
      dxz     :     0.018345
      dyz     :     0.020397
      dx2y2   :     0.017580
      dxy     :     0.017628

 14 C s       :     2.869325  s :     2.869325
      pz      :     1.011046  p :     3.069920
      px      :     1.021949
      py      :     1.036926
      dz2     :     0.012499  d :     0.088951
      dxz     :     0.015554
      dyz     :     0.017936
      dx2y2   :     0.020069
      dxy     :     0.022893

 15 C s       :     2.863641  s :     2.863641
      pz      :     1.023375  p :     3.075924
      px      :     1.014270
      py      :     1.038280
      dz2     :     0.016074  d :     0.089180
      dxz     :     0.015138
      dyz     :     0.021387
      dx2y2   :     0.017213
      dxy     :     0.019367

 16 C s       :     2.863120  s :     2.863120
      pz      :     1.022056  p :     3.074073
      px      :     1.029537
      py      :     1.022480
      dz2     :     0.016498  d :     0.089873
      dxz     :     0.019356
      dyz     :     0.017148
      dx2y2   :     0.018691
      dxy     :     0.018181

 17 C s       :     2.864274  s :     2.864274
      pz      :     1.010201  p :     3.074974
      px      :     1.025970
      py      :     1.038804
      dz2     :     0.012534  d :     0.089177
      dxz     :     0.015668
      dyz     :     0.017922
      dx2y2   :     0.020467
      dxy     :     0.022585

 18 C s       :     2.868444  s :     2.868444
      pz      :     1.012900  p :     3.074138
      px      :     1.021129
      py      :     1.040108
      dz2     :     0.015669  d :     0.089408
      dxz     :     0.015192
      dyz     :     0.021933
      dx2y2   :     0.017820
      dxy     :     0.018794

 19 H s       :     0.902002  s :     0.902002
      pz      :     0.017617  p :     0.068174
      px      :     0.023605
      py      :     0.026952

 20 H s       :     0.900776  s :     0.900776
      pz      :     0.017586  p :     0.068097
      px      :     0.013344
      py      :     0.037167

 21 H s       :     0.902522  s :     0.902522
      pz      :     0.032493  p :     0.068908
      px      :     0.023151
      py      :     0.013263

 22 H s       :     0.898236  s :     0.898236
      pz      :     0.018110  p :     0.070431
      px      :     0.013504
      py      :     0.038817

 23 H s       :     0.901444  s :     0.901444
      pz      :     0.032040  p :     0.068136
      px      :     0.022791
      py      :     0.013305

 24 H s       :     0.902519  s :     0.902519
      pz      :     0.032196  p :     0.068908
      px      :     0.012034
      py      :     0.024679

 25 H s       :     0.900774  s :     0.900774
      pz      :     0.018743  p :     0.068096
      px      :     0.029984
      py      :     0.019369

 26 H s       :     0.902001  s :     0.902001
      pz      :     0.016473  p :     0.068175
      px      :     0.037397
      py      :     0.014304

 27 H s       :     0.901443  s :     0.901443
      pz      :     0.031705  p :     0.068136
      px      :     0.012324
      py      :     0.024107

 28 H s       :     0.898231  s :     0.898231
      pz      :     0.019368  p :     0.070431
      px      :     0.031178
      py      :     0.019884

 29 H s       :     0.902509  s :     0.902509
      pz      :     0.031015  p :     0.068908
      px      :     0.020336
      py      :     0.017557

 30 H s       :     0.900774  s :     0.900774
      pz      :     0.017716  p :     0.068096
      px      :     0.031788
      py      :     0.018592

 31 H s       :     0.902001  s :     0.902001
      pz      :     0.017005  p :     0.068175
      px      :     0.015705
      py      :     0.035465

 32 H s       :     0.901441  s :     0.901441
      pz      :     0.030618  p :     0.068136
      px      :     0.019919
      py      :     0.017599

 33 H s       :     0.898249  s :     0.898249
      pz      :     0.018232  p :     0.070431
      px      :     0.033101
      py      :     0.019098



                      *****************************
                      * MAYER POPULATION ANALYSIS *
                      *****************************

  NA   - Mulliken gross atomic population
  ZA   - Total nuclear charge
  QA   - Mulliken gross atomic charge
  VA   - Mayer's total valence
  BVA  - Mayer's bonded valence
  FA   - Mayer's free valence

  ATOM       NA         ZA         QA         VA         BVA        FA
  0 C      5.9903     6.0000     0.0097     3.8258     3.8258    -0.0000
[...]
      dyz     :     0.013904
      dx2y2   :     0.018013
      dxy     :     0.014587

 11 C s       :     2.873018  s :     2.873018
      pz      :     1.013089  p :     3.071344
      px      :     1.063747
      py      :     0.994508
      dz2     :     0.013457  d :     0.086298
      dxz     :     0.022717
      dyz     :     0.010286
      dx2y2   :     0.020506
      dxy     :     0.019332

 12 C s       :     2.876341  s :     2.876341
      pz      :     1.020427  p :     3.072100
      px      :     1.050629
      py      :     1.001044
      dz2     :     0.016774  d :     0.087012
      dxz     :     0.024505
      dyz     :     0.012742
      dx2y2   :     0.015795
      dxy     :     0.017197

 13 C s       :     2.924074  s :     2.924074
      pz      :     1.051662  p :     3.160230
      px      :     1.049742
      py      :     1.058825
      dz2     :     0.016739  d :     0.087969
      dxz     :     0.018339
      dyz     :     0.018999
      dx2y2   :     0.016796
      dxy     :     0.017096

 14 C s       :     2.876351  s :     2.876351
      pz      :     1.013117  p :     3.070712
      px      :     1.024554
      py      :     1.033042
      dz2     :     0.012918  d :     0.087140
      dxz     :     0.015715
      dyz     :     0.017324
      dx2y2   :     0.019198
      dxy     :     0.021984

 15 C s       :     2.872797  s :     2.872797
      pz      :     1.024108  p :     3.072086
      px      :     1.014589
      py      :     1.033389
      dz2     :     0.016319  d :     0.086146
      dxz     :     0.015223
      dyz     :     0.020369
      dx2y2   :     0.015833
      dxy     :     0.018402

 16 C s       :     2.873726  s :     2.873726
      pz      :     1.021398  p :     3.070438
      px      :     1.029969
      py      :     1.019071
      dz2     :     0.015553  d :     0.085699
      dxz     :     0.019040
      dyz     :     0.016302
      dx2y2   :     0.017443
      dxy     :     0.017361

 17 C s       :     2.873030  s :     2.873030
      pz      :     1.010206  p :     3.071320
      px      :     1.025757
      py      :     1.035357
      dz2     :     0.012424  d :     0.086290
      dxz     :     0.015713
      dyz     :     0.016937
      dx2y2   :     0.019649
      dxy     :     0.021568

 18 C s       :     2.876365  s :     2.876365
      pz      :     1.016703  p :     3.072123
      px      :     1.021808
      py      :     1.033613
      dz2     :     0.016216  d :     0.087000
      dxz     :     0.015075
      dyz     :     0.021048
      dx2y2   :     0.016241
      dxy     :     0.018421

 19 H s       :     0.901138  s :     0.901138
      pz      :     0.017888  p :     0.065930
      px      :     0.022315
      py      :     0.025728

 20 H s       :     0.900413  s :     0.900413
      pz      :     0.015967  p :     0.065825
      px      :     0.012645
      py      :     0.037213

 21 H s       :     0.902148  s :     0.902148
      pz      :     0.032536  p :     0.066634
      px      :     0.021664
      py      :     0.012433

 22 H s       :     0.895223  s :     0.895223
      pz      :     0.015926  p :     0.069159
      px      :     0.012916
      py      :     0.040318

 23 H s       :     0.900835  s :     0.900835
      pz      :     0.031714  p :     0.065849
      px      :     0.021366
      py      :     0.012769

 24 H s       :     0.902156  s :     0.902156
      pz      :     0.032266  p :     0.066643
      px      :     0.011211
      py      :     0.023165

 25 H s       :     0.900404  s :     0.900404
      pz      :     0.017067  p :     0.065827
      px      :     0.030031
      py      :     0.018728

 26 H s       :     0.901137  s :     0.901137
      pz      :     0.016644  p :     0.065931
      px      :     0.035904
      py      :     0.013382

 27 H s       :     0.900839  s :     0.900839
      pz      :     0.031483  p :     0.065847
      px      :     0.011261
      py      :     0.023103

 28 H s       :     0.895261  s :     0.895261
      pz      :     0.017071  p :     0.069140
      px      :     0.033196
      py      :     0.018873

 29 H s       :     0.902159  s :     0.902159
      pz      :     0.031072  p :     0.066649
      px      :     0.019144
      py      :     0.016433

 30 H s       :     0.900398  s :     0.900398
      pz      :     0.016098  p :     0.065827
      px      :     0.031491
      py      :     0.018238

 31 H s       :     0.901134  s :     0.901134
      pz      :     0.017232  p :     0.065931
      px      :     0.014816
      py      :     0.033882

 32 H s       :     0.900835  s :     0.900835
      pz      :     0.030312  p :     0.065849
      px      :     0.019404
      py      :     0.016132

 33 H s       :     0.895218  s :     0.895218
      pz      :     0.016078  p :     0.069140
      px      :     0.033046
      py      :     0.020016



                      *****************************
                      * MAYER POPULATION ANALYSIS *
                      *****************************

  NA   - Mulliken gross atomic population
  ZA   - Total nuclear charge
  QA   - Mulliken gross atomic charge
  VA   - Mayer's total valence
  BVA  - Mayer's bonded valence
  FA   - Mayer's free valence

  ATOM       NA         ZA         QA         VA         BVA        FA
  0 C      5.9969     6.0000     0.0031     3.8250     3.8250    -0.0000
  1 C      6.0008     6.0000    -0.0008     3.8576     3.8576    -0.0000
  2 C      5.9850     6.0000     0.0150     3.8657     3.8657    -0.0000
  3 C      6.1630     6.0000    -0.1630     3.8441     3.8441    -0.0000
  4 C      5.9936     6.0000     0.0064     3.8800     3.8800    -0.0000
  5 C      5.9966     6.0000     0.0034     3.8346     3.8346    -0.0000
  6 P     14.6981    15.0000     0.3019     2.9865     2.9865    -0.0000
  7 C      6.1631     6.0000    -0.1631     3.8443     3.8443    -0.0000
  8 C      5.9849     6.0000     0.0151     3.8657     3.8657    -0.0000
  9 C      6.0008     6.0000    -0.0008     3.8574     3.8574    -0.0000
 10 C      5.9969     6.0000     0.0031     3.8251     3.8251    -0.0000
 11 C      5.9967     6.0000     0.0033     3.8348     3.8348    -0.0000
 12 C      5.9936     6.0000     0.0064     3.8799     3.8799    -0.0000
 13 C      6.1629     6.0000    -0.1629     3.8443     3.8443    -0.0000
 14 C      5.9848     6.0000     0.0152     3.8654     3.8654    -0.0000
 15 C      6.0007     6.0000    -0.0007     3.8572     3.8572    -0.0000
 16 C      5.9969     6.0000     0.0031     3.8250     3.8250    -0.0000
 17 C      5.9966     6.0000     0.0034     3.8349     3.8349    -0.0000
 18 C      5.9939     6.0000     0.0061     3.8803     3.8803    -0.0000
 19 H      0.9951     1.0000     0.0049     0.9788     0.9788    -0.0000
 20 H      0.9947     1.0000     0.0053     0.9789     0.9789     0.0000
 21 H      0.9955     1.0000     0.0045     0.9903     0.9903    -0.0000
 22 H      0.9824     1.0000     0.0176     0.9907     0.9907    -0.0000
 23 H      0.9971     1.0000     0.0029     0.9788     0.9788    -0.0000
 24 H      0.9955     1.0000     0.0045     0.9903     0.9903    -0.0000
 25 H      0.9947     1.0000     0.0053     0.9789     0.9789    -0.0000
 26 H      0.9951     1.0000     0.0049     0.9788     0.9788    -0.0000
 27 H      0.9971     1.0000     0.0029     0.9788     0.9788     0.0000
 28 H      0.9825     1.0000     0.0175     0.9907     0.9907    -0.0000
 29 H      0.9955     1.0000     0.0045     0.9903     0.9903    -0.0000
 30 H      0.9947     1.0000     0.0053     0.9789     0.9789     0.0000
 31 H      0.9951     1.0000     0.0049     0.9788     0.9788    -0.0000
 32 H      0.9971     1.0000     0.0029     0.9788     0.9788    -0.0000
 33 H      0.9824     1.0000     0.0176     0.9907     0.9907    -0.0000

  Mayer bond orders larger than 0.100000
B(  0-C ,  1-C ) :   1.3743 B(  0-C ,  5-C ) :   1.3793 B(  0-C , 19-H ) :   0.9757 
B(  1-C ,  2-C ) :   1.4044 B(  1-C , 20-H ) :   0.9758 B(  2-C ,  3-C ) :   1.3617 
B(  2-C , 21-H ) :   0.9715 B(  3-C ,  4-C ) :   1.3838 B(  3-C ,  6-P ) :   0.9349 
B(  4-C ,  5-C ) :   1.3815 B(  4-C , 22-H ) :   0.9666 B(  5-C , 23-H ) :   0.9747 
B(  6-P ,  7-C ) :   0.9351 B(  6-P , 13-C ) :   0.9350 B(  7-C ,  8-C ) :   1.3617 
B(  7-C , 12-C ) :   1.3836 B(  8-C ,  9-C ) :   1.4043 B(  8-C , 24-H ) :   0.9715 
B(  9-C , 10-C ) :   1.3743 B(  9-C , 25-H ) :   0.9758 B( 10-C , 11-C ) :   1.3794 
B( 10-C , 26-H ) :   0.9757 B( 11-C , 12-C ) :   1.3816 B( 11-C , 27-H ) :   0.9747 
B( 12-C , 28-H ) :   0.9667 B( 13-C , 14-C ) :   1.3616 B( 13-C , 18-C ) :   1.3839 
B( 14-C , 15-C ) :   1.4043 B( 14-C , 29-H ) :   0.9714 B( 15-C , 16-C ) :   1.3742 
B( 15-C , 30-H ) :   0.9758 B( 16-C , 17-C ) :   1.3794 B( 16-C , 31-H ) :   0.9757 
B( 17-C , 18-C ) :   1.3816 B( 17-C , 32-H ) :   0.9747 B( 18-C , 33-H ) :   0.9666 


-------
TIMINGS
-------

Total SCF time: 0 days 0 hours 0 min 6 sec 

Total time                  ....       6.902 sec
Sum of individual times     ....       6.821 sec  ( 98.8%)

SCF preparation             ....       0.127 sec  (  1.8%)
Fock matrix formation       ....       6.221 sec  ( 90.1%)
  Startup                   ....       0.030 sec  (  0.5% of F)
  Split-RI-J                ....       2.053 sec  ( 33.0% of F)
  XC integration            ....       4.034 sec  ( 64.8% of F)
    Basis function eval.    ....       1.177 sec  ( 29.2% of XC)
    Density eval.           ....       1.153 sec  ( 28.6% of XC)
    XC-Functional eval.     ....       0.108 sec  (  2.7% of XC)
    XC-Potential eval.      ....       0.911 sec  ( 22.6% of XC)
Diagonalization             ....       0.000 sec  (  0.0%)
Density matrix formation    ....       0.059 sec  (  0.9%)
Total Energy calculation    ....       0.023 sec  (  0.3%)
Population analysis         ....       0.075 sec  (  1.1%)
Orbital Transformation      ....       0.033 sec  (  0.5%)
Orbital Orthonormalization  ....       0.000 sec  (  0.0%)
DIIS solution               ....       0.049 sec  (  0.7%)
SOSCF solution              ....       0.234 sec  (  3.4%)
Finished LeanSCF after   7.0 sec

Maximum memory used throughout the entire LEANSCF-calculation: 36.0 MB


-------------------------------------------------------------------------------
                          DFT DISPERSION CORRECTION                            
                                                                               
                              DFTD3 V3.1  Rev 1                                
                          USING Becke-Johnson damping                          
-------------------------------------------------------------------------------
The BP86 functional is recognized
Active option DFTDOPT                   ...         4   

molecular C6(AA) [au] = 16615.933632 


            DFT-D V3
 parameters
 s6 scaling factor         :     1.0000 
 a1 scaling factor         :     0.3946 
 s8 scaling factor         :     3.2822 
 a2 scaling factor         :     4.8516 
 ad hoc parameters k1-k3   :    16.0000     1.3333    -4.0000 

 Edisp/kcal,au: -51.299762507266  -0.081751366562 
 E6   /kcal   : -18.484682036 
 E8   /kcal   : -32.815080471 
 % E8         :  63.967314598 

-------------------------   ----------------
Dispersion correction           -0.081751367
-------------------------   ----------------


-------------------------   --------------------
FINAL SINGLE POINT ENERGY     -1035.809957293486
-------------------------   --------------------

                                *** OPTIMIZATION RUN DONE ***



           ************************************************************
           *        Program running with 6 parallel MPI-processes     *
           *              working on a common directory               *
           ************************************************************

------------------------------------------------------------------------------
                              ORCA PROPERTY CALCULATIONS
------------------------------------------------------------------------------

GBWName                                 ... data/geom_opt_P_BP86/11776/11776.gbw
Number of atoms                         ...     34
Number of basis functions               ...    345
Max core memory                         ...   1024 MB

Electric properties:
Dipole moment                           ... YES
Quadrupole moment                       ...  NO
Static polarizability (Dipole/Dipole)   ...  NO
Static polarizability (Dipole/Quad.)    ...  NO
Static polarizability (Quad./Quad.)     ...  NO
Static polarizability (Velocity)        ...  NO

Atomic electric properties:
Dipole moment                           ...  NO
Quadrupole moment                       ...  NO
Static polarizability                   ...  NO

Choice of electric origin               ... Center of mass
Position of electric origin             ...    -0.011120    -0.006352     0.391000

General magnetic properties:
Magnetizability                         ...  NO

EPR properties:
g-Tensor (aka g-matrix)                 ...  NO
Zero-Field splitting spin-orbit         ...  NO
Zero-field splitting spin-spin          ...  NO
Hyperfine couplings                     ...  NO (   0 nuclei)
Quadrupole couplings                    ...  NO (   0 nuclei)
Contact density                         ...  NO (   0 nuclei)

NMR properties:
Chemical shifts                         ...  NO (   0 nuclei)
Spin-rotation constants                 ...  NO (   0 nuclei)
Spin-spin couplings                     ...  NO (   0 nuclei,    0 pairs)

Choice of magnetic origin               ... GIAO
Position of magnetic origin             ...     0.000000     0.000000     0.000000

Properties with geometric perturbations:
SCF Hessian                             ...  NO
IR spectrum                             ...  NO
VCD spectrum                            ...  NO
X-ray spectroscopy properties:
SCF XES/XAS/RIXS spectra                ...  NO


-------------
DIPOLE MOMENT
-------------

Method             : SCF
Type of density    : Electron Density
Multiplicity       :   1
Irrep              :   0
Energy             : -1035.7282059269239198 Eh
Relativity type    : 
Basis              : AO
                                X                 Y                 Z
Electronic contribution:     -0.163254793      -0.093438269       5.740029726
Nuclear contribution   :      0.178488244       0.102182751      -6.282111493
                        -----------------------------------------
Total Dipole Moment    :      0.015233450       0.008744482      -0.542081767
                        -----------------------------------------
Magnitude (a.u.)       :      0.542366265
Magnitude (Debye)      :      1.378585489



--------------------
Rotational spectrum 
--------------------
 
Rotational constants in cm-1:             0.011871             0.011857             0.007056 
Rotational constants in MHz :           355.890322           355.477699           211.542112 

Dipole components along the rotational axes: 
x,y,z [a.u.] :    -0.000088    -0.000491    -0.542366 
x,y,z [Debye]:    -0.000223    -0.001249    -1.378585 

 

Dipole moment calculation done in   0.0 sec 

Maximum memory used throughout the entire PROP-calculation: 18.0 MB

--------------------------------
SUGGESTED CITATIONS FOR THIS RUN
--------------------------------

Below you find a list of papers that are relevant to this ORCA run
We neither can nor want to force you to cite these papers, but we appreciate if you do
You receive ORCA, which is the product of decades of hard work by many enthusiastic individuals, for free
The only thing we kindly ask in return is that you cite our papers,
We deeply appreciate it, if you show your appreciation for ORCA by not just citing the generic ORCA reference.

Please note that relegating all ORCA citations to the supporting information does *not* help us.
SI sections are not indexed - citations you put there will not count into any citation statistics
But we need these citations in order to attract the funding resources that allow us to do what we are doing

Therefore, if you are a happy ORCA user, please consider citing a few of the papers listed below in the main body of your paper

In addition to the list printed below, the program has created the file data/geom_opt_P_BP86/11776/11776.bibtex that contains the list in bibtex format
You can import this file easily into all common literature databanks and citation aid programs


List of essential papers. We consider these as the minimum necessary citations

  1. Neese,F.
     Software update: the ORCA program system, version 5.0
     WIRES Comput. Molec. Sci., 2022 12(1)e1606
     doi.org/10.1002/wcms.1606

List of papers to cite with high priority. The work reported in these papers was absolutely
necessary for this run to complete.
Our perspective: the developers of density functionals and basis sets usually get cited in chemistry papers
Good! But without the algorithms to do something with them, the functionals or basis sets would not do anything.
Hence, in our opinion, the algorithm design and method developments papers are equally worthy of getting cited

  1. Neese,F.
     An improvement of the resolution of the identity approximation for the formation of the Coulomb matrix
     J. Comp. Chem., 2003 24(14)1740-1747
     doi.org/10.1002/jcc.10318
  2. Neese,F.
     The SHARK Integral Generation and Digestion System
     J. Comp. Chem., 2022  1-16
     doi.org/10.1002/jcc.26942
  3. Grimme,S.; Antony,J.; Ehrlich,S.; Krieg,H.
     A consistent and accurate ab initio parametrization of density functional dispersion correction (DFT-D) for the 94 elements H-Pu
     J. Chem. Phys., 2010 132 154104-XXXX
     doi.org/10.1063/1.3382344
  4. Grimme,S.; Ehrlich,S.; Goerigk,L.
     Effect of the damping function in dispersion corrected density functional theory
     J. Comput. Chem., 2011 32(7)1456-1465
     doi.org/10.1002/jcc.21759

List of suggested additional citations. These are papers that are important in the 'surrounding' of 
of this run, or papers that preceded the highly important papers. If you like your results we are grateful for a citation.

  1. Neese,F.
     The ORCA program system
     WIRES Comput. Molec. Sci., 2012 2(1)73-78
     doi.org/10.1002/wcms.81
  2. Neese,F.
     Software update: the ORCA program system, version 4.0
     WIRES Comput. Molec. Sci., 2018 8(1)1-6
     doi.org/10.1002/wcms.1327
  3. Neese,F.; Wennmohs,F.; Becker,U.; Riplinger,C.
     The ORCA quantum chemistry program package
     J. Chem. Phys., 2020 152 Art. No. L224108
     doi.org/10.1063/5.0004608

List of optional additional citations

  1. Neese,F.
     Approximate second-order SCF convergence for spin unrestricted wavefunctions
     Chem. Phys. Lett., 2000 325(1-3)93-98
     doi.org/10.1016/s0009-2614(00)00662-x

Timings for individual modules:

Sum of individual times          ...      108.980 sec (=   1.816 min)
Startup calculation              ...        9.200 sec (=   0.153 min)   8.4 %
SCF iterations                   ...       66.693 sec (=   1.112 min)  61.2 %
Property calculations            ...        0.168 sec (=   0.003 min)   0.2 %
SCF Gradient evaluation          ...       32.817 sec (=   0.547 min)  30.1 %
Geometry relaxation              ...        0.102 sec (=   0.002 min)   0.1 %
                             ****ORCA TERMINATED NORMALLY****
TOTAL RUN TIME: 0 days 0 hours 1 minutes 50 seconds 367 msec
