
                                 *****************
                                 * O   R   C   A *
                                 *****************

                                            #,                                       
                                            ###                                      
                                            ####                                     
                                            #####                                    
                                            ######                                   
                                           ########,                                 
                                     ,,################,,,,,                         
                               ,,#################################,,                 
                          ,,##########################################,,             
                       ,#########################################, ''#####,          
                    ,#############################################,,   '####,        
                  ,##################################################,,,,####,       
                ,###########''''           ''''###############################       
              ,#####''   ,,,,##########,,,,          '''####'''          '####       
            ,##' ,,,,###########################,,,                        '##       
           ' ,,###''''                  '''############,,,                           
         ,,##''                                '''############,,,,        ,,,,,,###''
      ,#''                                            '''#######################'''  
     '                                                          ''''####''''         
             ,#######,   #######,   ,#######,      ##                                
            ,#'     '#,  ##    ##  ,#'     '#,    #''#        ,####,   ,####,        
            ##       ##  ##   ,#'  ##            #'  '#       #'       #'  '#        
            ##       ##  #######   ##           ,######,      #####,   #    #        
            '#,     ,#'  ##    ##  '#,     ,#' ,#      #,     #,   #   #,  ,#        
             '#######'   ##     ##  '#######'  #'      '#     '####' # '####'        



                #########################################################
                #                        -***-                          #
                #          Department of theory and spectroscopy        #
                #                                                       #
                #                      Frank Neese                      #
                #                                                       #
                #     Directorship, Architecture, Infrastructure        #
                #                    SHARK, DRIVERS                     #
                #        Core code/Algorithms in most modules           #
                #                                                       #
                #        Max Planck Institute fuer Kohlenforschung      #
                #                Kaiser Wilhelm Platz 1                 #
                #                 D-45470 Muelheim/Ruhr                 #
                #                      Germany                          #
                #                                                       #
                #                  All rights reserved                  #
                #                        -***-                          #
                #########################################################


                         Program Version 6.0.0  -   RELEASE   -


 With contributions from (in alphabetic order):
   Daniel Aravena         : Magnetic Suceptibility
   Michael Atanasov       : Ab Initio Ligand Field Theory (pilot matlab implementation)
   Alexander A. Auer      : GIAO ZORA, VPT2 properties, NMR spectrum
   Ute Becker             : All parallelization in ORCA, NUMFREQ, NUMCALC
   Giovanni Bistoni       : ED, misc. LED, open-shell LED, HFLD
   Martin Brehm           : Molecular dynamics
   Dmytro Bykov           : pre 5.0 version of the SCF Hessian
   Marcos Casanova-Páez   : Triplet and SCS-CIS(D). UHF-(DLPNO)-IP/EA/STEOM-CCSD. UHF-CVS-IP/STEOM-CCSD
   Vijay G. Chilkuri      : MRCI spin determinant printing, contributions to CSF-ICE
   Pauline Colinet        : FMM embedding
   Dipayan Datta          : RHF DLPNO-CCSD density
   Achintya Kumar Dutta   : EOM-CC, STEOM-CC
   Nicolas Foglia         : Exact transition moments, OPA infrastructure, MCD improvements
   Dmitry Ganyushin       : Spin-Orbit,Spin-Spin,Magnetic field MRCI
   Miquel Garcia          : C-PCM and meta-GGA Hessian, CCSD/C-PCM, Gaussian charge scheme
   Tiago L. C. Gouveia    : GS-ROHF, GS-ROCIS
   Yang Guo               : DLPNO-NEVPT2, F12-NEVPT2, CIM, IAO-localization
   Andreas Hansen         : Spin unrestricted coupled pair/coupled cluster methods
   Ingolf Harden          : AUTO-CI MPn and infrastructure 
   Benjamin Helmich-Paris : MC-RPA, TRAH-(SCF,CASSCF), AVAS, COSX integrals, SCF dyn. polar.
   Lee Huntington         : MR-EOM, pCC
   Robert Izsak           : Overlap fitted RIJCOSX, COSX-SCS-MP3, EOM
   Riya Kayal             : Wick's Theorem for AUTO-CI, AUTO-CI UHF-CCSDT
   Emily Kempfer          : AUTO-CI, RHF CISDT and CCSDT
   Christian Kollmar      : KDIIS, OOCD, Brueckner-CCSD(T), CCSD density, CASPT2, CASPT2-K, improved NEVPT2
   Axel Koslowski         : Symmetry handling
   Simone Kossmann        : Meta GGA functionals, TD-DFT gradient, OOMP2, (MP2 Hessian; deprecated post 5.0)
   Lucas Lang             : DCDCAS
   Marvin Lechner         : AUTO-CI (C++ implementation), FIC-MRCC
   Spencer Leger          : CASSCF response
   Dagmar Lenk            : GEPOL surface, SMD, ORCA-2-JSON
   Dimitrios Liakos       : Extrapolation schemes; Compound Job, initial MDCI parallelization
   Dimitrios Manganas     : Further ROCIS development; embedding schemes. LFT, Crystal Embedding
   Dimitrios Pantazis     : SARC Basis sets
   Anastasios Papadopoulos: AUTO-CI, single reference methods and gradients
   Taras Petrenko         : pre 6.0 DFT Hessian and TD-DFT gradient, (ASA, deprecated), ECA, 1-Electron XAS/XES, NRVS
   Peter Pinski           : DLPNO-MP2, DLPNO-MP2 Gradient
   Christoph Reimann      : Effective Core Potentials
   Marius Retegan         : Local ZFS, SOC
   Christoph Riplinger    : Optimizer, TS searches, QM/MM, DLPNO-CCSD(T), (RO)-DLPNO pert. Triples
   Michael Roemelt        : Original ROCIS implementation
   Masaaki Saitow         : Open-shell DLPNO-CCSD energy and density
   Barbara Sandhoefer     : DKH picture change effects
   Kantharuban Sivalingam : CASSCF convergence/infrastructure, NEVPT2 and variants, FIC-MRCI
   Bernardo de Souza      : ESD, SOC TD-DFT
   Georgi Stoychev        : AutoAux, RI-MP2 NMR, DLPNO-MP2 response, X2C
   Van Anh Tran           : RI-MP2 g-tensors
   Willem Van den Heuvel  : Paramagnetic NMR
   Zikuan Wang            : NOTCH, Electric field optimization 
   Frank Wennmohs         : Technical directorship and infrastructure
   Hang Xu                : AUTO-CI-Response properties 


 We gratefully acknowledge several colleagues who have allowed us to
 interface, adapt or use parts of their codes:
   Stefan Grimme, W. Hujo, H. Kruse, P. Pracht,  : VdW corrections, initial TS optimization,
                  C. Bannwarth, S. Ehlert,         DFT functionals, gCP, sTDA/sTD-DF
                  L. Wittmann, M. Mueller
   Ed Valeev, F. Pavosevic, A. Kumar             : LibInt (2-el integral package), F12 methods
   Garnet Chan, S. Sharma, J. Yang, R. Olivares  : DMRG
   Ulf Ekstrom                                   : XCFun DFT Library
   Mihaly Kallay                                 : mrcc  (arbitrary order and MRCC methods)
   Frank Weinhold                                : gennbo (NPA and NBO analysis)
   Simon Mueller                                 : openCOSMO-RS
   Christopher J. Cramer and Donald G. Truhlar   : smd solvation model
   Lars Goerigk                                  : TD-DFT with DH, B97 family of functionals
   V. Asgeirsson, H. Jonsson                     : NEB implementation
   FAccTs GmbH                                   : IRC, NEB, NEB-TS, DLPNO-Multilevel, CI-OPT
                                                   MM, QMMM, 2- and 3-layer-ONIOM, Crystal-QMMM,
                                                   LR-CPCM, SF, NACMEs, symmetry and pop. for TD-DFT,
                                                   nearIR, NL-DFT gradient (VV10), updates on ESD,
                                                   ML-optimized integration grids, MBIS, APM,
                                                   GOAT, DOCKER, SOLVATOR, interface openCOSMO-RS
   S Lehtola, MJT Oliveira, MAL Marques          : LibXC Library
   Liviu Ungur et al                             : ANISO software


 Your calculation uses the libint2 library for the computation of 2-el integrals
 For citations please refer to: http://libint.valeyev.net

 Your ORCA version has been built with support for libXC version: 6.2.2
 For citations please refer to: https://libxc.gitlab.io

 This ORCA versions uses:
   CBLAS   interface :  Fast vector & matrix operations
   LAPACKE interface :  Fast linear algebra routines
   Shared memory     :  Shared parallel matrices


Your calculation utilizes the atom-pairwise dispersion correction
with the Becke-Johnson damping scheme (D3BJ)


Warning: RI is on but no J-basis has been assigned. Assigning Def2/J (nothing to worry about!)
================================================================================

----- Orbital basis set information -----
Your calculation utilizes the basis: def2-SVP
   F. Weigend and R. Ahlrichs, Phys. Chem. Chem. Phys. 7, 3297 (2005).

----- AuxJ basis set information -----
Your calculation utilizes the auxiliary basis: def2/J
   F. Weigend, Phys. Chem. Chem. Phys. 8, 1057 (2006).

================================================================================
                                        WARNINGS
                       Please study these warnings very carefully!
================================================================================


WARNING: Geometry Optimization
  ===> : Switching off AutoStart
         For restart on a previous wavefunction, please use MOREAD

================================================================================
                                       INPUT FILE
================================================================================
NAME = data/geom_opt_P_BP86/3333592/3333592.inp
|  1> ! RI BP86 def2-SVP D3BJ TIGHTSCF Opt
|  2> %pal
|  3> nprocs 6
|  4> end
|  5> 
|  6> * xyz 0 1
|  7> C      4.943869   -0.721571    1.317512
|  8> N      4.410580    0.319845    0.440858
|  9> C      5.392785    0.992233   -0.407820
| 10> C      3.088677    0.212880   -0.008016
| 11> C      2.157121   -0.642555    0.602022
| 12> C      0.822963   -0.741861    0.169084
| 13> C      0.349649    0.026396   -0.895185
| 14> C      1.260687    0.893890   -1.507968
| 15> C      2.591800    0.986883   -1.068082
| 16> P     -1.354552   -0.024875   -1.530523
| 17> C     -2.083949   -1.487528   -0.723146
| 18> C     -1.874891   -2.742764   -1.322596
| 19> C     -2.402600   -3.909379   -0.762085
| 20> C     -3.151773   -3.841810    0.408361
| 21> C     -3.372142   -2.609432    1.016771
| 22> C     -2.843344   -1.442417    0.455456
| 23> C     -2.177187    1.383460   -0.715621
| 24> C     -1.616659    2.127037    0.333488
| 25> C     -2.309386    3.198015    0.907964
| 26> C     -3.574082    3.545546    0.442005
| 27> C     -4.147963    2.823463   -0.599533
| 28> C     -3.454944    1.753847   -1.173418
| 29> H      5.989206   -0.523010    1.579958
| 30> H      4.906180   -1.703132    0.832162
| 31> H      4.399391   -0.758131    2.267121
| 32> H      5.489338    0.487276   -1.375344
| 33> H      5.128381    2.043451   -0.564786
| 34> H      6.383269    1.000229    0.061124
| 35> H      2.438406   -1.264471    1.446326
| 36> H      0.171602   -1.430409    0.700984
| 37> H      0.948067    1.524804   -2.338410
| 38> H      3.226699    1.696080   -1.589810
| 39> H     -1.291019   -2.824967   -2.237938
| 40> H     -2.226982   -4.868366   -1.242307
| 41> H     -3.563868   -4.747245    0.845577
| 42> H     -3.956924   -2.550998    1.931242
| 43> H     -3.034180   -0.501890    0.965982
| 44> H     -0.633577    1.888098    0.731387
| 45> H     -1.855468    3.759584    1.720592
| 46> H     -4.110077    4.378306    0.889197
| 47> H     -5.134701    3.090033   -0.968816
| 48> H     -3.928402    1.205453   -1.986228
| 49> **                         ****END OF INPUT****
================================================================================

                       *****************************
                       * Geometry Optimization Run *
                       *****************************

Geometry optimization settings:
Update method            Update   .... BFGS
Choice of coordinates    CoordSys .... (2022) Redundant Internals
Initial Hessian          InHess   .... Almloef's Model
Max. no of cycles        MaxIter  .... 126

Convergence Tolerances:
Energy Change            TolE     ....  5.0000e-06 Eh
Max. Gradient            TolMAXG  ....  3.0000e-04 Eh/bohr
RMS Gradient             TolRMSG  ....  1.0000e-04 Eh/bohr
Max. Displacement        TolMAXD  ....  4.0000e-03 bohr
RMS Displacement         TolRMSD  ....  2.0000e-03 bohr
Strict Convergence                .... False

------------------------------------------------------------------------------
                        ORCA OPTIMIZATION COORDINATE SETUP
------------------------------------------------------------------------------

The optimization will be done in redundant internal coordinates (2022)
Making redundant internal coordinates   ...  (2022 redundants) done
Evaluating the initial hessian          ...  (Almloef) done
Evaluating the coordinates              ...  done
Calculating the B-matrix                .... done
Calculating the G-matrix                .... done
Diagonalizing the G-matrix              .... done
Small eigenvalue found = 2.814e-03
Small eigenvalue found = 4.333e-03
Small eigenvalue found = 7.048e-03
Small eigenvalue found = 1.520e-02
Small eigenvalue found = 1.740e-02
Small eigenvalue found = 2.718e-02
The first mode is                       ....   94
The number of degrees of freedom        ....  120

    -----------------------------------------------------------------
                    Redundant Internal Coordinates


    -----------------------------------------------------------------
         Definition                    Initial Value    Approx d2E/dq
    -----------------------------------------------------------------
      1. B(N   1,C   0)                  1.4620         0.429528   
      2. B(C   2,N   1)                  1.4619         0.429733   
      3. B(C   3,N   1)                  1.4001         0.539160   
      4. B(C   4,C   3)                  1.4042         0.593090   
      5. B(C   5,C   4)                  1.4062         0.588793   
      6. B(C   6,C   5)                  1.3953         0.612708   
      7. B(C   7,C   6)                  1.3993         0.603812   
      8. B(C   8,C   3)                  1.4035         0.594648   
      9. B(C   8,C   7)                  1.4050         0.591311   
     10. B(P   9,C   6)                  1.8195         0.433502   
     11. B(C  10,P   9)                  1.8230         0.428007   
     12. B(C  11,C  10)                  1.4066         0.587726   
     13. B(C  12,C  11)                  1.3977         0.607311   
     14. B(C  13,C  12)                  1.3913         0.621775   
     15. B(C  14,C  13)                  1.3919         0.620373   
     16. B(C  15,C  14)                  1.3988         0.604933   
     17. B(C  15,C  10)                  1.4028         0.596120   
     18. B(C  16,P   9)                  1.8232         0.427590   
     19. B(C  17,C  16)                  1.4028         0.596191   
     20. B(C  18,C  17)                  1.3989         0.604726   
     21. B(C  19,C  18)                  1.3919         0.620479   
     22. B(C  20,C  19)                  1.3912         0.621960   
     23. B(C  21,C  20)                  1.3977         0.607265   
     24. B(C  21,C  16)                  1.4069         0.587140   
     25. B(H  22,C   0)                  1.0959         0.352357   
     26. B(H  23,C   0)                  1.0956         0.352704   
     27. B(H  24,C   0)                  1.0952         0.353235   
     28. B(H  25,C   2)                  1.0956         0.352728   
     29. B(H  26,C   2)                  1.0953         0.353201   
     30. B(H  27,C   2)                  1.0959         0.352359   
     31. B(H  28,C   4)                  1.0857         0.365830   
     32. B(H  29,C   5)                  1.0869         0.364264   
     33. B(H  30,C   7)                  1.0888         0.361732   
     34. B(H  31,C   8)                  1.0855         0.366135   
     35. B(H  32,C  11)                  1.0888         0.361673   
     36. B(H  33,C  12)                  1.0868         0.364373   
     37. B(H  34,C  13)                  1.0866         0.364569   
     38. B(H  35,C  14)                  1.0870         0.364046   
     39. B(H  36,C  15)                  1.0870         0.364043   
     40. B(H  37,C  17)                  1.0871         0.363908   
     41. B(H  38,C  18)                  1.0871         0.363970   
     42. B(H  39,C  19)                  1.0866         0.364588   
     43. B(H  40,C  20)                  1.0868         0.364391   
     44. B(H  41,C  21)                  1.0888         0.361646   
     45. A(H  22,C   0,H  23)          107.5303         0.288908   
     46. A(N   1,C   0,H  23)          111.0989         0.328744   
     47. A(N   1,C   0,H  24)          111.2437         0.328826   
     48. A(N   1,C   0,H  22)          111.2517         0.328691   
     49. A(H  23,C   0,H  24)          109.6986         0.289020   
     50. A(H  22,C   0,H  24)          105.8191         0.288976   
     51. A(C   0,N   1,C   3)          118.8294         0.391632   
     52. A(C   0,N   1,C   2)          115.5093         0.376486   
     53. A(C   2,N   1,C   3)          118.9052         0.391664   
     54. A(H  26,C   2,H  27)          105.8133         0.288972   
     55. A(H  25,C   2,H  26)          109.6982         0.289019   
     56. A(N   1,C   2,H  25)          111.0933         0.328773   
     57. A(N   1,C   2,H  26)          111.2510         0.328846   
     58. A(H  25,C   2,H  27)          107.5528         0.288911   
     59. A(N   1,C   2,H  27)          111.2344         0.328717   
     60. A(C   4,C   3,C   8)          115.4198         0.427405   
     61. A(N   1,C   3,C   4)          122.2499         0.417261   
     62. A(N   1,C   3,C   8)          122.2949         0.417456   
     63. A(C   3,C   4,H  28)          120.9934         0.351207   
     64. A(C   3,C   4,C   5)          122.5961         0.426648   
     65. A(C   5,C   4,H  28)          116.4101         0.350776   
     66. A(C   6,C   5,H  29)          121.2515         0.352889   
     67. A(C   4,C   5,C   6)          121.1849         0.429144   
     68. A(C   4,C   5,H  29)          117.5601         0.350522   
     69. A(C   5,C   6,P   9)          124.6486         0.433335   
     70. A(C   7,C   6,P   9)          118.3180         0.432197   
     71. A(C   5,C   6,C   7)          117.0334         0.431089   
     72. A(C   8,C   7,H  30)          118.1955         0.350361   
     73. A(C   6,C   7,H  30)          120.4190         0.351602   
     74. A(C   6,C   7,C   8)          121.3830         0.428347   
     75. A(C   7,C   8,H  31)          116.5454         0.351078   
     76. A(C   3,C   8,H  31)          121.0833         0.351412   
     77. A(C   3,C   8,C   7)          122.3710         0.427175   
     78. A(C   6,P   9,C  10)          104.0470         0.433455   
     79. A(C  10,P   9,C  16)          103.9621         0.432386   
     80. A(C   6,P   9,C  16)          104.1681         0.433378   
     81. A(C  11,C  10,C  15)          117.8527         0.426899   
     82. A(P   9,C  10,C  15)          124.2571         0.430216   
     83. A(P   9,C  10,C  11)          117.8899         0.429123   
     84. A(C  12,C  11,H  32)          118.4616         0.351936   
     85. A(C  10,C  11,H  32)          120.3531         0.349992   
     86. A(C  10,C  11,C  12)          121.1849         0.428324   
     87. A(C  13,C  12,H  33)          120.1053         0.353786   
     88. A(C  11,C  12,H  33)          119.8871         0.352379   
     89. A(C  11,C  12,C  13)          120.0076         0.432677   
     90. A(C  14,C  13,H  34)          120.1204         0.353683   
     91. A(C  12,C  13,H  34)          120.1469         0.353818   
     92. A(C  12,C  13,C  14)          119.7327         0.434336   
     93. A(C  13,C  14,H  35)          120.0312         0.353597   
     94. A(C  15,C  14,H  35)          119.7426         0.352092   
     95. A(C  13,C  14,C  15)          120.2262         0.432197   
     96. A(C  14,C  15,H  36)          117.8413         0.352091   
     97. A(C  10,C  15,H  36)          121.1616         0.351219   
     98. A(C  10,C  15,C  14)          120.9957         0.429113   
     99. A(C  17,C  16,C  21)          117.8210         0.426831   
    100. A(P   9,C  16,C  21)          117.8845         0.428970   
    101. A(P   9,C  16,C  17)          124.2936         0.430150   
    102. A(C  16,C  17,H  37)          121.2364         0.351204   
    103. A(C  16,C  17,C  18)          121.0031         0.429096   
    104. A(C  18,C  17,H  37)          117.7595         0.352049   
    105. A(C  17,C  18,C  19)          120.2401         0.432183   
    106. A(C  19,C  18,H  38)          120.0439         0.353594   
    107. A(C  17,C  18,H  38)          119.7160         0.352059   
    108. A(C  18,C  19,C  20)          119.7246         0.434373   
    109. A(C  20,C  19,H  39)          120.1582         0.353839   
    110. A(C  18,C  19,H  39)          120.1171         0.353696   
    111. A(C  19,C  20,C  21)          120.0022         0.432694   
    112. A(C  21,C  20,H  40)          119.8916         0.352377   
    113. A(C  19,C  20,H  40)          120.1062         0.353807   
    114. A(C  20,C  21,H  41)          118.4452         0.351927   
    115. A(C  16,C  21,H  41)          120.3460         0.349929   
    116. A(C  16,C  21,C  20)          121.2085         0.428242   
    117. D(C   2,N   1,C   0,H  22)     28.2035         0.015730   
    118. D(C   2,N   1,C   0,H  24)    145.9141         0.015730   
    119. D(C   3,N   1,C   0,H  22)    179.1290         0.015730   
    120. D(C   3,N   1,C   0,H  23)     59.3622         0.015730   
    121. D(C   2,N   1,C   0,H  23)    -91.5634         0.015730   
    122. D(H  26,C   2,N   1,C   3)     62.5792         0.015745   
    123. D(H  27,C   2,N   1,C   0)    -28.8216         0.015745   
    124. D(H  25,C   2,N   1,C   0)     90.9584         0.015745   
    125. D(H  26,C   2,N   1,C   0)   -146.5184         0.015745   
    126. D(H  25,C   2,N   1,C   3)    -59.9440         0.015745   
    127. D(C   8,C   3,N   1,C   2)    -15.6601         0.023122   
    128. D(C   8,C   3,N   1,C   0)   -165.5948         0.023122   
    129. D(C   4,C   3,N   1,C   0)     16.6694         0.023122   
    130. D(C   4,C   3,N   1,C   2)    166.6042         0.023122   
    131. D(C   5,C   4,C   3,N   1)    179.0890         0.024220   
    132. D(H  28,C   4,C   3,C   8)   -178.5225         0.024220   
    133. D(C   5,C   4,C   3,C   8)      1.2081         0.024220   
    134. D(H  28,C   4,C   3,N   1)     -0.6415         0.024220   
    135. D(H  29,C   5,C   4,H  28)     -0.2421         0.023853   
    136. D(H  29,C   5,C   4,C   3)   -179.9843         0.023853   
    137. D(C   6,C   5,C   4,H  28)    179.0813         0.023853   
    138. D(C   6,C   5,C   4,C   3)     -0.6608         0.023853   
    139. D(P   9,C   6,C   5,H  29)     -0.6199         0.025941   
    140. D(P   9,C   6,C   5,C   4)   -179.9183         0.025941   
    141. D(C   7,C   6,C   5,H  29)    179.3587         0.025941   
    142. D(C   7,C   6,C   5,C   4)      0.0603         0.025941   
    143. D(H  30,C   7,C   6,P   9)      0.4697         0.025151   
    144. D(H  30,C   7,C   6,C   5)   -179.5103         0.025151   
    145. D(C   8,C   7,C   6,P   9)    179.8882         0.025151   
    146. D(C   8,C   7,C   6,C   5)     -0.0918         0.025151   
    147. D(C   7,C   8,C   3,N   1)   -179.1169         0.024354   
    148. D(H  31,C   8,C   7,H  30)      0.3445         0.024067   
    149. D(H  31,C   8,C   7,C   6)   -179.0866         0.024067   
    150. D(C   3,C   8,C   7,H  30)   -179.8443         0.024067   
    151. D(H  31,C   8,C   3,C   4)    178.5659         0.024354   
    152. D(H  31,C   8,C   3,N   1)      0.6860         0.024354   
    153. D(C   7,C   8,C   3,C   4)     -1.2370         0.024354   
    154. D(C   3,C   8,C   7,C   6)      0.7247         0.024067   
    155. D(C  16,P   9,C   6,C   7)    -82.9005         0.003841   
    156. D(C  16,P   9,C   6,C   5)     97.0778         0.003841   
    157. D(C  10,P   9,C   6,C   7)    168.4557         0.003841   
    158. D(C  10,P   9,C   6,C   5)    -11.5659         0.003841   
    159. D(C  15,C  10,P   9,C  16)    -13.3477         0.003780   
    160. D(C  15,C  10,P   9,C   6)     95.4483         0.003780   
    161. D(C  11,C  10,P   9,C  16)    166.4764         0.003780   
    162. D(C  11,C  10,P   9,C   6)    -84.7276         0.003780   
    163. D(H  32,C  11,C  10,C  15)   -179.9552         0.023762   
    164. D(H  32,C  11,C  10,P   9)      0.2092         0.023762   
    165. D(C  12,C  11,C  10,C  15)     -0.1699         0.023762   
    166. D(C  12,C  11,C  10,P   9)    179.9945         0.023762   
    167. D(H  33,C  12,C  11,H  32)     -0.1333         0.025460   
    168. D(H  33,C  12,C  11,C  10)   -179.9226         0.025460   
    169. D(C  13,C  12,C  11,H  32)    179.8942         0.025460   
    170. D(C  13,C  12,C  11,C  10)      0.1049         0.025460   
    171. D(H  34,C  13,C  12,H  33)     -0.0288         0.026761   
    172. D(H  34,C  13,C  12,C  11)    179.9437         0.026761   
    173. D(C  14,C  13,C  12,H  33)   -179.9868         0.026761   
    174. D(C  14,C  13,C  12,C  11)     -0.0143         0.026761   
    175. D(H  35,C  14,C  13,H  34)      0.0294         0.026633   
    176. D(H  35,C  14,C  13,C  12)    179.9874         0.026633   
    177. D(C  15,C  14,C  13,H  34)   -179.9639         0.026633   
    178. D(C  15,C  14,C  13,C  12)     -0.0059         0.026633   
    179. D(C  14,C  15,C  10,P   9)    179.9733         0.024481   
    180. D(H  36,C  15,C  14,H  35)      0.3692         0.025250   
    181. D(H  36,C  15,C  14,C  13)   -179.6375         0.025250   
    182. D(C  10,C  15,C  14,H  35)    179.9427         0.025250   
    183. D(C  10,C  15,C  14,C  13)     -0.0640         0.025250   
    184. D(H  36,C  15,C  10,C  11)    179.7084         0.024481   
    185. D(H  36,C  15,C  10,P   9)     -0.4674         0.024481   
    186. D(C  14,C  15,C  10,C  11)      0.1492         0.024481   
    187. D(C  21,C  16,P   9,C  10)    -81.8983         0.003776   
    188. D(C  21,C  16,P   9,C   6)    169.3953         0.003776   
    189. D(C  17,C  16,P   9,C  10)     98.4643         0.003776   
    190. D(C  17,C  16,P   9,C   6)    -10.2422         0.003776   
    191. D(H  37,C  17,C  16,C  21)    179.8944         0.024487   
    192. D(H  37,C  17,C  16,P   9)     -0.4680         0.024487   
    193. D(C  18,C  17,C  16,C  21)      0.2529         0.024487   
    194. D(C  18,C  17,C  16,P   9)    179.8906         0.024487   
    195. D(H  38,C  18,C  17,H  37)      0.2977         0.025232   
    196. D(H  38,C  18,C  17,C  16)    179.9512         0.025232   
    197. D(C  19,C  18,C  17,H  37)   -179.7518         0.025232   
    198. D(C  19,C  18,C  17,C  16)     -0.0983         0.025232   
    199. D(H  39,C  19,C  18,H  38)     -0.0026         0.026643   
    200. D(H  39,C  19,C  18,C  17)   -179.9530         0.026643   
    201. D(C  20,C  19,C  18,H  38)    179.9131         0.026643   
    202. D(C  20,C  19,C  18,C  17)     -0.0373         0.026643   
    203. D(H  40,C  20,C  19,H  39)     -0.0274         0.026778   
    204. D(H  40,C  20,C  19,C  18)   -179.9430         0.026778   
    205. D(C  21,C  20,C  19,H  39)    179.9254         0.026778   
    206. D(C  21,C  20,C  19,C  18)      0.0098         0.026778   
    207. D(H  41,C  21,C  20,H  40)     -0.1191         0.025456   
    208. D(H  41,C  21,C  20,C  19)    179.9280         0.025456   
    209. D(C  16,C  21,C  20,H  40)   -179.8931         0.025456   
    210. D(C  16,C  21,C  20,C  19)      0.1539         0.025456   
    211. D(H  41,C  21,C  16,C  17)    179.9489         0.023712   
    212. D(H  41,C  21,C  16,P   9)      0.2876         0.023712   
    213. D(C  20,C  21,C  16,C  17)     -0.2813         0.023712   
    214. D(C  20,C  21,C  16,P   9)   -179.9426         0.023712   
    -----------------------------------------------------------------

Number of atoms                         .... 42
Number of degrees of freedom            .... 214


         *************************************************************
         *                GEOMETRY OPTIMIZATION CYCLE   1            *
         *************************************************************
---------------------------------
CARTESIAN COORDINATES (ANGSTROEM)
---------------------------------
  C      4.943869   -0.721571    1.317512
  N      4.410580    0.319845    0.440858
  C      5.392785    0.992233   -0.407820
  C      3.088677    0.212880   -0.008016
  C      2.157121   -0.642555    0.602022
  C      0.822963   -0.741861    0.169084
  C      0.349649    0.026396   -0.895185
  C      1.260687    0.893890   -1.507968
  C      2.591800    0.986883   -1.068082
  P     -1.354552   -0.024875   -1.530523
  C     -2.083949   -1.487528   -0.723146
  C     -1.874891   -2.742764   -1.322596
  C     -2.402600   -3.909379   -0.762085
  C     -3.151773   -3.841810    0.408361
  C     -3.372142   -2.609432    1.016771
  C     -2.843344   -1.442417    0.455456
  C     -2.177187    1.383460   -0.715621
  C     -1.616659    2.127037    0.333488
  C     -2.309386    3.198015    0.907964
  C     -3.574082    3.545546    0.442005
  C     -4.147963    2.823463   -0.599533
  C     -3.454944    1.753847   -1.173418
  H      5.989206   -0.523010    1.579958
  H      4.906180   -1.703132    0.832162
  H      4.399391   -0.758131    2.267121
  H      5.489338    0.487276   -1.375344
  H      5.128381    2.043451   -0.564786
  H      6.383269    1.000229    0.061124
  H      2.438406   -1.264471    1.446326
  H      0.171602   -1.430409    0.700984
  H      0.948067    1.524804   -2.338410
  H      3.226699    1.696080   -1.589810
  H     -1.291019   -2.824967   -2.237938
  H     -2.226982   -4.868366   -1.242307
  H     -3.563868   -4.747245    0.845577
  H     -3.956924   -2.550998    1.931242
  H     -3.034180   -0.501890    0.965982
  H     -0.633577    1.888098    0.731387
  H     -1.855468    3.759584    1.720592
  H     -4.110077    4.378306    0.889197
  H     -5.134701    3.090033   -0.968816
  H     -3.928402    1.205453   -1.986228

----------------------------
CARTESIAN COORDINATES (A.U.)
----------------------------
  NO LB      ZA    FRAG     MASS         X           Y           Z
   0 C     6.0000    0    12.011    9.342558   -1.363572    2.489737
   1 N     7.0000    0    14.007    8.334788    0.604419    0.833101
   2 C     6.0000    0    12.011   10.190887    1.875049   -0.770668
   3 C     6.0000    0    12.011    5.836754    0.402285   -0.015148
   4 C     6.0000    0    12.011    4.076368   -1.214253    1.137657
   5 C     6.0000    0    12.011    1.555175   -1.401914    0.319522
   6 C     6.0000    0    12.011    0.660741    0.049881   -1.691654
   7 C     6.0000    0    12.011    2.382353    1.689207   -2.849647
   8 C     6.0000    0    12.011    4.897792    1.864939   -2.018382
   9 P    15.0000    0    30.974   -2.559732   -0.047007   -2.892269
  10 C     6.0000    0    12.011   -3.938093   -2.811021   -1.366548
  11 C     6.0000    0    12.011   -3.543031   -5.183073   -2.499344
  12 C     6.0000    0    12.011   -4.540256   -7.387656   -1.440132
  13 C     6.0000    0    12.011   -5.955988   -7.259969    0.771690
  14 C     6.0000    0    12.011   -6.372425   -4.931112    1.921419
  15 C     6.0000    0    12.011   -5.373141   -2.725773    0.860687
  16 C     6.0000    0    12.011   -4.114287    2.614361   -1.352328
  17 C     6.0000    0    12.011   -3.055043    4.019517    0.630201
  18 C     6.0000    0    12.011   -4.364107    6.043373    1.715803
  19 C     6.0000    0    12.011   -6.754036    6.700111    0.835268
  20 C     6.0000    0    12.011   -7.838514    5.335572   -1.132953
  21 C     6.0000    0    12.011   -6.528898    3.314291   -2.217439
  22 H     1.0000    0     1.008   11.317959   -0.988346    2.985688
  23 H     1.0000    0     1.008    9.271337   -3.218453    1.572558
  24 H     1.0000    0     1.008    8.313644   -1.432660    4.284238
  25 H     1.0000    0     1.008   10.373345    0.920818   -2.599023
  26 H     1.0000    0     1.008    9.691236    3.861563   -1.067291
  27 H     1.0000    0     1.008   12.062630    1.890159    0.115508
  28 H     1.0000    0     1.008    4.607920   -2.389504    2.733160
  29 H     1.0000    0     1.008    0.324281   -2.703081    1.324668
  30 H     1.0000    0     1.008    1.791587    2.881462   -4.418954
  31 H     1.0000    0     1.008    6.097577    3.205127   -3.004306
  32 H     1.0000    0     1.008   -2.439672   -5.338414   -4.229090
  33 H     1.0000    0     1.008   -4.208386   -9.199878   -2.347620
  34 H     1.0000    0     1.008   -6.734734   -8.970993    1.597909
  35 H     1.0000    0     1.008   -7.477503   -4.820688    3.649518
  36 H     1.0000    0     1.008   -5.733769   -0.948435    1.825441
  37 H     1.0000    0     1.008   -1.197287    3.567988    1.382121
  38 H     1.0000    0     1.008   -3.506326    7.104584    3.251448
  39 H     1.0000    0     1.008   -7.766920    8.273799    1.680339
  40 H     1.0000    0     1.008   -9.703179    5.839316   -1.830797
  41 H     1.0000    0     1.008   -7.423604    2.277976   -3.753427

--------------------------------
INTERNAL COORDINATES (ANGSTROEM)
--------------------------------
 C      0   0   0     0.000000000000     0.00000000     0.00000000
 N      1   0   0     1.462007755894     0.00000000     0.00000000
 C      2   1   0     1.461877776099   115.50927156     0.00000000
 C      2   1   3     1.400127465808   118.82939072   150.92557759
 C      4   2   1     1.404176620588   122.24992871    16.66942383
 C      5   4   2     1.406155952391   122.59606828   179.08903719
 C      6   5   4     1.395318409900   121.18492323   359.33915159
 C      7   6   5     1.399299497095   117.03343951     0.06026605
 C      4   2   1     1.403462618488   122.29487663   194.40517194
 P      7   6   5     1.819501068449   124.64857544   180.08167958
 C     10   7   6     1.822973231330   104.04704549   348.43407083
 C     11  10   7     1.406649553215   117.88991579   275.27244479
 C     12  11  10     1.397726700048   121.18494621   179.99453461
 C     13  12  11     1.391319371175   120.00762320     0.10487309
 C     14  13  12     1.391934179171   119.73265048     0.00000000
 C     15  14  13     1.398794432450   120.22616806     0.00000000
 C     10   7   6     1.823239173848   104.16813426    97.07778337
 C     17  10   7     1.402757316001   124.29359286   349.75784594
 C     18  17  10     1.398887860977   121.00307813   179.89061569
 C     19  18  17     1.391887767766   120.24009164   359.90173266
 C     20  19  18     1.391238536878   119.72462653   359.96267833
 C     21  20  19     1.397747371681   120.00218167     0.00000000
 H      1   2   3     1.095916884260   111.25169215    28.20346446
 H      1   2   3     1.095649159148   111.09885637   268.43664235
 H      1   2   3     1.095239781493   111.24366551   145.91411325
 H      3   2   1     1.095630751775   111.09329351    90.95835346
 H      3   2   1     1.095265759483   111.25097118   213.48156165
 H      3   2   1     1.095915583158   111.23435497   331.17843198
 H      5   4   2     1.085702540615   120.99336324   359.35845185
 H      6   5   4     1.086870328340   117.56007812   180.01572030
 H      8   7   6     1.088768871322   120.41904566   180.48971249
 H      9   4   2     1.085475578258   121.08333416     0.68600049
 H     12  11  10     1.088813493008   120.35309693     0.20919720
 H     13  12  11     1.086789269995   119.88710850   180.07744935
 H     14  13  12     1.086642838704   120.14693339   179.94368852
 H     15  14  13     1.087033453819   120.03124178   179.98737448
 H     16  15  14     1.087035516118   117.84134216   180.36253058
 H     18  17  10     1.087136458153   121.23644532   359.53201859
 H     19  18  17     1.087090409703   119.71602253   179.95119247
 H     20  19  18     1.086628060787   120.11709689   180.04700257
 H     21  20  19     1.086775680457   120.10615508   180.05695348
 H     22  21  20     1.088833574565   118.44519593   179.92799841

---------------------------
INTERNAL COORDINATES (A.U.)
---------------------------
 C      0   0   0     0.000000000000     0.00000000     0.00000000
 N      1   0   0     2.762794264308     0.00000000     0.00000000
 C      2   1   0     2.762548638094   115.50927156     0.00000000
 C      2   1   3     2.645857462958   118.82939072   150.92557759
 C      4   2   1     2.653509256566   122.24992871    16.66942383
 C      5   4   2     2.657249651602   122.59606828   179.08903719
 C      6   5   4     2.636769664330   121.18492323   359.33915159
 C      7   6   5     2.644292828842   117.03343951     0.06026605
 C      4   2   1     2.652159988139   122.29487663   194.40517194
 P      7   6   5     3.438358719745   124.64857544   180.08167958
 C     10   7   6     3.444920156684   104.04704549   348.43407083
 C     11  10   7     2.658182421979   117.88991579   275.27244479
 C     12  11  10     2.641320673160   121.18494621   179.99453461
 C     13  12  11     2.629212576340   120.00762320     0.10487309
 C     14  13  12     2.630374395078   119.73265048     0.00000000
 C     15  14  13     2.643338394985   120.22616806     0.00000000
 C     10   7   6     3.445422715210   104.16813426    97.07778337
 C     17  10   7     2.650827159596   124.29359286   349.75784594
 C     18  17  10     2.643514949314   121.00307813   179.89061569
 C     19  18  17     2.630286690234   120.24009164   359.90173266
 C     20  19  18     2.629059821656   119.72462653   359.96267833
 C     21  20  19     2.641359736886   120.00218167     0.00000000
 H      1   2   3     2.070982776792   111.25169215    28.20346446
 H      1   2   3     2.070476849651   111.09885637   268.43664235
 H      1   2   3     2.069703237998   111.24366551   145.91411325
 H      3   2   1     2.070442064756   111.09329351    90.95835346
 H      3   2   1     2.069752329284   111.25097118   213.48156165
 H      3   2   1     2.070980318065   111.23435497   331.17843198
 H      5   4   2     2.051680464664   120.99336324   359.35845185
 H      6   5   4     2.053887263647   117.56007812   180.01572030
 H      8   7   6     2.057474989937   120.41904566   180.48971249
 H      9   4   2     2.051251567967   121.08333416     0.68600049
 H     12  11  10     2.057559312704   120.35309693     0.20919720
 H     13  12  11     2.053734085575   119.88710850   180.07744935
 H     14  13  12     2.053457370537   120.14693339   179.94368852
 H     15  14  13     2.054195526128   120.03124178   179.98737448
 H     16  15  14     2.054199423308   117.84134216   180.36253058
 H     18  17  10     2.054390176111   121.23644532   359.53201859
 H     19  18  17     2.054303157152   119.71602253   179.95119247
 H     20  19  18     2.053429444321   120.11709689   180.04700257
 H     21  20  19     2.053708405070   120.10615508   180.05695348
 H     22  21  20     2.057597261346   118.44519593   179.92799841

---------------------
BASIS SET INFORMATION
---------------------
There are 4 groups of distinct atoms

 Group   1 Type C   : 7s4p1d contracted to 3s2p1d pattern {511/31/1}
 Group   2 Type N   : 7s4p1d contracted to 3s2p1d pattern {511/31/1}
 Group   3 Type P   : 10s7p1d contracted to 4s3p1d pattern {5311/511/1}
 Group   4 Type H   : 4s1p contracted to 2s1p pattern {31/1}

Atom   0C    basis set group =>   1
Atom   1N    basis set group =>   2
Atom   2C    basis set group =>   1
Atom   3C    basis set group =>   1
Atom   4C    basis set group =>   1
Atom   5C    basis set group =>   1
Atom   6C    basis set group =>   1
Atom   7C    basis set group =>   1
Atom   8C    basis set group =>   1
Atom   9P    basis set group =>   3
Atom  10C    basis set group =>   1
Atom  11C    basis set group =>   1
Atom  12C    basis set group =>   1
Atom  13C    basis set group =>   1
Atom  14C    basis set group =>   1
Atom  15C    basis set group =>   1
Atom  16C    basis set group =>   1
Atom  17C    basis set group =>   1
Atom  18C    basis set group =>   1
Atom  19C    basis set group =>   1
Atom  20C    basis set group =>   1
Atom  21C    basis set group =>   1
Atom  22H    basis set group =>   4
Atom  23H    basis set group =>   4
Atom  24H    basis set group =>   4
Atom  25H    basis set group =>   4
Atom  26H    basis set group =>   4
Atom  27H    basis set group =>   4
Atom  28H    basis set group =>   4
Atom  29H    basis set group =>   4
Atom  30H    basis set group =>   4
Atom  31H    basis set group =>   4
Atom  32H    basis set group =>   4
Atom  33H    basis set group =>   4
Atom  34H    basis set group =>   4
Atom  35H    basis set group =>   4
Atom  36H    basis set group =>   4
Atom  37H    basis set group =>   4
Atom  38H    basis set group =>   4
Atom  39H    basis set group =>   4
Atom  40H    basis set group =>   4
Atom  41H    basis set group =>   4
---------------------------------
AUXILIARY/J BASIS SET INFORMATION
---------------------------------
There are 4 groups of distinct atoms

 Group   1 Type C   : 12s5p4d2f1g contracted to 6s4p3d1f1g pattern {711111/2111/211/2/1}
 Group   2 Type N   : 12s5p4d2f1g contracted to 6s4p3d1f1g pattern {711111/2111/211/2/1}
 Group   3 Type P   : 14s5p5d2f1g contracted to 8s4p3d1f1g pattern {71111111/2111/311/2/1}
 Group   4 Type H   : 5s2p1d contracted to 3s1p1d pattern {311/2/1}

Atom   0C    basis set group =>   1
Atom   1N    basis set group =>   2
Atom   2C    basis set group =>   1
Atom   3C    basis set group =>   1
Atom   4C    basis set group =>   1
Atom   5C    basis set group =>   1
Atom   6C    basis set group =>   1
Atom   7C    basis set group =>   1
Atom   8C    basis set group =>   1
Atom   9P    basis set group =>   3
Atom  10C    basis set group =>   1
Atom  11C    basis set group =>   1
Atom  12C    basis set group =>   1
Atom  13C    basis set group =>   1
Atom  14C    basis set group =>   1
Atom  15C    basis set group =>   1
Atom  16C    basis set group =>   1
Atom  17C    basis set group =>   1
Atom  18C    basis set group =>   1
Atom  19C    basis set group =>   1
Atom  20C    basis set group =>   1
Atom  21C    basis set group =>   1
Atom  22H    basis set group =>   4
Atom  23H    basis set group =>   4
Atom  24H    basis set group =>   4
Atom  25H    basis set group =>   4
Atom  26H    basis set group =>   4
Atom  27H    basis set group =>   4
Atom  28H    basis set group =>   4
Atom  29H    basis set group =>   4
Atom  30H    basis set group =>   4
Atom  31H    basis set group =>   4
Atom  32H    basis set group =>   4
Atom  33H    basis set group =>   4
Atom  34H    basis set group =>   4
Atom  35H    basis set group =>   4
Atom  36H    basis set group =>   4
Atom  37H    basis set group =>   4
Atom  38H    basis set group =>   4
Atom  39H    basis set group =>   4
Atom  40H    basis set group =>   4
Atom  41H    basis set group =>   4


           ************************************************************
           *        Program running with 6 parallel MPI-processes     *
           *              working on a common directory               *
           ************************************************************
------------------------------------------------------------------------------
                             ORCA STARTUP CALCULATIONS
                           -- RI-GTO INTEGRALS CHOSEN --
------------------------------------------------------------------------------
------------------------------------------------------------------------------
                   ___                                                        
                  /   \      - P O W E R E D   B Y -                         
                 /     \                                                     
                 |  |  |   _    _      __       _____    __    __             
                 |  |  |  | |  | |    /  \     |  _  \  |  |  /  |          
                  \  \/   | |  | |   /    \    | | | |  |  | /  /          
                 / \  \   | |__| |  /  /\  \   | |_| |  |  |/  /          
                |  |  |   |  __  | /  /__\  \  |    /   |      \           
                |  |  |   | |  | | |   __   |  |    \   |  |\   \          
                \     /   | |  | | |  |  |  |  | |\  \  |  | \   \       
                 \___/    |_|  |_| |__|  |__|  |_| \__\ |__|  \__/        
                                                                              
                      - O R C A' S   B I G   F R I E N D -                    
                                      &                                       
                       - I N T E G R A L  F E E D E R -                       
                                                                              
 v1 FN, 2020, v2 2021, v3 2022-2024                                           
------------------------------------------------------------------------------


----------------------
SHARK INTEGRAL PACKAGE
----------------------

Number of atoms                             ...     42
Number of basis functions                   ...    412
Number of shells                            ...    194
Maximum angular momentum                    ...      2
Integral batch strategy                     ... SHARK/LIBINT Hybrid
RI-J (if used) integral strategy            ... SPLIT-RIJ (Revised 2003 algorithm where possible)
Printlevel                                  ...      1
Contraction scheme used                     ... SEGMENTED contraction
Prescreening option                         ... SCHWARTZ
   Thresh                                   ... 2.500e-11
   Tcut                                     ... 2.500e-12
   Tpresel                                  ... 2.500e-12 
Coulomb Range Separation                    ... NOT USED
Exchange Range Separation                   ... NOT USED
Multipole approximations                    ... NOT USED
Finite Nucleus Model                        ... NOT USED
CABS basis                                  ... NOT available
Auxiliary Coulomb fitting basis             ... AVAILABLE
   # of basis functions in Aux-J            ...   1300
   # of shells in Aux-J                     ...    432
   Maximum angular momentum in Aux-J        ...      4
Auxiliary J/K fitting basis                 ... NOT available
Auxiliary Correlation fitting basis         ... NOT available
Auxiliary 'external' fitting basis          ... NOT available

Checking pre-screening integrals            ... done (  0.0 sec) Dimension = 194
Check shell pair data                       ... done (  0.0 sec)
Shell pair information
Shell pair cut-off parameter TPreSel        ...   2.5e-12
Total number of shell pairs                 ...     18915
Shell pairs after pre-screening             ...     13263
Total number of primitive shell pairs       ...     68991
Primitive shell pairs kept                  ...     30693
          la=0 lb=0:   4168 shell pairs
          la=1 lb=0:   4986 shell pairs
          la=1 lb=1:   1524 shell pairs
          la=2 lb=0:   1528 shell pairs
          la=2 lb=1:    919 shell pairs
          la=2 lb=2:    138 shell pairs

Calculating one electron integrals          ... done (  0.0 sec)
Calculating RI/J V-Matrix + Cholesky decomp.... done (  0.1 sec)
Calculating Nuclear repulsion               ... done (  0.0 sec) ENN=   1779.440679611656 Eh

Diagonalization of the overlap matrix:
Smallest eigenvalue                        ... 2.389e-04
Time for diagonalization                   ...    0.024 sec
Threshold for overlap eigenvalues          ... 1.000e-07
Number of eigenvalues below threshold      ... 0
Time for construction of square roots      ...    0.012 sec
Total time needed                          ...    0.037 sec

-------------------
DFT GRID GENERATION
-------------------

General Integration Accuracy     IntAcc      ... 4.388
Radial Grid Type                 RadialGrid  ... OptM3 with GC (2021)
Angular Grid (max. ang.)         AngularGrid ... 4 (Lebedev-302)
Angular grid pruning method      GridPruning ... 4 (adaptive)
Weight generation scheme         WeightScheme... mBecke (2022)
Basis function cutoff            BFCut       ... 1.0000e-11
Integration weight cutoff        WCut        ... 1.0000e-14
Partially contracted basis set               ... off
Rotationally invariant grid construction     ... off
Angular grids for H and He will be reduced by one unit

Total number of grid points                  ...   196436
Total number of batches                      ...     3091
Average number of points per batch           ...       63
Average number of grid points per atom       ...     4677
Initializing property integral containers    ... done (  0.0 sec)

SHARK setup successfully completed in   1.5 seconds

Maximum memory used throughout the entire STARTUP-calculation: 52.5 MB


           ************************************************************
           *        Program running with 6 parallel MPI-processes     *
           *              working on a common directory               *
           ************************************************************
-------------------------------------------------------------------------------
                                 ORCA GUESS
                   Start orbitals & Density for SCF / CASSCF
-------------------------------------------------------------------------------

------------
SCF SETTINGS
------------
Hamiltonian:
 Density Functional     Method          .... DFT(GTOs)
 Exchange Functional    Exchange        .... B88
   X-Alpha parameter    XAlpha          ....  0.666667
   Becke's b parameter  XBeta           ....  0.004200
 Correlation Functional Correlation     .... P86
 LDA part of GGA corr.  LDAOpt          .... PW91-LDA
 Gradients option       PostSCFGGA      .... off
   NL short-range parameter             ....  4.400000
 RI-approximation to the Coulomb term is turned on
   Number of AuxJ basis functions       .... 1300


General Settings:
 Integral files         IntName         .... data/geom_opt_P_BP86/3333592/3333592
 Hartree-Fock type      HFTyp           .... RHF
 Total Charge           Charge          ....    0
 Multiplicity           Mult            ....    1
 Number of Electrons    NEL             ....  162
 Basis Dimension        Dim             ....  412
 Nuclear Repulsion      ENuc            ....   1779.4406796117 Eh

Convergence Acceleration:
 AO-DIIS                CNVDIIS         .... on
   Start iteration      DIISMaxIt       ....    12
   Startup error        DIISStart       ....  0.200000
   # of expansion vecs  DIISMaxEq       ....     5
   Bias factor          DIISBfac        ....   1.050
   Max. coefficient     DIISMaxC        ....  10.000
 MO-DIIS                CNVKDIIS        .... off
 Trust-Rad. Augm. Hess. CNVTRAH         .... auto
   Auto Start mean grad. ratio tolernc. ....  1.125000
   Auto Start start iteration           ....    50
   Auto Start num. interpolation iter.  ....    10
   Max. Number of Micro iterations      ....    24
   Max. Number of Macro iterations      .... Maxiter - #DIIS iter
   Number of Davidson start vectors     ....     2
   Converg. threshold    (grad. norm)   ....   1.000e-05
   Grad. Scal. Fac. for Micro threshold ....   0.100
   Minimum threshold for Micro iter.    ....   1.000e-02
   NR start threshold (gradient norm)   ....   1.000e-04
   Initial trust radius                 ....   0.400
   Minimum AH scaling param. (alpha)    ....   1.000
   Maximum AH scaling param. (alpha)    .... 1000.000
   Quad. conv. algorithm                .... NR
   White noise on init. David. guess    .... on
   Maximum white noise                  ....   0.010
   Pseudo random numbers                .... off
   Inactive MOs                         .... canonical
   Orbital update algorithm             .... Taylor
   Preconditioner                       .... Diag
   Full preconditioner red. dimension   ....   250
 SOSCF                  CNVSOSCF        .... on
   Start iteration      SOSCFMaxIt      ....   150
   Startup grad/error   SOSCFStart      ....  0.003300
   Hessian update       SOSCFHessUp     .... L-BFGS
 Level Shifting         CNVShift        .... on
   Level shift para.    LevelShift      ....    0.2500
   Turn off err/grad.   ShiftErr        ....    0.0010
 Zerner damping         CNVZerner       .... off
 Static damping         CNVDamp         .... on
   Fraction old density DampFac         ....    0.7000
   Max. Damping (<1)    DampMax         ....    0.9800
   Min. Damping (>=0)   DampMin         ....    0.0000
   Turn off err/grad.   DampErr         ....    0.1000

SCF Procedure:
 Maximum # iterations   MaxIter         ....   125
 SCF integral mode      SCFMode         .... Direct
   Integral package                     .... SHARK and LIBINT hybrid scheme
 Reset frequency        DirectResetFreq ....    20
 Integral Threshold     Thresh          ....  2.500e-11 Eh
 Primitive CutOff       TCut            ....  2.500e-12 Eh

Convergence Tolerance:
 Convergence Check Mode ConvCheckMode   .... Total+1el-Energy
 Convergence forced     ConvForced      .... 0
 Energy Change          TolE            ....  1.000e-08 Eh
 1-El. energy change                    ....  1.000e-05 Eh
 Orbital Gradient       TolG            ....  1.000e-05
 Orbital Rotation angle TolX            ....  1.000e-05
 DIIS Error             TolErr          ....  5.000e-07

------------------------------
INITIAL GUESS: MODEL POTENTIAL
------------------------------
Loading Hartree-Fock densities                     ... done
Calculating cut-offs                               ... done
Initializing the effective Hamiltonian             ... done
Setting up the integral package (SHARK)            ... done
Starting the Coulomb interaction                   ... done (   0.3 sec)
Making the grid                                    ... done (   0.3 sec)
Mapping shells                                     ... done
Starting the XC term evaluation                    ... done (   0.2 sec)
  promolecular density results
     # of electrons  =    161.988268427
     EX              =   -137.986811279
     EC              =     -5.978421165
     EX+EC           =   -143.965232444
Transforming the Hamiltonian                       ... done (   0.0 sec)
Diagonalizing the Hamiltonian                      ... done (   0.0 sec)
Back transforming the eigenvectors                 ... done (   0.0 sec)
Now organizing SCF variables                       ... done
                      ------------------
                      INITIAL GUESS DONE (   0.7 sec)
                      ------------------
             **** ENERGY FILE WAS UPDATED (data/geom_opt_P_BP86/3333592/3333592.en.tmp) ****
Finished Guess after   0.9 sec
Maximum memory used throughout the entire GUESS-calculation: 29.6 MB


           ************************************************************
           *        Program running with 6 parallel MPI-processes     *
           *              working on a common directory               *
           ************************************************************

-------------------------------------------------------------------------------------------
                                      ORCA LEAN-SCF
                              memory conserving SCF solver
-------------------------------------------------------------------------------------------

----------------------------------------D-I-I-S--------------------------------------------
Iteration    Energy (Eh)           Delta-E    RMSDP     MaxDP     DIISErr   Damp  Time(sec)
-------------------------------------------------------------------------------------------
               ***  Starting incremental Fock matrix formation  ***
    1    -1169.2167343654900833     0.00e+00  1.94e-03  6.65e-02  1.11e-01  0.700   1.1
    2    -1169.3965975727564910    -1.80e-01  1.39e-03  6.53e-02  5.57e-02  0.700   1.3
                               ***Turning on AO-DIIS***
    3    -1169.4649830479443153    -6.84e-02  5.92e-04  3.69e-02  1.97e-02  0.700   1.1
    4    -1169.5047618252242501    -3.98e-02  1.07e-03  6.21e-02  8.91e-03  0.000   1.1
    5    -1169.5922612687586479    -8.75e-02  2.15e-04  1.52e-02  4.51e-03  0.000   1.1
                              *** Initializing SOSCF ***
---------------------------------------S-O-S-C-F--------------------------------------
Iteration    Energy (Eh)           Delta-E    RMSDP     MaxDP     MaxGrad    Time(sec)
--------------------------------------------------------------------------------------
    6    -1169.5929061530182480    -6.45e-04  7.76e-05  4.57e-03  9.57e-04     1.1
               *** Restarting incremental Fock matrix formation ***
    7    -1169.5929442960682536    -3.81e-05  6.13e-05  2.52e-03  2.85e-04     1.2
    8    -1169.5929324611875018     1.18e-05  2.66e-05  1.71e-03  5.90e-04     1.4
    9    -1169.5929504319792613    -1.80e-05  2.34e-05  1.41e-03  1.82e-04     1.0
   10    -1169.5929477643044265     2.67e-06  1.32e-05  5.83e-04  3.47e-04     0.9
   11    -1169.5929512659768079    -3.50e-06  9.29e-06  5.99e-04  6.14e-05     0.9
   12    -1169.5929509187394615     3.47e-07  5.33e-06  3.14e-04  7.85e-05     1.0
   13    -1169.5929514424428817    -5.24e-07  3.42e-06  2.13e-04  1.59e-05     0.9
   14    -1169.5929513587702786     8.37e-08  2.21e-06  1.28e-04  2.83e-05     0.9
   15    -1169.5929514580243449    -9.93e-08  8.65e-07  5.24e-05  6.86e-06     0.9
   16    -1169.5929514596109584    -1.59e-09  5.47e-07  3.27e-05  1.09e-05     0.9
                 **** Energy Check signals convergence ****

               *****************************************************
               *                     SUCCESS                       *
               *           SCF CONVERGED AFTER  16 CYCLES          *
               *****************************************************

             **** ENERGY FILE WAS UPDATED (data/geom_opt_P_BP86/3333592/3333592.en.tmp) ****

----------------
TOTAL SCF ENERGY
----------------

Total Energy       :      -1169.59295145961096 Eh          -31826.24222 eV

Components:
Nuclear Repulsion  :       1779.44067961165592 Eh           48421.04257 eV
Electronic Energy  :      -2949.03363107126688 Eh          -80247.28479 eV
One Electron Energy:      -5127.72156583603646 Eh         -139532.39750 eV
Two Electron Energy:       2178.68793476476958 Eh           59285.11270 eV

Virial components:
Potential Energy   :      -2328.46498727430026 Eh          -63360.75350 eV
Kinetic Energy     :       1158.87203581468907 Eh           31534.51128 eV
Virial Ratio       :          2.00925116433359

DFT components:
N(Alpha)           :       80.999999286693 electrons
N(Beta)            :       80.999999286693 electrons
N(Total)           :      161.999998573386 electrons
E(X)               :     -140.078734869242 Eh       
E(C)               :       -5.980302387665 Eh       
E(XC)              :     -146.059037256907 Eh       

---------------
SCF CONVERGENCE
---------------

  Last Energy change         ...    1.5866e-09  Tolerance :   1.0000e-08
  Last MAX-Density change    ...    3.2699e-05  Tolerance :   1.0000e-07
  Last RMS-Density change    ...    5.4743e-07  Tolerance :   5.0000e-09
  Last DIIS Error            ...    9.5686e-04  Tolerance :   5.0000e-07
  Last Orbital Gradient      ...    1.0918e-05  Tolerance :   1.0000e-05
  Last Orbital Rotation      ...    1.9491e-05  Tolerance :   1.0000e-05


----------------
ORBITAL ENERGIES
----------------

  NO   OCC          E(Eh)            E(eV) 
   0   2.0000     -76.332210     -2077.1050 
   1   2.0000     -14.038366      -382.0034 
   2   2.0000      -9.950225      -270.7594 
   3   2.0000      -9.947891      -270.6959 
   4   2.0000      -9.947803      -270.6935 
   5   2.0000      -9.917964      -269.8815 
   6   2.0000      -9.916213      -269.8339 
   7   2.0000      -9.914985      -269.8005 
   8   2.0000      -9.914033      -269.7746 
   9   2.0000      -9.913465      -269.7591 
  10   2.0000      -9.913271      -269.7538 
  11   2.0000      -9.913076      -269.7485 
  12   2.0000      -9.912877      -269.7431 
  13   2.0000      -9.912586      -269.7352 
  14   2.0000      -9.912179      -269.7241 
  15   2.0000      -9.912155      -269.7234 
  16   2.0000      -9.911972      -269.7185 
  17   2.0000      -9.911847      -269.7151 
  18   2.0000      -9.910321      -269.6735 
  19   2.0000      -9.907205      -269.5887 
  20   2.0000      -9.906313      -269.5645 
  21   2.0000      -9.905654      -269.5465 
  22   2.0000      -6.301514      -171.4729 
  23   2.0000      -4.522942      -123.0755 
  24   2.0000      -4.522826      -123.0723 
  25   2.0000      -4.519171      -122.9729 
  26   2.0000      -0.861740       -23.4492 
  27   2.0000      -0.774825       -21.0841 
  28   2.0000      -0.768604       -20.9148 
  29   2.0000      -0.761704       -20.7270 
  30   2.0000      -0.694670       -18.9029 
  31   2.0000      -0.671020       -18.2594 
  32   2.0000      -0.670093       -18.2341 
  33   2.0000      -0.667464       -18.1626 
  34   2.0000      -0.665144       -18.0995 
  35   2.0000      -0.664135       -18.0720 
  36   2.0000      -0.648138       -17.6367 
  37   2.0000      -0.604128       -16.4392 
  38   2.0000      -0.569311       -15.4917 
  39   2.0000      -0.540930       -14.7195 
  40   2.0000      -0.539068       -14.6688 
  41   2.0000      -0.537673       -14.6308 
  42   2.0000      -0.530525       -14.4363 
  43   2.0000      -0.518555       -14.1106 
  44   2.0000      -0.497596       -13.5403 
  45   2.0000      -0.475105       -12.9283 
  46   2.0000      -0.463904       -12.6235 
  47   2.0000      -0.447488       -12.1768 
  48   2.0000      -0.436653       -11.8819 
  49   2.0000      -0.422567       -11.4986 
  50   2.0000      -0.408995       -11.1293 
  51   2.0000      -0.404542       -11.0081 
  52   2.0000      -0.397689       -10.8217 
  53   2.0000      -0.396776       -10.7968 
  54   2.0000      -0.396162       -10.7801 
  55   2.0000      -0.385141       -10.4802 
  56   2.0000      -0.382162       -10.3992 
  57   2.0000      -0.371394       -10.1061 
  58   2.0000      -0.370089       -10.0706 
  59   2.0000      -0.369609       -10.0576 
  60   2.0000      -0.367693       -10.0054 
  61   2.0000      -0.360291        -9.8040 
  62   2.0000      -0.358174        -9.7464 
  63   2.0000      -0.337496        -9.1837 
  64   2.0000      -0.332287        -9.0420 
  65   2.0000      -0.329395        -8.9633 
  66   2.0000      -0.327994        -8.9252 
  67   2.0000      -0.323715        -8.8087 
  68   2.0000      -0.301443        -8.2027 
  69   2.0000      -0.300584        -8.1793 
  70   2.0000      -0.295483        -8.0405 
  71   2.0000      -0.286118        -7.7857 
  72   2.0000      -0.283323        -7.7096 
  73   2.0000      -0.259780        -7.0690 
  74   2.0000      -0.240382        -6.5411 
  75   2.0000      -0.233351        -6.3498 
  76   2.0000      -0.230243        -6.2652 
  77   2.0000      -0.226185        -6.1548 
  78   2.0000      -0.221068        -6.0156 
  79   2.0000      -0.189629        -5.1601 
  80   2.0000      -0.165616        -4.5066 
  81   0.0000      -0.051551        -1.4028 
  82   0.0000      -0.047335        -1.2880 
  83   0.0000      -0.043698        -1.1891 
  84   0.0000      -0.033109        -0.9010 
  85   0.0000      -0.032010        -0.8710 
  86   0.0000      -0.024630        -0.6702 
  87   0.0000       0.033233         0.9043 
  88   0.0000       0.041687         1.1344 
  89   0.0000       0.043975         1.1966 
  90   0.0000       0.054377         1.4797 
  91   0.0000       0.062159         1.6914 
*Only the first 10 virtual orbitals were printed.

                    ********************************
                    * MULLIKEN POPULATION ANALYSIS *
                    ********************************

-----------------------
MULLIKEN ATOMIC CHARGES
-----------------------
   0 C :    0.076029
   1 N :   -0.287333
   2 C :    0.075130
   3 C :    0.227423
   4 C :   -0.078811
   5 C :   -0.006303
   6 C :   -0.117834
   7 C :    0.001156
   8 C :   -0.085353
   9 P :    0.276603
  10 C :   -0.125006
  11 C :    0.011806
  12 C :    0.008340
  13 C :    0.008711
  14 C :    0.011771
  15 C :    0.000422
  16 C :   -0.124408
  17 C :   -0.001586
  18 C :    0.011701
  19 C :    0.008716
  20 C :    0.008458
  21 C :    0.010024
  22 H :    0.032333
  23 H :    0.028613
  24 H :    0.047357
  25 H :    0.028729
  26 H :    0.047313
  27 H :    0.032634
  28 H :   -0.036864
  29 H :   -0.002054
  30 H :   -0.010704
  31 H :   -0.033624
  32 H :   -0.005162
  33 H :   -0.005929
  34 H :   -0.006893
  35 H :   -0.008093
  36 H :    0.004487
  37 H :    0.006400
  38 H :   -0.008921
  39 H :   -0.007369
  40 H :   -0.006086
  41 H :   -0.005823
Sum of atomic charges:   -0.0000000

--------------------------------
MULLIKEN REDUCED ORBITAL CHARGES
--------------------------------
  0 C s       :     2.992571  s :     2.992571
      pz      :     0.962929  p :     2.892951
      px      :     1.002349
      py      :     0.927673
      dz2     :     0.008890  d :     0.038449
      dxz     :     0.006251
      dyz     :     0.009031
      dx2y2   :     0.009985
      dxy     :     0.004292

  1 N s       :     3.435016  s :     3.435016
      pz      :     1.356381  p :     3.826233
      px      :     1.084285
      py      :     1.385566
      dz2     :     0.004214  d :     0.026084
      dxz     :     0.006735
      dyz     :     0.003679
      dx2y2   :     0.006026
      dxy     :     0.005431

  2 C s       :     2.992846  s :     2.992846
      pz      :     0.966130  p :     2.893561
      px      :     0.929276
      py      :     0.998154
      dz2     :     0.008648  d :     0.038463
      dxz     :     0.008917
      dyz     :     0.006577
      dx2y2   :     0.008724
      dxy     :     0.005597

  3 C s       :     2.931724  s :     2.931724
      pz      :     0.948281  p :     2.784688
      px      :     0.865445
      py      :     0.970962
      dz2     :     0.009713  d :     0.056166
      dxz     :     0.014008
      dyz     :     0.006485
      dx2y2   :     0.012990
      dxy     :     0.012969

  4 C s       :     3.259664  s :     3.259664
      pz      :     0.890352  p :     2.788596
      px      :     0.935884
      py      :     0.962360
      dz2     :     0.004491  d :     0.030551
      dxz     :     0.007489
      dyz     :     0.004319
      dx2y2   :     0.006582
      dxy     :     0.007670

  5 C s       :     3.243873  s :     3.243873
      pz      :     0.938158  p :     2.728732
      px      :     0.860910
      py      :     0.929665
      dz2     :     0.006437  d :     0.033698
      dxz     :     0.008610
      dyz     :     0.004803
      dx2y2   :     0.005831
      dxy     :     0.008017

  6 C s       :     3.050920  s :     3.050920
      pz      :     1.007168  p :     3.031703
      px      :     0.977399
      py      :     1.047137
      dz2     :     0.007396  d :     0.035211
      dxz     :     0.008897
      dyz     :     0.005372
      dx2y2   :     0.007556
      dxy     :     0.005989

  7 C s       :     3.228820  s :     3.228820
      pz      :     0.894782  p :     2.736483
      px      :     0.908878
      py      :     0.932822
      dz2     :     0.004719  d :     0.033541
      dxz     :     0.008120
      dyz     :     0.004786
      dx2y2   :     0.007946
      dxy     :     0.007970

  8 C s       :     3.260629  s :     3.260629
      pz      :     0.972960  p :     2.794163
      px      :     0.877782
      py      :     0.943421
      dz2     :     0.005732  d :     0.030561
      dxz     :     0.007699
      dyz     :     0.004509
      dx2y2   :     0.005075
      dxy     :     0.007546

  9 P s       :     5.659816  s :     5.659816
      pz      :     3.342059  p :     8.886363
      px      :     2.778037
      py      :     2.766267
      dz2     :     0.015749  d :     0.177219
      dxz     :     0.032998
      dyz     :     0.037127
      dx2y2   :     0.046906
      dxy     :     0.044439

 10 C s       :     3.076522  s :     3.076522
      pz      :     0.990493  p :     3.013502
      px      :     1.017721
      py      :     1.005288
      dz2     :     0.008063  d :     0.034983
      dxz     :     0.004913
      dyz     :     0.010013
      dx2y2   :     0.005757
      dxy     :     0.006237

 11 C s       :     3.219228  s :     3.219228
      pz      :     0.879465  p :     2.736424
      px      :     0.929618
      py      :     0.927341
      dz2     :     0.005861  d :     0.032542
      dxz     :     0.004064
      dyz     :     0.008471
      dx2y2   :     0.006991
      dxy     :     0.007153

 12 C s       :     3.168044  s :     3.168044
      pz      :     0.945998  p :     2.790695
      px      :     0.980358
      py      :     0.864339
      dz2     :     0.007116  d :     0.032921
      dxz     :     0.004811
      dyz     :     0.009263
      dx2y2   :     0.006445
      dxy     :     0.005285

 13 C s       :     3.167573  s :     3.167573
      pz      :     0.947043  p :     2.790548
      px      :     0.960906
      py      :     0.882599
      dz2     :     0.007339  d :     0.033168
      dxz     :     0.004685
      dyz     :     0.009332
      dx2y2   :     0.005586
      dxy     :     0.006226

 14 C s       :     3.168146  s :     3.168146
      pz      :     0.876693  p :     2.787148
      px      :     0.945369
      py      :     0.965086
      dz2     :     0.006074  d :     0.032936
      dxz     :     0.004077
      dyz     :     0.008452
      dx2y2   :     0.007122
      dxy     :     0.007210

 15 C s       :     3.234120  s :     3.234120
      pz      :     0.933191  p :     2.732796
      px      :     0.969817
      py      :     0.829788
      dz2     :     0.006874  d :     0.032663
      dxz     :     0.004706
      dyz     :     0.009403
      dx2y2   :     0.006234
      dxy     :     0.005446

 16 C s       :     3.077266  s :     3.077266
      pz      :     0.989402  p :     3.012237
      px      :     1.014275
      py      :     1.008560
      dz2     :     0.007127  d :     0.034905
      dxz     :     0.007493
      dyz     :     0.006190
      dx2y2   :     0.006637
      dxy     :     0.007459

 17 C s       :     3.235934  s :     3.235934
      pz      :     0.940053  p :     2.733009
      px      :     0.862281
      py      :     0.930674
      dz2     :     0.006312  d :     0.032644
      dxz     :     0.006324
      dyz     :     0.006201
      dx2y2   :     0.007736
      dxy     :     0.006071

 18 C s       :     3.167914  s :     3.167914
      pz      :     0.900549  p :     2.787426
      px      :     0.942228
      py      :     0.944649
      dz2     :     0.004707  d :     0.032959
      dxz     :     0.007073
      dyz     :     0.005328
      dx2y2   :     0.007835
      dxy     :     0.008016

 19 C s       :     3.167498  s :     3.167498
      pz      :     0.949225  p :     2.790616
      px      :     0.942788
      py      :     0.898604
      dz2     :     0.006166  d :     0.033170
      dxz     :     0.007702
      dyz     :     0.005107
      dx2y2   :     0.006469
      dxy     :     0.007726

 20 C s       :     3.168004  s :     3.168004
      pz      :     0.959359  p :     2.790595
      px      :     0.862682
      py      :     0.968553
      dz2     :     0.006601  d :     0.032943
      dxz     :     0.006206
      dyz     :     0.006280
      dx2y2   :     0.007595
      dxy     :     0.006262

 21 C s       :     3.219518  s :     3.219518
      pz      :     0.898083  p :     2.737920
      px      :     0.933647
      py      :     0.906189
      dz2     :     0.004572  d :     0.032538
      dxz     :     0.007085
      dyz     :     0.005305
      dx2y2   :     0.007523
      dxy     :     0.008053

 22 H s       :     0.945304  s :     0.945304
      pz      :     0.005423  p :     0.022363
      px      :     0.012497
      py      :     0.004443

 23 H s       :     0.949191  s :     0.949191
      pz      :     0.005842  p :     0.022197
      px      :     0.005226
      py      :     0.011129

 24 H s       :     0.930387  s :     0.930387
      pz      :     0.010831  p :     0.022255
      px      :     0.007333
      py      :     0.004091

 25 H s       :     0.949080  s :     0.949080
      pz      :     0.011293  p :     0.022191
      px      :     0.004504
      py      :     0.006394

 26 H s       :     0.930434  s :     0.930434
      pz      :     0.004807  p :     0.022253
      px      :     0.004968
      py      :     0.012479

 27 H s       :     0.945015  s :     0.945015
      pz      :     0.005958  p :     0.022351
      px      :     0.011095
      py      :     0.005298

 28 H s       :     1.013623  s :     1.013623
      pz      :     0.010471  p :     0.023241
      px      :     0.004763
      py      :     0.008008

 29 H s       :     0.978861  s :     0.978861
      pz      :     0.006528  p :     0.023193
      px      :     0.008112
      py      :     0.008553

 30 H s       :     0.988214  s :     0.988214
      pz      :     0.010075  p :     0.022490
      px      :     0.004793
      py      :     0.007623

 31 H s       :     1.010333  s :     1.010333
      pz      :     0.006861  p :     0.023291
      px      :     0.007489
      py      :     0.008942

 32 H s       :     0.982680  s :     0.982680
      pz      :     0.011207  p :     0.022481
      px      :     0.007515
      py      :     0.003759

 33 H s       :     0.983536  s :     0.983536
      pz      :     0.006071  p :     0.022392
      px      :     0.004914
      py      :     0.011407

 34 H s       :     0.984514  s :     0.984514
      pz      :     0.005709  p :     0.022379
      px      :     0.006086
      py      :     0.010584

 35 H s       :     0.985748  s :     0.985748
      pz      :     0.011074  p :     0.022345
      px      :     0.007513
      py      :     0.003758

 36 H s       :     0.972355  s :     0.972355
      pz      :     0.006124  p :     0.023157
      px      :     0.004876
      py      :     0.012157

 37 H s       :     0.970394  s :     0.970394
      pz      :     0.005468  p :     0.023206
      px      :     0.012765
      py      :     0.004973

 38 H s       :     0.986587  s :     0.986587
      pz      :     0.009798  p :     0.022334
      px      :     0.005665
      py      :     0.006871

 39 H s       :     0.984987  s :     0.984987
      pz      :     0.005979  p :     0.022383
      px      :     0.006359
      py      :     0.010045

 40 H s       :     0.983692  s :     0.983692
      pz      :     0.005481  p :     0.022394
      px      :     0.012080
      py      :     0.004834

 41 H s       :     0.983338  s :     0.983338
      pz      :     0.009901  p :     0.022485
      px      :     0.005638
      py      :     0.006946



                     *******************************
                     * LOEWDIN POPULATION ANALYSIS *
                     *******************************

----------------------
LOEWDIN ATOMIC CHARGES
----------------------
   0 C :    0.015505
   1 N :   -0.057009
   2 C :    0.015373
   3 C :    0.016431
   4 C :   -0.066614
   5 C :   -0.027190
   6 C :   -0.205773
   7 C :   -0.024259
   8 C :   -0.065950
   9 P :    0.503165
  10 C :   -0.174243
  11 C :   -0.028419
  12 C :   -0.030565
  13 C :   -0.029492
  14 C :   -0.029909
  15 C :   -0.032587
  16 C :   -0.176723
  17 C :   -0.032570
  18 C :   -0.030245
  19 C :   -0.030047
  20 C :   -0.030538
  21 C :   -0.029437
  22 H :    0.029560
  23 H :    0.017441
  24 H :    0.027665
  25 H :    0.017259
  26 H :    0.027835
  27 H :    0.029631
  28 H :    0.024491
  29 H :    0.030750
  30 H :    0.027969
  31 H :    0.025063
  32 H :    0.027967
  33 H :    0.029927
  34 H :    0.028650
  35 H :    0.029407
  36 H :    0.031033
  37 H :    0.031599
  38 H :    0.029057
  39 H :    0.028447
  40 H :    0.029832
  41 H :    0.027512

-------------------------------
LOEWDIN REDUCED ORBITAL CHARGES
-------------------------------
  0 C s       :     2.837606  s :     2.837606
      pz      :     1.011016  p :     3.050909
      px      :     1.052118
      py      :     0.987775
      dz2     :     0.021521  d :     0.095981
      dxz     :     0.015503
      dyz     :     0.022880
      dx2y2   :     0.026515
      dxy     :     0.009560

  1 N s       :     3.083775  s :     3.083775
      pz      :     1.368326  p :     3.912994
      px      :     1.152456
      py      :     1.392212
      dz2     :     0.007970  d :     0.060240
      dxz     :     0.016912
      dyz     :     0.008050
[...]
      dxz     :     0.019725
      dyz     :     0.012668
      dx2y2   :     0.020742
      dxy     :     0.022228

 19 C s       :     2.873604  s :     2.873604
      pz      :     1.015182  p :     3.074279
      px      :     1.050123
      py      :     1.008974
      dz2     :     0.013167  d :     0.085729
      dxz     :     0.021480
      dyz     :     0.012509
      dx2y2   :     0.018419
      dxy     :     0.020155

 20 C s       :     2.872854  s :     2.872854
      pz      :     1.022056  p :     3.074206
      px      :     1.029553
      py      :     1.022597
      dz2     :     0.016384  d :     0.086303
      dxz     :     0.016544
      dyz     :     0.016992
      dx2y2   :     0.019277
      dxy     :     0.017107

 21 C s       :     2.876283  s :     2.876283
      pz      :     1.010473  p :     3.072674
      px      :     1.048051
      py      :     1.014150
      dz2     :     0.011658  d :     0.087203
      dxz     :     0.019814
      dyz     :     0.012824
      dx2y2   :     0.019926
      dxy     :     0.022981

 22 H s       :     0.905521  s :     0.905521
      pz      :     0.011193  p :     0.063283
      px      :     0.039587
      py      :     0.012503

 23 H s       :     0.910963  s :     0.910963
      pz      :     0.010048  p :     0.063699
      px      :     0.012485
      py      :     0.041166

 24 H s       :     0.911499  s :     0.911499
      pz      :     0.030231  p :     0.063647
      px      :     0.019369
      py      :     0.014047

 25 H s       :     0.911219  s :     0.911219
      pz      :     0.038279  p :     0.063663
      px      :     0.011221
      py      :     0.014162

 26 H s       :     0.911299  s :     0.911299
      pz      :     0.011673  p :     0.063660
      px      :     0.012151
      py      :     0.039836

 27 H s       :     0.905460  s :     0.905460
      pz      :     0.017721  p :     0.063286
      px      :     0.033818
      py      :     0.011746

 28 H s       :     0.901661  s :     0.901661
      pz      :     0.033784  p :     0.070363
      px      :     0.013543
      py      :     0.023037

 29 H s       :     0.897198  s :     0.897198
      pz      :     0.019612  p :     0.068124
      px      :     0.026459
      py      :     0.022053

 30 H s       :     0.904128  s :     0.904128
      pz      :     0.032962  p :     0.066076
      px      :     0.013023
      py      :     0.020092

 31 H s       :     0.901555  s :     0.901555
      pz      :     0.021579  p :     0.070335
      px      :     0.024571
      py      :     0.024185

 32 H s       :     0.903061  s :     0.903061
      pz      :     0.033762  p :     0.066527
      px      :     0.022006
      py      :     0.010758

 33 H s       :     0.902009  s :     0.902009
      pz      :     0.016911  p :     0.065743
      px      :     0.014109
      py      :     0.034724

 34 H s       :     0.902779  s :     0.902779
      pz      :     0.017365  p :     0.065900
      px      :     0.016813
      py      :     0.031722

 35 H s       :     0.902339  s :     0.902339
      pz      :     0.033014  p :     0.065775
      px      :     0.021737
      py      :     0.011024

 36 H s       :     0.895956  s :     0.895956
      pz      :     0.016922  p :     0.069206
      px      :     0.014070
      py      :     0.038214

 37 H s       :     0.894980  s :     0.894980
      pz      :     0.013738  p :     0.069550
      px      :     0.040643
      py      :     0.015169

 38 H s       :     0.902784  s :     0.902784
      pz      :     0.027867  p :     0.065739
      px      :     0.018444
      py      :     0.019429

 39 H s       :     0.902804  s :     0.902804
      pz      :     0.019581  p :     0.065892
      px      :     0.017485
      py      :     0.028826

 40 H s       :     0.901910  s :     0.901910
      pz      :     0.013877  p :     0.065759
      px      :     0.037848
      py      :     0.014035

 41 H s       :     0.903158  s :     0.903158
      pz      :     0.028593  p :     0.066547
      px      :     0.018191
      py      :     0.019763



                      *****************************
                      * MAYER POPULATION ANALYSIS *
                      *****************************

  NA   - Mulliken gross atomic population
  ZA   - Total nuclear charge
  QA   - Mulliken gross atomic charge
  VA   - Mayer's total valence
  BVA  - Mayer's bonded valence
  FA   - Mayer's free valence

  ATOM       NA         ZA         QA         VA         BVA        FA
  0 C      5.9351     6.0000     0.0649     3.9596     3.9596    -0.0000
  1 N      7.2777     7.0000    -0.2777     3.3761     3.3761    -0.0000
  2 C      5.9364     6.0000     0.0636     3.9599     3.9599    -0.0000
  3 C      5.8155     6.0000     0.1845     3.8217     3.8217    -0.0000
  4 C      6.0667     6.0000    -0.0667     3.8287     3.8287    -0.0000
  5 C      6.0020     6.0000    -0.0020     3.8843     3.8843    -0.0000
  6 C      6.1527     6.0000    -0.1527     3.7895     3.7895    -0.0000
  7 C      6.0001     6.0000    -0.0001     3.8770     3.8770    -0.0000
  8 C      6.0724     6.0000    -0.0724     3.8493     3.8493    -0.0000
  9 P     14.7055    15.0000     0.2945     2.9879     2.9879    -0.0000
 10 C      6.1541     6.0000    -0.1541     3.8474     3.8474    -0.0000
 11 C      5.9829     6.0000     0.0171     3.8665     3.8665    -0.0000
 12 C      6.0020     6.0000    -0.0020     3.8566     3.8566    -0.0000
 13 C      5.9988     6.0000     0.0012     3.8246     3.8246    -0.0000
 14 C      5.9981     6.0000     0.0019     3.8338     3.8338    -0.0000
 15 C      5.9988     6.0000     0.0012     3.8815     3.8815    -0.0000
 16 C      6.1582     6.0000    -0.1582     3.8308     3.8308    -0.0000
 17 C      5.9962     6.0000     0.0038     3.8859     3.8859    -0.0000
 18 C      5.9962     6.0000     0.0038     3.8301     3.8301    -0.0000
 19 C      5.9987     6.0000     0.0013     3.8239     3.8239    -0.0000
 20 C      6.0016     6.0000    -0.0016     3.8567     3.8567    -0.0000
 21 C      5.9913     6.0000     0.0087     3.8684     3.8684    -0.0000
 22 H      0.9638     1.0000     0.0362     0.9941     0.9941    -0.0000
 23 H      0.9563     1.0000     0.0437     0.9820     0.9820    -0.0000
 24 H      0.9573     1.0000     0.0427     0.9819     0.9819    -0.0000
 25 H      0.9564     1.0000     0.0436     0.9817     0.9817    -0.0000
 26 H      0.9569     1.0000     0.0431     0.9820     0.9820    -0.0000
 27 H      0.9638     1.0000     0.0362     0.9943     0.9943    -0.0000
 28 H      1.0267     1.0000    -0.0267     0.9947     0.9947    -0.0000
 29 H      0.9923     1.0000     0.0077     0.9912     0.9912    -0.0000
 30 H      1.0040     1.0000    -0.0040     0.9898     0.9898    -0.0000
 31 H      1.0246     1.0000    -0.0246     0.9949     0.9949    -0.0000
 32 H      0.9982     1.0000     0.0018     0.9907     0.9907    -0.0000
 33 H      0.9982     1.0000     0.0018     0.9786     0.9786    -0.0000
 34 H      0.9987     1.0000     0.0013     0.9785     0.9785    -0.0000
 35 H      1.0003     1.0000    -0.0003     0.9785     0.9785    -0.0000
 36 H      0.9828     1.0000     0.0172     0.9902     0.9902    -0.0000
 37 H      0.9829     1.0000     0.0171     0.9920     0.9920     0.0000
 38 H      1.0014     1.0000    -0.0014     0.9784     0.9784    -0.0000
 39 H      0.9987     1.0000     0.0013     0.9785     0.9785    -0.0000
 40 H      0.9978     1.0000     0.0022     0.9786     0.9786    -0.0000
 41 H      0.9979     1.0000     0.0021     0.9901     0.9901    -0.0000

  Mayer bond orders larger than 0.100000
B(  0-C ,  1-N ) :   1.0287 B(  0-C , 22-H ) :   0.9618 B(  0-C , 23-H ) :   0.9535 
B(  0-C , 24-H ) :   0.9538 B(  1-N ,  2-C ) :   1.0285 B(  1-N ,  3-C ) :   1.1657 
B(  2-C , 25-H ) :   0.9538 B(  2-C , 26-H ) :   0.9537 B(  2-C , 27-H ) :   0.9619 
B(  3-C ,  4-C ) :   1.2783 B(  3-C ,  8-C ) :   1.2851 B(  4-C ,  5-C ) :   1.3980 
B(  4-C , 28-H ) :   0.9731 B(  5-C ,  6-C ) :   1.3419 B(  5-C , 29-H ) :   0.9642 
B(  6-C ,  7-C ) :   1.3399 B(  6-C ,  9-P ) :   0.9517 B(  7-C ,  8-C ) :   1.4080 
B(  7-C , 30-H ) :   0.9677 B(  8-C , 31-H ) :   0.9739 B(  9-P , 10-C ) :   0.9321 
B(  9-P , 16-C ) :   0.9193 B( 10-C , 11-C ) :   1.3620 B( 10-C , 15-C ) :   1.3868 
B( 11-C , 12-C ) :   1.4075 B( 11-C , 32-H ) :   0.9707 B( 12-C , 13-C ) :   1.3714 
B( 12-C , 33-H ) :   0.9754 B( 13-C , 14-C ) :   1.3816 B( 13-C , 34-H ) :   0.9755 
B( 14-C , 15-C ) :   1.3786 B( 14-C , 35-H ) :   0.9744 B( 15-C , 36-H ) :   0.9658 
B( 16-C , 17-C ) :   1.3920 B( 16-C , 21-C ) :   1.3579 B( 17-C , 18-C ) :   1.3782 
B( 17-C , 37-H ) :   0.9659 B( 18-C , 19-C ) :   1.3806 B( 18-C , 38-H ) :   0.9742 
B( 19-C , 20-C ) :   1.3724 B( 19-C , 39-H ) :   0.9754 B( 20-C , 21-C ) :   1.4064 
B( 20-C , 40-H ) :   0.9756 B( 21-C , 41-H ) :   0.9715 

-------
TIMINGS
-------

Total SCF time: 0 days 0 hours 0 min 6 sec 

Total time                  ....       6.658 sec
Sum of individual times     ....       6.555 sec  ( 98.5%)

SCF preparation             ....       0.147 sec  (  2.2%)
Fock matrix formation       ....       5.818 sec  ( 87.4%)
  Startup                   ....       0.030 sec  (  0.5% of F)
  Split-RI-J                ....       2.077 sec  ( 35.7% of F)
  XC integration            ....       3.611 sec  ( 62.1% of F)
    Basis function eval.    ....       1.061 sec  ( 29.4% of XC)
    Density eval.           ....       1.071 sec  ( 29.7% of XC)
    XC-Functional eval.     ....       0.082 sec  (  2.3% of XC)
    XC-Potential eval.      ....       0.748 sec  ( 20.7% of XC)
Diagonalization             ....       0.000 sec  (  0.0%)
Density matrix formation    ....       0.068 sec  (  1.0%)
Total Energy calculation    ....       0.024 sec  (  0.4%)
Population analysis         ....       0.118 sec  (  1.8%)
Orbital Transformation      ....       0.053 sec  (  0.8%)
Orbital Orthonormalization  ....       0.000 sec  (  0.0%)
DIIS solution               ....       0.063 sec  (  0.9%)
SOSCF solution              ....       0.264 sec  (  4.0%)
Finished LeanSCF after   6.7 sec

Maximum memory used throughout the entire LEANSCF-calculation: 44.7 MB


-------------------------------------------------------------------------------
                          DFT DISPERSION CORRECTION                            
                                                                               
                              DFTD3 V3.1  Rev 1                                
                          USING Becke-Johnson damping                          
-------------------------------------------------------------------------------
The BP86 functional is recognized
Active option DFTDOPT                   ...         4   

molecular C6(AA) [au] = 22510.302731 


            DFT-D V3
 parameters
 s6 scaling factor         :     1.0000 
 a1 scaling factor         :     0.3946 
 s8 scaling factor         :     3.2822 
 a2 scaling factor         :     4.8516 
 ad hoc parameters k1-k3   :    16.0000     1.3333    -4.0000 

 Edisp/kcal,au: -60.290466020976  -0.096078963078 
 E6   /kcal   : -22.122103584 
 E8   /kcal   : -38.168362437 
 % E8         :  63.307459630 

-------------------------   ----------------
Dispersion correction           -0.096078963
-------------------------   ----------------


-------------------------   --------------------
FINAL SINGLE POINT ENERGY     -1169.697808388260
-------------------------   --------------------

                                *** OPTIMIZATION RUN DONE ***



           ************************************************************
           *        Program running with 6 parallel MPI-processes     *
           *              working on a common directory               *
           ************************************************************

------------------------------------------------------------------------------
                              ORCA PROPERTY CALCULATIONS
------------------------------------------------------------------------------

GBWName                                 ... data/geom_opt_P_BP86/3333592/3333592.gbw
Number of atoms                         ...     42
Number of basis functions               ...    412
Max core memory                         ...   1024 MB

Electric properties:
Dipole moment                           ... YES
Quadrupole moment                       ...  NO
Static polarizability (Dipole/Dipole)   ...  NO
Static polarizability (Dipole/Quad.)    ...  NO
Static polarizability (Quad./Quad.)     ...  NO
Static polarizability (Velocity)        ...  NO

Atomic electric properties:
Dipole moment                           ...  NO
Quadrupole moment                       ...  NO
Static polarizability                   ...  NO

Choice of electric origin               ... Center of mass
Position of electric origin             ...    -0.732890    -0.018847    -0.579357

General magnetic properties:
Magnetizability                         ...  NO

EPR properties:
g-Tensor (aka g-matrix)                 ...  NO
Zero-Field splitting spin-orbit         ...  NO
Zero-field splitting spin-spin          ...  NO
Hyperfine couplings                     ...  NO (   0 nuclei)
Quadrupole couplings                    ...  NO (   0 nuclei)
Contact density                         ...  NO (   0 nuclei)

NMR properties:
Chemical shifts                         ...  NO (   0 nuclei)
Spin-rotation constants                 ...  NO (   0 nuclei)
Spin-spin couplings                     ...  NO (   0 nuclei,    0 pairs)

Choice of magnetic origin               ... GIAO
Position of magnetic origin             ...     0.000000     0.000000     0.000000

Properties with geometric perturbations:
SCF Hessian                             ...  NO
IR spectrum                             ...  NO
VCD spectrum                            ...  NO
X-ray spectroscopy properties:
SCF XES/XAS/RIXS spectra                ...  NO


-------------
DIPOLE MOMENT
-------------

Method             : SCF
Type of density    : Electron Density
Multiplicity       :   1
Irrep              :   0
Energy             : -1169.6017294251819294 Eh
Relativity type    : 
Basis              : AO
                                X                 Y                 Z
Electronic contribution:    -15.474500845      -0.446466316      -8.438345945
Nuclear contribution   :     16.790101382       0.474812133       9.262020518
                        -----------------------------------------
Total Dipole Moment    :      1.315600537       0.028345817       0.823674572
                        -----------------------------------------
Magnitude (a.u.)       :      1.552432949
Magnitude (Debye)      :      3.945970964



--------------------
Rotational spectrum 
--------------------
 
Rotational constants in cm-1:             0.011158             0.005816             0.004433 
Rotational constants in MHz :           334.508150           174.371610           132.899679 

Dipole components along the rotational axes: 
x,y,z [a.u.] :     1.349006     0.020242     0.767998 
x,y,z [Debye]:     3.428901     0.051450     1.952096 

 

Dipole moment calculation done in   0.0 sec 

Maximum memory used throughout the entire PROP-calculation: 22.9 MB

--------------------------------
SUGGESTED CITATIONS FOR THIS RUN
--------------------------------

Below you find a list of papers that are relevant to this ORCA run
We neither can nor want to force you to cite these papers, but we appreciate if you do
You receive ORCA, which is the product of decades of hard work by many enthusiastic individuals, for free
The only thing we kindly ask in return is that you cite our papers,
We deeply appreciate it, if you show your appreciation for ORCA by not just citing the generic ORCA reference.

Please note that relegating all ORCA citations to the supporting information does *not* help us.
SI sections are not indexed - citations you put there will not count into any citation statistics
But we need these citations in order to attract the funding resources that allow us to do what we are doing

Therefore, if you are a happy ORCA user, please consider citing a few of the papers listed below in the main body of your paper

In addition to the list printed below, the program has created the file data/geom_opt_P_BP86/3333592/3333592.bibtex that contains the list in bibtex format
You can import this file easily into all common literature databanks and citation aid programs


List of essential papers. We consider these as the minimum necessary citations

  1. Neese,F.
     Software update: the ORCA program system, version 5.0
     WIRES Comput. Molec. Sci., 2022 12(1)e1606
     doi.org/10.1002/wcms.1606

List of papers to cite with high priority. The work reported in these papers was absolutely
necessary for this run to complete.
Our perspective: the developers of density functionals and basis sets usually get cited in chemistry papers
Good! But without the algorithms to do something with them, the functionals or basis sets would not do anything.
Hence, in our opinion, the algorithm design and method developments papers are equally worthy of getting cited

  1. Neese,F.
     An improvement of the resolution of the identity approximation for the formation of the Coulomb matrix
     J. Comp. Chem., 2003 24(14)1740-1747
     doi.org/10.1002/jcc.10318
  2. Neese,F.
     The SHARK Integral Generation and Digestion System
     J. Comp. Chem., 2022  1-16
     doi.org/10.1002/jcc.26942
  3. Grimme,S.; Antony,J.; Ehrlich,S.; Krieg,H.
     A consistent and accurate ab initio parametrization of density functional dispersion correction (DFT-D) for the 94 elements H-Pu
     J. Chem. Phys., 2010 132 154104-XXXX
     doi.org/10.1063/1.3382344
  4. Grimme,S.; Ehrlich,S.; Goerigk,L.
     Effect of the damping function in dispersion corrected density functional theory
     J. Comput. Chem., 2011 32(7)1456-1465
     doi.org/10.1002/jcc.21759

List of suggested additional citations. These are papers that are important in the 'surrounding' of 
of this run, or papers that preceded the highly important papers. If you like your results we are grateful for a citation.

  1. Neese,F.
     The ORCA program system
     WIRES Comput. Molec. Sci., 2012 2(1)73-78
     doi.org/10.1002/wcms.81
  2. Neese,F.
     Software update: the ORCA program system, version 4.0
     WIRES Comput. Molec. Sci., 2018 8(1)1-6
     doi.org/10.1002/wcms.1327
  3. Neese,F.; Wennmohs,F.; Becker,U.; Riplinger,C.
     The ORCA quantum chemistry program package
     J. Chem. Phys., 2020 152 Art. No. L224108
     doi.org/10.1063/5.0004608

List of optional additional citations

  1. Neese,F.
     Approximate second-order SCF convergence for spin unrestricted wavefunctions
     Chem. Phys. Lett., 2000 325(1-3)93-98
     doi.org/10.1016/s0009-2614(00)00662-x

Timings for individual modules:

Sum of individual times          ...      283.700 sec (=   4.728 min)
Startup calculation              ...       23.188 sec (=   0.386 min)   8.2 %
SCF iterations                   ...      163.330 sec (=   2.722 min)  57.6 %
Property calculations            ...        0.205 sec (=   0.003 min)   0.1 %
SCF Gradient evaluation          ...       96.634 sec (=   1.611 min)  34.1 %
Geometry relaxation              ...        0.343 sec (=   0.006 min)   0.1 %
                             ****ORCA TERMINATED NORMALLY****
TOTAL RUN TIME: 0 days 0 hours 4 minutes 46 seconds 815 msec
