
                                 *****************
                                 * O   R   C   A *
                                 *****************

                                            #,                                       
                                            ###                                      
                                            ####                                     
                                            #####                                    
                                            ######                                   
                                           ########,                                 
                                     ,,################,,,,,                         
                               ,,#################################,,                 
                          ,,##########################################,,             
                       ,#########################################, ''#####,          
                    ,#############################################,,   '####,        
                  ,##################################################,,,,####,       
                ,###########''''           ''''###############################       
              ,#####''   ,,,,##########,,,,          '''####'''          '####       
            ,##' ,,,,###########################,,,                        '##       
           ' ,,###''''                  '''############,,,                           
         ,,##''                                '''############,,,,        ,,,,,,###''
      ,#''                                            '''#######################'''  
     '                                                          ''''####''''         
             ,#######,   #######,   ,#######,      ##                                
            ,#'     '#,  ##    ##  ,#'     '#,    #''#        ,####,   ,####,        
            ##       ##  ##   ,#'  ##            #'  '#       #'       #'  '#        
            ##       ##  #######   ##           ,######,      #####,   #    #        
            '#,     ,#'  ##    ##  '#,     ,#' ,#      #,     #,   #   #,  ,#        
             '#######'   ##     ##  '#######'  #'      '#     '####' # '####'        



                #########################################################
                #                        -***-                          #
                #          Department of theory and spectroscopy        #
                #                                                       #
                #                      Frank Neese                      #
                #                                                       #
                #     Directorship, Architecture, Infrastructure        #
                #                    SHARK, DRIVERS                     #
                #        Core code/Algorithms in most modules           #
                #                                                       #
                #        Max Planck Institute fuer Kohlenforschung      #
                #                Kaiser Wilhelm Platz 1                 #
                #                 D-45470 Muelheim/Ruhr                 #
                #                      Germany                          #
                #                                                       #
                #                  All rights reserved                  #
                #                        -***-                          #
                #########################################################


                         Program Version 6.0.0  -   RELEASE   -


 With contributions from (in alphabetic order):
   Daniel Aravena         : Magnetic Suceptibility
   Michael Atanasov       : Ab Initio Ligand Field Theory (pilot matlab implementation)
   Alexander A. Auer      : GIAO ZORA, VPT2 properties, NMR spectrum
   Ute Becker             : All parallelization in ORCA, NUMFREQ, NUMCALC
   Giovanni Bistoni       : ED, misc. LED, open-shell LED, HFLD
   Martin Brehm           : Molecular dynamics
   Dmytro Bykov           : pre 5.0 version of the SCF Hessian
   Marcos Casanova-Páez   : Triplet and SCS-CIS(D). UHF-(DLPNO)-IP/EA/STEOM-CCSD. UHF-CVS-IP/STEOM-CCSD
   Vijay G. Chilkuri      : MRCI spin determinant printing, contributions to CSF-ICE
   Pauline Colinet        : FMM embedding
   Dipayan Datta          : RHF DLPNO-CCSD density
   Achintya Kumar Dutta   : EOM-CC, STEOM-CC
   Nicolas Foglia         : Exact transition moments, OPA infrastructure, MCD improvements
   Dmitry Ganyushin       : Spin-Orbit,Spin-Spin,Magnetic field MRCI
   Miquel Garcia          : C-PCM and meta-GGA Hessian, CCSD/C-PCM, Gaussian charge scheme
   Tiago L. C. Gouveia    : GS-ROHF, GS-ROCIS
   Yang Guo               : DLPNO-NEVPT2, F12-NEVPT2, CIM, IAO-localization
   Andreas Hansen         : Spin unrestricted coupled pair/coupled cluster methods
   Ingolf Harden          : AUTO-CI MPn and infrastructure 
   Benjamin Helmich-Paris : MC-RPA, TRAH-(SCF,CASSCF), AVAS, COSX integrals, SCF dyn. polar.
   Lee Huntington         : MR-EOM, pCC
   Robert Izsak           : Overlap fitted RIJCOSX, COSX-SCS-MP3, EOM
   Riya Kayal             : Wick's Theorem for AUTO-CI, AUTO-CI UHF-CCSDT
   Emily Kempfer          : AUTO-CI, RHF CISDT and CCSDT
   Christian Kollmar      : KDIIS, OOCD, Brueckner-CCSD(T), CCSD density, CASPT2, CASPT2-K, improved NEVPT2
   Axel Koslowski         : Symmetry handling
   Simone Kossmann        : Meta GGA functionals, TD-DFT gradient, OOMP2, (MP2 Hessian; deprecated post 5.0)
   Lucas Lang             : DCDCAS
   Marvin Lechner         : AUTO-CI (C++ implementation), FIC-MRCC
   Spencer Leger          : CASSCF response
   Dagmar Lenk            : GEPOL surface, SMD, ORCA-2-JSON
   Dimitrios Liakos       : Extrapolation schemes; Compound Job, initial MDCI parallelization
   Dimitrios Manganas     : Further ROCIS development; embedding schemes. LFT, Crystal Embedding
   Dimitrios Pantazis     : SARC Basis sets
   Anastasios Papadopoulos: AUTO-CI, single reference methods and gradients
   Taras Petrenko         : pre 6.0 DFT Hessian and TD-DFT gradient, (ASA, deprecated), ECA, 1-Electron XAS/XES, NRVS
   Peter Pinski           : DLPNO-MP2, DLPNO-MP2 Gradient
   Christoph Reimann      : Effective Core Potentials
   Marius Retegan         : Local ZFS, SOC
   Christoph Riplinger    : Optimizer, TS searches, QM/MM, DLPNO-CCSD(T), (RO)-DLPNO pert. Triples
   Michael Roemelt        : Original ROCIS implementation
   Masaaki Saitow         : Open-shell DLPNO-CCSD energy and density
   Barbara Sandhoefer     : DKH picture change effects
   Kantharuban Sivalingam : CASSCF convergence/infrastructure, NEVPT2 and variants, FIC-MRCI
   Bernardo de Souza      : ESD, SOC TD-DFT
   Georgi Stoychev        : AutoAux, RI-MP2 NMR, DLPNO-MP2 response, X2C
   Van Anh Tran           : RI-MP2 g-tensors
   Willem Van den Heuvel  : Paramagnetic NMR
   Zikuan Wang            : NOTCH, Electric field optimization 
   Frank Wennmohs         : Technical directorship and infrastructure
   Hang Xu                : AUTO-CI-Response properties 


 We gratefully acknowledge several colleagues who have allowed us to
 interface, adapt or use parts of their codes:
   Stefan Grimme, W. Hujo, H. Kruse, P. Pracht,  : VdW corrections, initial TS optimization,
                  C. Bannwarth, S. Ehlert,         DFT functionals, gCP, sTDA/sTD-DF
                  L. Wittmann, M. Mueller
   Ed Valeev, F. Pavosevic, A. Kumar             : LibInt (2-el integral package), F12 methods
   Garnet Chan, S. Sharma, J. Yang, R. Olivares  : DMRG
   Ulf Ekstrom                                   : XCFun DFT Library
   Mihaly Kallay                                 : mrcc  (arbitrary order and MRCC methods)
   Frank Weinhold                                : gennbo (NPA and NBO analysis)
   Simon Mueller                                 : openCOSMO-RS
   Christopher J. Cramer and Donald G. Truhlar   : smd solvation model
   Lars Goerigk                                  : TD-DFT with DH, B97 family of functionals
   V. Asgeirsson, H. Jonsson                     : NEB implementation
   FAccTs GmbH                                   : IRC, NEB, NEB-TS, DLPNO-Multilevel, CI-OPT
                                                   MM, QMMM, 2- and 3-layer-ONIOM, Crystal-QMMM,
                                                   LR-CPCM, SF, NACMEs, symmetry and pop. for TD-DFT,
                                                   nearIR, NL-DFT gradient (VV10), updates on ESD,
                                                   ML-optimized integration grids, MBIS, APM,
                                                   GOAT, DOCKER, SOLVATOR, interface openCOSMO-RS
   S Lehtola, MJT Oliveira, MAL Marques          : LibXC Library
   Liviu Ungur et al                             : ANISO software


 Your calculation uses the libint2 library for the computation of 2-el integrals
 For citations please refer to: http://libint.valeyev.net

 Your ORCA version has been built with support for libXC version: 6.2.2
 For citations please refer to: https://libxc.gitlab.io

 This ORCA versions uses:
   CBLAS   interface :  Fast vector & matrix operations
   LAPACKE interface :  Fast linear algebra routines
   Shared memory     :  Shared parallel matrices


Your calculation utilizes the atom-pairwise dispersion correction
with the Becke-Johnson damping scheme (D3BJ)


Warning: RI is on but no J-basis has been assigned. Assigning Def2/J (nothing to worry about!)
================================================================================

----- Orbital basis set information -----
Your calculation utilizes the basis: def2-SVP
   F. Weigend and R. Ahlrichs, Phys. Chem. Chem. Phys. 7, 3297 (2005).

----- AuxJ basis set information -----
Your calculation utilizes the auxiliary basis: def2/J
   F. Weigend, Phys. Chem. Chem. Phys. 8, 1057 (2006).

================================================================================
                                        WARNINGS
                       Please study these warnings very carefully!
================================================================================


WARNING: Geometry Optimization
  ===> : Switching off AutoStart
         For restart on a previous wavefunction, please use MOREAD

================================================================================
                                       INPUT FILE
================================================================================
NAME = data/geom_opt_P_BP86/87021/87021.inp
|  1> ! RI BP86 def2-SVP D3BJ TIGHTSCF Opt
|  2> %pal
|  3> nprocs 6
|  4> end
|  5> 
|  6> * xyz 0 1
|  7> C     -3.030930   -3.284337   -0.981055
|  8> C     -1.675783   -3.534638   -0.789495
|  9> C     -0.860761   -2.568228   -0.190836
| 10> C     -1.377135   -1.323324    0.204382
| 11> C     -2.756792   -1.110571    0.037536
| 12> C     -3.573966   -2.074717   -0.560551
| 13> P     -0.345560   -0.072851    1.032682
| 14> C     -0.818498    1.531756    0.301556
| 15> C     -0.650901    2.680475    1.094184
| 16> C     -0.981274    3.948121    0.607403
| 17> C     -1.482524    4.089595   -0.683066
| 18> C     -1.649702    2.965072   -1.486501
| 19> C     -1.317880    1.697215   -0.998637
| 20> C      1.335319   -0.259789    0.319382
| 21> C      1.514544   -0.407078   -1.071930
| 22> C      2.782242   -0.582438   -1.635364
| 23> C      3.908261   -0.612937   -0.822508
| 24> C      3.766321   -0.458947    0.554049
| 25> C      2.493196   -0.277678    1.127344
| 26> C      2.440831   -0.071727    2.595413
| 27> O      1.821379    0.776587    3.206409
| 28> O      3.203506   -0.979854    3.235048
| 29> H     -3.665465   -4.036808   -1.441477
| 30> H     -1.250119   -4.487149   -1.094619
| 31> H      0.186837   -2.813950   -0.030197
| 32> H     -3.218237   -0.185001    0.378649
| 33> H     -4.635994   -1.880707   -0.686527
| 34> H     -0.252737    2.598069    2.105489
| 35> H     -0.842590    4.821950    1.238521
| 36> H     -1.738770    5.074866   -1.062935
| 37> H     -2.036774    3.071801   -2.496483
| 38> H     -1.455551    0.843374   -1.656962
| 39> H      0.659512   -0.396557   -1.744749
| 40> H      2.884037   -0.695731   -2.712110
| 41> H      4.894676   -0.748827   -1.258389
| 42> H      4.653498   -0.470264    1.183949
| 43> H      3.073783   -0.764774    4.182392
| 44> **                         ****END OF INPUT****
================================================================================

                       *****************************
                       * Geometry Optimization Run *
                       *****************************

Geometry optimization settings:
Update method            Update   .... BFGS
Choice of coordinates    CoordSys .... (2022) Redundant Internals
Initial Hessian          InHess   .... Almloef's Model
Max. no of cycles        MaxIter  .... 111

Convergence Tolerances:
Energy Change            TolE     ....  5.0000e-06 Eh
Max. Gradient            TolMAXG  ....  3.0000e-04 Eh/bohr
RMS Gradient             TolRMSG  ....  1.0000e-04 Eh/bohr
Max. Displacement        TolMAXD  ....  4.0000e-03 bohr
RMS Displacement         TolRMSD  ....  2.0000e-03 bohr
Strict Convergence                .... False

------------------------------------------------------------------------------
                        ORCA OPTIMIZATION COORDINATE SETUP
------------------------------------------------------------------------------

The optimization will be done in redundant internal coordinates (2022)
Making redundant internal coordinates   ...  (2022 redundants) done
Evaluating the initial hessian          ...  (Almloef) done
Evaluating the coordinates              ...  done
Calculating the B-matrix                .... done
Calculating the G-matrix                .... done
Diagonalizing the G-matrix              .... done
Small eigenvalue found = 4.658e-03
Small eigenvalue found = 6.621e-03
Small eigenvalue found = 8.027e-03
Small eigenvalue found = 1.373e-02
Small eigenvalue found = 2.079e-02
The first mode is                       ....   85
The number of degrees of freedom        ....  105

    -----------------------------------------------------------------
                    Redundant Internal Coordinates


    -----------------------------------------------------------------
         Definition                    Initial Value    Approx d2E/dq
    -----------------------------------------------------------------
      1. B(C   1,C   0)                  1.3913         0.621776   
      2. B(C   2,C   1)                  1.3988         0.604953   
      3. B(C   3,C   2)                  1.4045         0.592382   
      4. B(C   4,C   3)                  1.4059         0.589347   
      5. B(C   5,C   4)                  1.3982         0.606180   
      6. B(C   5,C   0)                  1.3910         0.622496   
      7. B(P   6,C   3)                  1.8204         0.432049   
      8. B(C   7,P   6)                  1.8256         0.423827   
      9. B(C   8,C   7)                  1.4057         0.589849   
     10. B(C   9,C   8)                  1.3975         0.607799   
     11. B(C  10,C   9)                  1.3916         0.621113   
     12. B(C  11,C  10)                  1.3921         0.619941   
     13. B(C  12,C  11)                  1.3984         0.605766   
     14. B(C  12,C   7)                  1.4026         0.596555   
     15. B(C  13,P   6)                  1.8355         0.408742   
     16. B(C  14,C  13)                  1.4105         0.579430   
     17. B(C  15,C  14)                  1.3983         0.606014   
     18. B(C  16,C  15)                  1.3891         0.626878   
     19. B(C  17,C  16)                  1.3924         0.619319   
     20. B(C  18,C  17)                  1.4080         0.584887   
     21. B(C  18,C  13)                  1.4120         0.576244   
     22. B(C  19,C  18)                  1.4834         0.443378   
     23. B(O  20,C  19)                  1.2152         1.063610   
     24. B(O  21,C  19)                  1.3474         0.654384   
     25. B(H  22,C   0)                  1.0867         0.364542   
     26. B(H  23,C   1)                  1.0870         0.364091   
     27. B(H  24,C   2)                  1.0880         0.362816   
     28. B(H  25,C   4)                  1.0890         0.361396   
     29. B(H  26,C   5)                  1.0869         0.364186   
     30. B(H  27,C   8)                  1.0900         0.360122   
     31. B(H  28,C   9)                  1.0868         0.364367   
     32. B(H  29,C  10)                  1.0866         0.364613   
     33. B(H  30,C  11)                  1.0869         0.364269   
     34. B(H  31,C  12)                  1.0869         0.364201   
     35. B(H  32,C  14)                  1.0881         0.362675   
     36. B(H  33,C  15)                  1.0875         0.363470   
     37. B(H  34,C  16)                  1.0870         0.364150   
     38. B(H  35,C  17)                  1.0881         0.362608   
     39. B(H  36,O  21)                  0.9801         0.482989   
     40. A(C   1,C   0,H  22)          120.1662         0.353814   
     41. A(C   5,C   0,H  22)          120.1516         0.353883   
     42. A(C   1,C   0,C   5)          119.6739         0.434604   
     43. A(C   0,C   1,H  23)          120.0272         0.353740   
     44. A(C   0,C   1,C   2)          120.1423         0.432375   
     45. A(C   2,C   1,H  23)          119.8268         0.352101   
     46. A(C   3,C   2,H  24)          120.8413         0.350646   
     47. A(C   1,C   2,C   3)          121.2381         0.428631   
     48. A(C   1,C   2,H  24)          117.9176         0.351892   
     49. A(C   2,C   3,C   4)          117.4860         0.426628   
     50. A(C   2,C   3,P   6)          121.9079         0.430456   
     51. A(C   4,C   3,P   6)          120.4071         0.430059   
     52. A(C   3,C   4,C   5)          121.3281         0.428392   
     53. A(C   3,C   4,H  25)          120.4813         0.350110   
     54. A(C   5,C   4,H  25)          118.1898         0.351779   
     55. A(C   0,C   5,C   4)          120.0517         0.432622   
     56. A(C   4,C   5,H  26)          119.8374         0.352237   
     57. A(C   0,C   5,H  26)          120.1079         0.353825   
     58. A(C   7,P   6,C  13)           99.8526         0.428146   
     59. A(C   3,P   6,C  13)          105.7924         0.429624   
     60. A(C   3,P   6,C   7)          105.9461         0.432429   
     61. A(C   8,C   7,C  12)          117.9539         0.427230   
     62. A(P   6,C   7,C  12)          124.5521         0.429515   
     63. A(P   6,C   7,C   8)          117.4876         0.428645   
     64. A(C   7,C   8,C   9)          121.1091         0.428663   
     65. A(C   9,C   8,H  27)          118.5621         0.351728   
     66. A(C   7,C   8,H  27)          120.3279         0.349952   
     67. A(C  10,C   9,H  28)          120.1810         0.353721   
     68. A(C   8,C   9,H  28)          119.7942         0.352426   
     69. A(C   8,C   9,C  10)          120.0246         0.432657   
     70. A(C   9,C  10,C  11)          119.7568         0.434199   
     71. A(C  11,C  10,H  29)          120.1564         0.353648   
     72. A(C   9,C  10,H  29)          120.0864         0.353761   
     73. A(C  12,C  11,H  30)          119.8496         0.352210   
     74. A(C  10,C  11,H  30)          119.9833         0.353592   
     75. A(C  10,C  11,C  12)          120.1669         0.432249   
     76. A(C   7,C  12,H  31)          120.9232         0.351288   
     77. A(C  11,C  12,H  31)          118.0902         0.352199   
     78. A(C   7,C  12,C  11)          120.9864         0.429275   
     79. A(C  14,C  13,C  18)          117.3158         0.423238   
     80. A(P   6,C  13,C  18)          121.9959         0.424096   
     81. A(P   6,C  13,C  14)          120.6847         0.424514   
     82. A(C  15,C  14,H  32)          117.6765         0.351973   
     83. A(C  13,C  14,H  32)          120.6029         0.349317   
     84. A(C  13,C  14,C  15)          121.7183         0.427070   
     85. A(C  16,C  15,H  33)          120.0817         0.354127   
     86. A(C  14,C  15,H  33)          119.7949         0.352104   
     87. A(C  14,C  15,C  16)          120.1233         0.433147   
     88. A(C  17,C  16,H  34)          120.1844         0.353512   
     89. A(C  15,C  16,H  34)          120.2464         0.354239   
     90. A(C  15,C  16,C  17)          119.5677         0.434843   
     91. A(C  18,C  17,H  35)          120.1905         0.349859   
     92. A(C  16,C  17,H  35)          119.2120         0.353258   
     93. A(C  16,C  17,C  18)          120.5947         0.429458   
     94. A(C  17,C  18,C  19)          116.9218         0.404655   
     95. A(C  13,C  18,C  19)          122.3842         0.403593   
     96. A(C  13,C  18,C  17)          120.6720         0.423948   
     97. A(C  18,C  19,O  21)          110.8708         0.410115   
     98. A(C  18,C  19,O  20)          127.7729         0.447432   
     99. A(O  20,C  19,O  21)          121.3561         0.477224   
    100. A(C  19,O  21,H  36)          103.6526         0.368861   
    101. D(H  23,C   1,C   0,C   5)    178.5609         0.026761   
    102. D(C   2,C   1,C   0,C   5)     -0.7299         0.026761   
    103. D(C   2,C   1,C   0,H  22)   -179.6876         0.026761   
    104. D(H  23,C   1,C   0,H  22)     -0.3968         0.026761   
    105. D(C   3,C   2,C   1,H  23)    179.4487         0.025252   
    106. D(C   3,C   2,C   1,C   0)     -1.2591         0.025252   
    107. D(H  24,C   2,C   1,C   0)    178.1151         0.025252   
    108. D(H  24,C   2,C   1,H  23)     -1.1772         0.025252   
    109. D(P   6,C   3,C   2,H  24)     -1.3341         0.024159   
    110. D(C   4,C   3,C   2,C   1)      3.1309         0.024159   
    111. D(P   6,C   3,C   2,C   1)    178.0219         0.024159   
    112. D(C   4,C   3,C   2,H  24)   -176.2250         0.024159   
    113. D(H  25,C   4,C   3,C   2)    176.5608         0.023900   
    114. D(C   5,C   4,C   3,C   2)     -3.1319         0.023900   
    115. D(C   5,C   4,C   3,P   6)   -178.1033         0.023900   
    116. D(H  25,C   4,C   3,P   6)      1.5894         0.023900   
    117. D(H  26,C   5,C   4,H  25)      0.9204         0.025360   
    118. D(C   0,C   5,C   4,H  25)   -178.4443         0.025360   
    119. D(H  26,C   5,C   0,H  22)      0.3261         0.026827   
    120. D(H  26,C   5,C   0,C   1)   -178.6318         0.026827   
    121. D(C   4,C   5,C   0,H  22)    179.6891         0.026827   
    122. D(H  26,C   5,C   4,C   3)   -179.3800         0.025360   
    123. D(C   4,C   5,C   0,C   1)      0.7312         0.026827   
    124. D(C   0,C   5,C   4,C   3)      1.2553         0.025360   
    125. D(C  13,P   6,C   3,C   4)   -151.6277         0.003825   
    126. D(C  13,P   6,C   3,C   2)     33.6280         0.003825   
    127. D(C   7,P   6,C   3,C   4)    -46.2159         0.003825   
    128. D(C   7,P   6,C   3,C   2)    139.0398         0.003825   
    129. D(C  12,C   7,P   6,C   3)    -28.1373         0.003735   
    130. D(C   8,C   7,P   6,C  13)    -97.5074         0.003735   
    131. D(C   8,C   7,P   6,C   3)    152.8043         0.003735   
    132. D(C  12,C   7,P   6,C  13)     81.5511         0.003735   
    133. D(H  27,C   8,C   7,C  12)   -179.1587         0.023942   
    134. D(H  27,C   8,C   7,P   6)     -0.0366         0.023942   
    135. D(C   9,C   8,C   7,C  12)      0.5082         0.023942   
    136. D(C   9,C   8,C   7,P   6)    179.6303         0.023942   
    137. D(H  28,C   9,C   8,H  27)     -0.2973         0.025503   
    138. D(H  28,C   9,C   8,C   7)   -179.9700         0.025503   
    139. D(C  10,C   9,C   8,H  27)    179.5176         0.025503   
    140. D(C  10,C   9,C   8,C   7)     -0.1550         0.025503   
    141. D(H  29,C  10,C   9,H  28)     -0.1230         0.026701   
    142. D(H  29,C  10,C   9,C   8)   -179.9373         0.026701   
    143. D(C  11,C  10,C   9,H  28)    179.6468         0.026701   
    144. D(C  11,C  10,C   9,C   8)     -0.1675         0.026701   
    145. D(H  30,C  11,C  10,H  29)      0.0388         0.026594   
    146. D(H  30,C  11,C  10,C   9)   -179.7309         0.026594   
    147. D(C  12,C  11,C  10,H  29)    179.8924         0.026594   
    148. D(C  12,C  11,C  10,C   9)      0.1227         0.026594   
    149. D(H  31,C  12,C  11,H  30)      0.2595         0.025323   
    150. D(C   7,C  12,C  11,H  30)   -179.8999         0.025323   
    151. D(C   7,C  12,C  11,C  10)      0.2463         0.025323   
    152. D(H  31,C  12,C   7,C   8)    179.2831         0.024518   
    153. D(H  31,C  12,C   7,P   6)      0.2287         0.024518   
    154. D(H  31,C  12,C  11,C  10)   -179.5943         0.025323   
    155. D(C  11,C  12,C   7,C   8)     -0.5530         0.024518   
    156. D(C  11,C  12,C   7,P   6)   -179.6074         0.024518   
    157. D(C  18,C  13,P   6,C   7)    115.6766         0.003574   
    158. D(C  18,C  13,P   6,C   3)   -134.5133         0.003574   
    159. D(C  14,C  13,P   6,C   7)    -65.0327         0.003574   
    160. D(C  14,C  13,P   6,C   3)     44.7774         0.003574   
    161. D(H  32,C  14,C  13,P   6)      0.9545         0.023064   
    162. D(C  15,C  14,C  13,C  18)      0.8492         0.023064   
    163. D(C  15,C  14,C  13,P   6)   -178.4737         0.023064   
    164. D(H  32,C  14,C  13,C  18)   -179.7225         0.023064   
    165. D(H  33,C  15,C  14,H  32)      0.3825         0.025345   
    166. D(H  33,C  15,C  14,C  13)    179.8268         0.025345   
    167. D(C  16,C  15,C  14,H  32)   -179.5677         0.025345   
    168. D(C  16,C  15,C  14,C  13)     -0.1234         0.025345   
    169. D(H  34,C  16,C  15,H  33)      0.0692         0.027230   
    170. D(H  34,C  16,C  15,C  14)   -179.9807         0.027230   
    171. D(C  17,C  16,C  15,H  33)    179.6244         0.027230   
    172. D(C  17,C  16,C  15,C  14)     -0.4256         0.027230   
    173. D(H  35,C  17,C  16,H  34)      0.3786         0.026537   
    174. D(H  35,C  17,C  16,C  15)   -179.1768         0.026537   
    175. D(C  18,C  17,C  16,H  34)    179.7759         0.026537   
    176. D(C  18,C  17,C  16,C  15)      0.2205         0.026537   
    177. D(C  19,C  18,C  17,H  35)      1.5918         0.023522   
    178. D(C  19,C  18,C  17,C  16)   -177.7997         0.023522   
    179. D(C  13,C  18,C  17,H  35)    179.9281         0.023522   
    180. D(C  13,C  18,C  17,C  16)      0.5366         0.023522   
    181. D(C  19,C  18,C  13,C  14)    177.1969         0.022800   
    182. D(C  19,C  18,C  13,P   6)     -3.4897         0.022800   
    183. D(C  17,C  18,C  13,C  14)     -1.0465         0.022800   
    184. D(C  17,C  18,C  13,P   6)    178.2669         0.022800   
    185. D(O  21,C  19,C  18,C  17)    -47.1485         0.013409   
    186. D(O  21,C  19,C  18,C  13)    134.5460         0.013409   
    187. D(O  20,C  19,C  18,C  17)    132.7279         0.013409   
    188. D(O  20,C  19,C  18,C  13)    -45.5776         0.013409   
    189. D(H  36,O  21,C  19,O  20)      1.5889         0.031683   
    190. D(H  36,O  21,C  19,C  18)   -178.5255         0.031683   
    -----------------------------------------------------------------

Number of atoms                         .... 37
Number of degrees of freedom            .... 190


         *************************************************************
         *                GEOMETRY OPTIMIZATION CYCLE   1            *
         *************************************************************
---------------------------------
CARTESIAN COORDINATES (ANGSTROEM)
---------------------------------
  C     -3.030930   -3.284337   -0.981055
  C     -1.675783   -3.534638   -0.789495
  C     -0.860761   -2.568228   -0.190836
  C     -1.377135   -1.323324    0.204382
  C     -2.756792   -1.110571    0.037536
  C     -3.573966   -2.074717   -0.560551
  P     -0.345560   -0.072851    1.032682
  C     -0.818498    1.531756    0.301556
  C     -0.650901    2.680475    1.094184
  C     -0.981274    3.948121    0.607403
  C     -1.482524    4.089595   -0.683066
  C     -1.649702    2.965072   -1.486501
  C     -1.317880    1.697215   -0.998637
  C      1.335319   -0.259789    0.319382
  C      1.514544   -0.407078   -1.071930
  C      2.782242   -0.582438   -1.635364
  C      3.908261   -0.612937   -0.822508
  C      3.766321   -0.458947    0.554049
  C      2.493196   -0.277678    1.127344
  C      2.440831   -0.071727    2.595413
  O      1.821379    0.776587    3.206409
  O      3.203506   -0.979854    3.235048
  H     -3.665465   -4.036808   -1.441477
  H     -1.250119   -4.487149   -1.094619
  H      0.186837   -2.813950   -0.030197
  H     -3.218237   -0.185001    0.378649
  H     -4.635994   -1.880707   -0.686527
  H     -0.252737    2.598069    2.105489
  H     -0.842590    4.821950    1.238521
  H     -1.738770    5.074866   -1.062935
  H     -2.036774    3.071801   -2.496483
  H     -1.455551    0.843374   -1.656962
  H      0.659512   -0.396557   -1.744749
  H      2.884037   -0.695731   -2.712110
  H      4.894676   -0.748827   -1.258389
  H      4.653498   -0.470264    1.183949
  H      3.073783   -0.764774    4.182392

----------------------------
CARTESIAN COORDINATES (A.U.)
----------------------------
  NO LB      ZA    FRAG     MASS         X           Y           Z
   0 C     6.0000    0    12.011   -5.727628   -6.206497   -1.853925
   1 C     6.0000    0    12.011   -3.166771   -6.679498   -1.491929
   2 C     6.0000    0    12.011   -1.626603   -4.853248   -0.360628
   3 C     6.0000    0    12.011   -2.602408   -2.500720    0.386226
   4 C     6.0000    0    12.011   -5.209582   -2.098675    0.070933
   5 C     6.0000    0    12.011   -6.753817   -3.920647   -1.059288
   6 P    15.0000    0    30.974   -0.653014   -0.137668    1.951486
   7 C     6.0000    0    12.011   -1.546737    2.894599    0.569858
   8 C     6.0000    0    12.011   -1.230025    5.065364    2.067708
   9 C     6.0000    0    12.011   -1.854339    7.460867    1.147825
  10 C     6.0000    0    12.011   -2.801564    7.728215   -1.290808
  11 C     6.0000    0    12.011   -3.117485    5.603174   -2.809080
  12 C     6.0000    0    12.011   -2.490432    3.207272   -1.887150
  13 C     6.0000    0    12.011    2.523387   -0.490930    0.603545
  14 C     6.0000    0    12.011    2.862073   -0.769266   -2.025654
  15 C     6.0000    0    12.011    5.257675   -1.100648   -3.090390
  16 C     6.0000    0    12.011    7.385543   -1.158283   -1.554315
  17 C     6.0000    0    12.011    7.117315   -0.867284    1.047001
  18 C     6.0000    0    12.011    4.711458   -0.524735    2.130371
  19 C     6.0000    0    12.011    4.612502   -0.135544    4.904620
  20 O     8.0000    0    15.999    3.441907    1.467537    6.059235
  21 O     8.0000    0    15.999    6.053749   -1.851656    6.113355
  22 H     1.0000    0     1.008   -6.926725   -7.628462   -2.723997
  23 H     1.0000    0     1.008   -2.362383   -8.479483   -2.068530
  24 H     1.0000    0     1.008    0.353071   -5.317595   -0.057064
  25 H     1.0000    0     1.008   -6.081587   -0.349601    0.715543
  26 H     1.0000    0     1.008   -8.760759   -3.554021   -1.297348
  27 H     1.0000    0     1.008   -0.477604    4.909639    3.978798
  28 H     1.0000    0     1.008   -1.592264    9.112165    2.340466
  29 H     1.0000    0     1.008   -3.285799    9.590107   -2.008656
  30 H     1.0000    0     1.008   -3.848945    5.804863   -4.717669
  31 H     1.0000    0     1.008   -2.750593    1.593746   -3.131204
  32 H     1.0000    0     1.008    1.246297   -0.749384   -3.297098
  33 H     1.0000    0     1.008    5.450040   -1.314741   -5.125145
  34 H     1.0000    0     1.008    9.249597   -1.415078   -2.378011
  35 H     1.0000    0     1.008    8.793837   -0.888670    2.237339
  36 H     1.0000    0     1.008    5.808608   -1.445213    7.903575

--------------------------------
INTERNAL COORDINATES (ANGSTROEM)
--------------------------------
 C      0   0   0     0.000000000000     0.00000000     0.00000000
 C      1   0   0     1.391319235765     0.00000000     0.00000000
 C      2   1   0     1.398785811647   120.14225333     0.00000000
 C      3   2   1     1.404501813675   121.23812313   358.74091815
 C      4   3   2     1.405900019338   117.48599103     3.13092803
 C      1   2   3     1.391004045901   119.67391631   359.27011193
 P      4   3   2     1.820414951145   121.90794274   178.02185040
 C      7   4   3     1.825644873509   105.94608211   139.03975243
 C      8   7   4     1.405668254516   117.48756034   152.80427434
 C      9   8   7     1.397507940015   121.10914242   179.63033584
 C     10   9   8     1.391609390288   120.02455178   359.84500245
 C     11  10   9     1.392123651275   119.75677004   359.83253088
 C     12  11  10     1.398419999367   120.16690864     0.12274476
 C      7   4   3     1.835509988664   105.79235503    33.62798075
 C     14   7   4     1.410519312697   120.68469540    44.77743218
 C     15  14   7     1.398308700238   121.71826009   181.52626711
 C     16  15  14     1.389094616683   120.12331230   359.87663925
 C     17  16  15     1.392396875158   119.56767030   359.57436914
 C     18  17  16     1.407967639192   120.59470700     0.22054690
 C     19  18  17     1.483369305462   116.92184839   182.20032517
 O     20  19  18     1.215184568251   127.77291919   132.72794367
 O     20  19  18     1.347405186638   110.87082446   312.85151837
 H      1   2   3     1.086662638610   120.16620952   180.31237599
 H      2   1   3     1.086999402665   120.02715259   179.29082869
 H      3   2   1     1.087954851641   117.91756225   178.11509418
 H      5   4   3     1.089022218182   120.48134516   176.56079066
 H      6   1   2     1.086928381017   120.10785840   181.36821210
 H      9   8   7     1.089983083702   120.32790068   359.96343768
 H     10   9   8     1.086793588047   119.79420775   180.03004633
 H     11  10   9     1.086610055686   120.08641901   180.06272581
 H     12  11  10     1.086866805524   119.98334636   180.26912298
 H     13  12  11     1.086917459215   118.09018846   180.40569248
 H     15  14   7     1.088060577002   120.60290802     0.95453771
 H     16  15  14     1.087464700296   119.79493884   179.82679386
 H     17  16  15     1.086955790493   120.24637890   180.01925515
 H     18  17  16     1.088110800341   119.21201049   180.82317980
 H     22  20  19     0.980075567222   103.65263205   181.47447682

---------------------------
INTERNAL COORDINATES (A.U.)
---------------------------
 C      0   0   0     0.000000000000     0.00000000     0.00000000
 C      1   0   0     2.629212320453     0.00000000     0.00000000
 C      2   1   0     2.643322104028   120.14225333     0.00000000
 C      3   2   1     2.654123782441   121.23812313   358.74091815
 C      4   3   2     2.656766008223   117.48599103     3.13092803
 C      1   2   3     2.628616697929   119.67391631   359.27011193
 P      4   3   2     3.440085707761   121.90794274   178.02185040
 C      7   4   3     3.449968828729   105.94608211   139.03975243
 C      8   7   4     2.656328036182   117.48756034   152.80427434
 C      9   8   7     2.640907276609   121.10914242   179.63033584
 C     10   9   8     2.629760633037   120.02455178   359.84500245
 C     11  10   9     2.630732445463   119.75677004   359.83253088
 C     12  11  10     2.642630819002   120.16690864     0.12274476
 C      7   4   3     3.468611194652   105.79235503    33.62798075
 C     14   7   4     2.665495207603   120.68469540    44.77743218
 C     15  14   7     2.642420494128   121.71826009   181.52626711
 C     16  15  14     2.625008399635   120.12331230   359.87663925
 C     17  16  15     2.631248763776   119.56767030   359.57436914
 C     18  17  16     2.660673243496   120.59470700     0.22054690
 C     19  18  17     2.803161742788   116.92184839   182.20032517
 O     20  19  18     2.296366036162   127.77291919   132.72794367
 O     20  19  18     2.546226794171   110.87082446   312.85151837
 H      1   2   3     2.053494786936   120.16620952   180.31237599
 H      2   1   3     2.054131178772   120.02715259   179.29082869
 H      3   2   1     2.055936715672   117.91756225   178.11509418
 H      5   4   3     2.057953746119   120.48134516   176.56079066
 H      6   1   2     2.053996967308   120.10785840   181.36821210
 H      9   8   7     2.059769518804   120.32790068   359.96343768
 H     10   9   8     2.053742245511   119.79420775   180.03004633
 H     11  10   9     2.053395419612   120.08641901   180.06272581
 H     12  11  10     2.053880606489   119.98334636   180.26912298
 H     13  12  11     2.053976328094   118.09018846   180.40569248
 H     15  14   7     2.056136507650   120.60290802     0.95453771
 H     16  15  14     2.055010463866   119.79493884   179.82679386
 H     17  16  15     2.054048763711   120.24637890   180.01925515
 H     18  17  16     2.056231416006   119.21201049   180.82317980
 H     22  20  19     1.852074412597   103.65263205   181.47447682

---------------------
BASIS SET INFORMATION
---------------------
There are 4 groups of distinct atoms

 Group   1 Type C   : 7s4p1d contracted to 3s2p1d pattern {511/31/1}
 Group   2 Type P   : 10s7p1d contracted to 4s3p1d pattern {5311/511/1}
 Group   3 Type O   : 7s4p1d contracted to 3s2p1d pattern {511/31/1}
 Group   4 Type H   : 4s1p contracted to 2s1p pattern {31/1}

Atom   0C    basis set group =>   1
Atom   1C    basis set group =>   1
Atom   2C    basis set group =>   1
Atom   3C    basis set group =>   1
Atom   4C    basis set group =>   1
Atom   5C    basis set group =>   1
Atom   6P    basis set group =>   2
Atom   7C    basis set group =>   1
Atom   8C    basis set group =>   1
Atom   9C    basis set group =>   1
Atom  10C    basis set group =>   1
Atom  11C    basis set group =>   1
Atom  12C    basis set group =>   1
Atom  13C    basis set group =>   1
Atom  14C    basis set group =>   1
Atom  15C    basis set group =>   1
Atom  16C    basis set group =>   1
Atom  17C    basis set group =>   1
Atom  18C    basis set group =>   1
Atom  19C    basis set group =>   1
Atom  20O    basis set group =>   3
Atom  21O    basis set group =>   3
Atom  22H    basis set group =>   4
Atom  23H    basis set group =>   4
Atom  24H    basis set group =>   4
Atom  25H    basis set group =>   4
Atom  26H    basis set group =>   4
Atom  27H    basis set group =>   4
Atom  28H    basis set group =>   4
Atom  29H    basis set group =>   4
Atom  30H    basis set group =>   4
Atom  31H    basis set group =>   4
Atom  32H    basis set group =>   4
Atom  33H    basis set group =>   4
Atom  34H    basis set group =>   4
Atom  35H    basis set group =>   4
Atom  36H    basis set group =>   4
---------------------------------
AUXILIARY/J BASIS SET INFORMATION
---------------------------------
There are 4 groups of distinct atoms

 Group   1 Type C   : 12s5p4d2f1g contracted to 6s4p3d1f1g pattern {711111/2111/211/2/1}
 Group   2 Type P   : 14s5p5d2f1g contracted to 8s4p3d1f1g pattern {71111111/2111/311/2/1}
 Group   3 Type O   : 12s5p4d2f1g contracted to 6s4p3d1f1g pattern {711111/2111/211/2/1}
 Group   4 Type H   : 5s2p1d contracted to 3s1p1d pattern {311/2/1}

Atom   0C    basis set group =>   1
Atom   1C    basis set group =>   1
Atom   2C    basis set group =>   1
Atom   3C    basis set group =>   1
Atom   4C    basis set group =>   1
Atom   5C    basis set group =>   1
Atom   6P    basis set group =>   2
Atom   7C    basis set group =>   1
Atom   8C    basis set group =>   1
Atom   9C    basis set group =>   1
Atom  10C    basis set group =>   1
Atom  11C    basis set group =>   1
Atom  12C    basis set group =>   1
Atom  13C    basis set group =>   1
Atom  14C    basis set group =>   1
Atom  15C    basis set group =>   1
Atom  16C    basis set group =>   1
Atom  17C    basis set group =>   1
Atom  18C    basis set group =>   1
Atom  19C    basis set group =>   1
Atom  20O    basis set group =>   3
Atom  21O    basis set group =>   3
Atom  22H    basis set group =>   4
Atom  23H    basis set group =>   4
Atom  24H    basis set group =>   4
Atom  25H    basis set group =>   4
Atom  26H    basis set group =>   4
Atom  27H    basis set group =>   4
Atom  28H    basis set group =>   4
Atom  29H    basis set group =>   4
Atom  30H    basis set group =>   4
Atom  31H    basis set group =>   4
Atom  32H    basis set group =>   4
Atom  33H    basis set group =>   4
Atom  34H    basis set group =>   4
Atom  35H    basis set group =>   4
Atom  36H    basis set group =>   4


           ************************************************************
           *        Program running with 6 parallel MPI-processes     *
           *              working on a common directory               *
           ************************************************************
------------------------------------------------------------------------------
                             ORCA STARTUP CALCULATIONS
                           -- RI-GTO INTEGRALS CHOSEN --
------------------------------------------------------------------------------
------------------------------------------------------------------------------
                   ___                                                        
                  /   \      - P O W E R E D   B Y -                         
                 /     \                                                     
                 |  |  |   _    _      __       _____    __    __             
                 |  |  |  | |  | |    /  \     |  _  \  |  |  /  |          
                  \  \/   | |  | |   /    \    | | | |  |  | /  /          
                 / \  \   | |__| |  /  /\  \   | |_| |  |  |/  /          
                |  |  |   |  __  | /  /__\  \  |    /   |      \           
                |  |  |   | |  | | |   __   |  |    \   |  |\   \          
                \     /   | |  | | |  |  |  |  | |\  \  |  | \   \       
                 \___/    |_|  |_| |__|  |__|  |_| \__\ |__|  \__/        
                                                                              
                      - O R C A' S   B I G   F R I E N D -                    
                                      &                                       
                       - I N T E G R A L  F E E D E R -                       
                                                                              
 v1 FN, 2020, v2 2021, v3 2022-2024                                           
------------------------------------------------------------------------------


----------------------
SHARK INTEGRAL PACKAGE
----------------------

Number of atoms                             ...     37
Number of basis functions                   ...    387
Number of shells                            ...    179
Maximum angular momentum                    ...      2
Integral batch strategy                     ... SHARK/LIBINT Hybrid
RI-J (if used) integral strategy            ... SPLIT-RIJ (Revised 2003 algorithm where possible)
Printlevel                                  ...      1
Contraction scheme used                     ... SEGMENTED contraction
Prescreening option                         ... SCHWARTZ
   Thresh                                   ... 2.500e-11
   Tcut                                     ... 2.500e-12
   Tpresel                                  ... 2.500e-12 
Coulomb Range Separation                    ... NOT USED
Exchange Range Separation                   ... NOT USED
Multipole approximations                    ... NOT USED
Finite Nucleus Model                        ... NOT USED
CABS basis                                  ... NOT available
Auxiliary Coulomb fitting basis             ... AVAILABLE
   # of basis functions in Aux-J            ...   1245
   # of shells in Aux-J                     ...    407
   Maximum angular momentum in Aux-J        ...      4
Auxiliary J/K fitting basis                 ... NOT available
Auxiliary Correlation fitting basis         ... NOT available
Auxiliary 'external' fitting basis          ... NOT available

Checking pre-screening integrals            ... done (  0.0 sec) Dimension = 179
Check shell pair data                       ... done (  0.0 sec)
Shell pair information
Shell pair cut-off parameter TPreSel        ...   2.5e-12
Total number of shell pairs                 ...     16110
Shell pairs after pre-screening             ...     12181
Total number of primitive shell pairs       ...     60026
Primitive shell pairs kept                  ...     28751
          la=0 lb=0:   3660 shell pairs
          la=1 lb=0:   4522 shell pairs
          la=1 lb=1:   1445 shell pairs
          la=2 lb=0:   1498 shell pairs
          la=2 lb=1:    909 shell pairs
          la=2 lb=2:    147 shell pairs

Calculating one electron integrals          ... done (  0.0 sec)
Calculating RI/J V-Matrix + Cholesky decomp.... done (  0.1 sec)
Calculating Nuclear repulsion               ... done (  0.0 sec) ENN=   1809.746964265965 Eh

Diagonalization of the overlap matrix:
Smallest eigenvalue                        ... 2.642e-04
Time for diagonalization                   ...    0.020 sec
Threshold for overlap eigenvalues          ... 1.000e-07
Number of eigenvalues below threshold      ... 0
Time for construction of square roots      ...    0.012 sec
Total time needed                          ...    0.034 sec

-------------------
DFT GRID GENERATION
-------------------

General Integration Accuracy     IntAcc      ... 4.388
Radial Grid Type                 RadialGrid  ... OptM3 with GC (2021)
Angular Grid (max. ang.)         AngularGrid ... 4 (Lebedev-302)
Angular grid pruning method      GridPruning ... 4 (adaptive)
Weight generation scheme         WeightScheme... mBecke (2022)
Basis function cutoff            BFCut       ... 1.0000e-11
Integration weight cutoff        WCut        ... 1.0000e-14
Partially contracted basis set               ... off
Rotationally invariant grid construction     ... off
Angular grids for H and He will be reduced by one unit

Total number of grid points                  ...   180516
Total number of batches                      ...     2837
Average number of points per batch           ...       63
Average number of grid points per atom       ...     4879
Initializing property integral containers    ... done (  0.0 sec)

SHARK setup successfully completed in   1.5 seconds

Maximum memory used throughout the entire STARTUP-calculation: 49.3 MB


           ************************************************************
           *        Program running with 6 parallel MPI-processes     *
           *              working on a common directory               *
           ************************************************************
-------------------------------------------------------------------------------
                                 ORCA GUESS
                   Start orbitals & Density for SCF / CASSCF
-------------------------------------------------------------------------------

------------
SCF SETTINGS
------------
Hamiltonian:
 Density Functional     Method          .... DFT(GTOs)
 Exchange Functional    Exchange        .... B88
   X-Alpha parameter    XAlpha          ....  0.666667
   Becke's b parameter  XBeta           ....  0.004200
 Correlation Functional Correlation     .... P86
 LDA part of GGA corr.  LDAOpt          .... PW91-LDA
 Gradients option       PostSCFGGA      .... off
   NL short-range parameter             ....  4.400000
 RI-approximation to the Coulomb term is turned on
   Number of AuxJ basis functions       .... 1245


General Settings:
 Integral files         IntName         .... data/geom_opt_P_BP86/87021/87021
 Hartree-Fock type      HFTyp           .... RHF
 Total Charge           Charge          ....    0
 Multiplicity           Mult            ....    1
 Number of Electrons    NEL             ....  160
 Basis Dimension        Dim             ....  387
 Nuclear Repulsion      ENuc            ....   1809.7469642660 Eh

Convergence Acceleration:
 AO-DIIS                CNVDIIS         .... on
   Start iteration      DIISMaxIt       ....    12
   Startup error        DIISStart       ....  0.200000
   # of expansion vecs  DIISMaxEq       ....     5
   Bias factor          DIISBfac        ....   1.050
   Max. coefficient     DIISMaxC        ....  10.000
 MO-DIIS                CNVKDIIS        .... off
 Trust-Rad. Augm. Hess. CNVTRAH         .... auto
   Auto Start mean grad. ratio tolernc. ....  1.125000
   Auto Start start iteration           ....    50
   Auto Start num. interpolation iter.  ....    10
   Max. Number of Micro iterations      ....    24
   Max. Number of Macro iterations      .... Maxiter - #DIIS iter
   Number of Davidson start vectors     ....     2
   Converg. threshold    (grad. norm)   ....   1.000e-05
   Grad. Scal. Fac. for Micro threshold ....   0.100
   Minimum threshold for Micro iter.    ....   1.000e-02
   NR start threshold (gradient norm)   ....   1.000e-04
   Initial trust radius                 ....   0.400
   Minimum AH scaling param. (alpha)    ....   1.000
   Maximum AH scaling param. (alpha)    .... 1000.000
   Quad. conv. algorithm                .... NR
   White noise on init. David. guess    .... on
   Maximum white noise                  ....   0.010
   Pseudo random numbers                .... off
   Inactive MOs                         .... canonical
   Orbital update algorithm             .... Taylor
   Preconditioner                       .... Diag
   Full preconditioner red. dimension   ....   250
 SOSCF                  CNVSOSCF        .... on
   Start iteration      SOSCFMaxIt      ....   150
   Startup grad/error   SOSCFStart      ....  0.003300
   Hessian update       SOSCFHessUp     .... L-BFGS
 Level Shifting         CNVShift        .... on
   Level shift para.    LevelShift      ....    0.2500
   Turn off err/grad.   ShiftErr        ....    0.0010
 Zerner damping         CNVZerner       .... off
 Static damping         CNVDamp         .... on
   Fraction old density DampFac         ....    0.7000
   Max. Damping (<1)    DampMax         ....    0.9800
   Min. Damping (>=0)   DampMin         ....    0.0000
   Turn off err/grad.   DampErr         ....    0.1000

SCF Procedure:
 Maximum # iterations   MaxIter         ....   125
 SCF integral mode      SCFMode         .... Direct
   Integral package                     .... SHARK and LIBINT hybrid scheme
 Reset frequency        DirectResetFreq ....    20
 Integral Threshold     Thresh          ....  2.500e-11 Eh
 Primitive CutOff       TCut            ....  2.500e-12 Eh

Convergence Tolerance:
 Convergence Check Mode ConvCheckMode   .... Total+1el-Energy
 Convergence forced     ConvForced      .... 0
 Energy Change          TolE            ....  1.000e-08 Eh
 1-El. energy change                    ....  1.000e-05 Eh
 Orbital Gradient       TolG            ....  1.000e-05
 Orbital Rotation angle TolX            ....  1.000e-05
 DIIS Error             TolErr          ....  5.000e-07

------------------------------
INITIAL GUESS: MODEL POTENTIAL
------------------------------
Loading Hartree-Fock densities                     ... done
Calculating cut-offs                               ... done
Initializing the effective Hamiltonian             ... done
Setting up the integral package (SHARK)            ... done
Starting the Coulomb interaction                   ... done (   0.1 sec)
Making the grid                                    ... done (   0.3 sec)
Mapping shells                                     ... done
Starting the XC term evaluation                    ... done (   0.2 sec)
  promolecular density results
     # of electrons  =    159.993692730
     EX              =   -141.162385059
     EC              =     -5.945811955
     EX+EC           =   -147.108197014
Transforming the Hamiltonian                       ... done (   0.0 sec)
Diagonalizing the Hamiltonian                      ... done (   0.0 sec)
Back transforming the eigenvectors                 ... done (   0.0 sec)
Now organizing SCF variables                       ... done
                      ------------------
                      INITIAL GUESS DONE (   0.7 sec)
                      ------------------
             **** ENERGY FILE WAS UPDATED (data/geom_opt_P_BP86/87021/87021.en.tmp) ****
Finished Guess after   0.8 sec
Maximum memory used throughout the entire GUESS-calculation: 28.3 MB


           ************************************************************
           *        Program running with 6 parallel MPI-processes     *
           *              working on a common directory               *
           ************************************************************

-------------------------------------------------------------------------------------------
                                      ORCA LEAN-SCF
                              memory conserving SCF solver
-------------------------------------------------------------------------------------------

----------------------------------------D-I-I-S--------------------------------------------
Iteration    Energy (Eh)           Delta-E    RMSDP     MaxDP     DIISErr   Damp  Time(sec)
-------------------------------------------------------------------------------------------
               ***  Starting incremental Fock matrix formation  ***
    1    -1223.7471646983017308     0.00e+00  2.27e-03  9.38e-02  2.38e-01  0.700   1.1
    2    -1223.9511757690679588    -2.04e-01  1.46e-03  4.48e-02  8.49e-02  0.700   1.0
                               ***Turning on AO-DIIS***
    3    -1224.0191617978007343    -6.80e-02  6.34e-04  2.99e-02  2.88e-02  0.700   1.0
    4    -1224.0625989532704807    -4.34e-02  1.17e-03  6.83e-02  1.06e-02  0.000   1.1
    5    -1224.1603918236255595    -9.78e-02  2.79e-04  1.78e-02  6.48e-03  0.000   1.0
    6    -1224.1612370955881488    -8.45e-04  9.86e-05  4.04e-03  5.24e-03  0.000   1.0
                              *** Initializing SOSCF ***
---------------------------------------S-O-S-C-F--------------------------------------
Iteration    Energy (Eh)           Delta-E    RMSDP     MaxDP     MaxGrad    Time(sec)
--------------------------------------------------------------------------------------
    7    -1224.1613426725580211    -1.06e-04  3.57e-05  1.56e-03  1.50e-03     1.0
               *** Restarting incremental Fock matrix formation ***
    8    -1224.1613497893972635    -7.12e-06  3.18e-05  1.69e-03  1.26e-04     1.0
    9    -1224.1613481006443180     1.69e-06  1.41e-05  5.23e-04  2.44e-04     0.9
   10    -1224.1613512121416534    -3.11e-06  9.93e-06  5.30e-04  8.30e-05     0.9
   11    -1224.1613504890988224     7.23e-07  6.06e-06  3.42e-04  2.02e-04     0.8
   12    -1224.1613514012897213    -9.12e-07  3.86e-06  2.45e-04  2.43e-05     0.9
   13    -1224.1613513107231483     9.06e-08  2.39e-06  1.24e-04  3.89e-05     0.9
   14    -1224.1613514277059949    -1.17e-07  1.33e-06  8.50e-05  9.14e-06     0.8
   15    -1224.1613514166929235     1.10e-08  8.54e-07  5.42e-05  1.87e-05     0.8
   16    -1224.1613514281011703    -1.14e-08  3.64e-07  1.36e-05  2.19e-06     0.9
                  *** Gradient check signals convergence ***

               *****************************************************
               *                     SUCCESS                       *
               *           SCF CONVERGED AFTER  16 CYCLES          *
               *****************************************************

             **** ENERGY FILE WAS UPDATED (data/geom_opt_P_BP86/87021/87021.en.tmp) ****

----------------
TOTAL SCF ENERGY
----------------

Total Energy       :      -1224.16135142810117 Eh          -33311.12388 eV

Components:
Nuclear Repulsion  :       1809.74696426596483 Eh           49245.71850 eV
Electronic Energy  :      -3033.90831569406600 Eh          -82556.84238 eV
One Electron Energy:      -5266.65466988382650 Eh         -143312.95946 eV
Two Electron Energy:       2232.74635418976050 Eh           60756.11708 eV

Virial components:
Potential Energy   :      -2437.84201782444870 Eh          -66337.05382 eV
Kinetic Energy     :       1213.68066639634753 Eh           33025.92994 eV
Virial Ratio       :          2.00863545520822

DFT components:
N(Alpha)           :       80.000068011404 electrons
N(Beta)            :       80.000068011404 electrons
N(Total)           :      160.000136022807 electrons
E(X)               :     -143.069809800183 Eh       
E(C)               :       -5.956021481084 Eh       
E(XC)              :     -149.025831281267 Eh       

---------------
SCF CONVERGENCE
---------------

  Last Energy change         ...    1.1408e-08  Tolerance :   1.0000e-08
  Last MAX-Density change    ...    1.3569e-05  Tolerance :   1.0000e-07
  Last RMS-Density change    ...    3.6431e-07  Tolerance :   5.0000e-09
  Last DIIS Error            ...    1.4962e-03  Tolerance :   5.0000e-07
  Last Orbital Gradient      ...    2.1898e-06  Tolerance :   1.0000e-05
  Last Orbital Rotation      ...    1.0413e-05  Tolerance :   1.0000e-05


----------------
ORBITAL ENERGIES
----------------

  NO   OCC          E(Eh)            E(eV) 
   0   2.0000     -76.341995     -2077.3713 
   1   2.0000     -18.827936      -512.3342 
   2   2.0000     -18.770306      -510.7660 
   3   2.0000     -10.037093      -273.1232 
   4   2.0000      -9.942303      -270.5438 
   5   2.0000      -9.938853      -270.4500 
   6   2.0000      -9.933200      -270.2961 
   7   2.0000      -9.931328      -270.2452 
   8   2.0000      -9.930454      -270.2214 
   9   2.0000      -9.930014      -270.2094 
  10   2.0000      -9.924315      -270.0543 
  11   2.0000      -9.923303      -270.0268 
  12   2.0000      -9.919364      -269.9196 
  13   2.0000      -9.917935      -269.8807 
  14   2.0000      -9.917592      -269.8714 
  15   2.0000      -9.917405      -269.8663 
  16   2.0000      -9.917141      -269.8591 
  17   2.0000      -9.916237      -269.8345 
  18   2.0000      -9.916209      -269.8338 
  19   2.0000      -9.916126      -269.8315 
  20   2.0000      -9.915670      -269.8191 
  21   2.0000      -9.913565      -269.7618 
  22   2.0000      -6.311386      -171.7415 
  23   2.0000      -4.532835      -123.3447 
  24   2.0000      -4.532638      -123.3393 
  25   2.0000      -4.528971      -123.2396 
  26   2.0000      -1.013163       -27.5696 
  27   2.0000      -0.917688       -24.9716 
  28   2.0000      -0.792964       -21.5776 
  29   2.0000      -0.777416       -21.1546 
  30   2.0000      -0.772731       -21.0271 
  31   2.0000      -0.707021       -19.2390 
  32   2.0000      -0.701154       -19.0794 
  33   2.0000      -0.678059       -18.4509 
  34   2.0000      -0.671140       -18.2626 
  35   2.0000      -0.670441       -18.2436 
  36   2.0000      -0.667804       -18.1719 
  37   2.0000      -0.608514       -16.5585 
  38   2.0000      -0.585232       -15.9250 
  39   2.0000      -0.557578       -15.1725 
  40   2.0000      -0.545058       -14.8318 
  41   2.0000      -0.542661       -14.7666 
  42   2.0000      -0.535777       -14.5792 
  43   2.0000      -0.529841       -14.4177 
  44   2.0000      -0.505346       -13.7512 
  45   2.0000      -0.479805       -13.0562 
  46   2.0000      -0.467611       -12.7243 
  47   2.0000      -0.451426       -12.2839 
  48   2.0000      -0.434805       -11.8316 
  49   2.0000      -0.428892       -11.6707 
  50   2.0000      -0.422812       -11.5053 
  51   2.0000      -0.409350       -11.1390 
  52   2.0000      -0.407903       -11.0996 
  53   2.0000      -0.401687       -10.9305 
  54   2.0000      -0.399221       -10.8633 
  55   2.0000      -0.396981       -10.8024 
  56   2.0000      -0.388354       -10.5676 
  57   2.0000      -0.375778       -10.2254 
  58   2.0000      -0.375121       -10.2076 
  59   2.0000      -0.373799       -10.1716 
  60   2.0000      -0.364446        -9.9171 
  61   2.0000      -0.356487        -9.7005 
  62   2.0000      -0.344885        -9.3848 
  63   2.0000      -0.336356        -9.1527 
  64   2.0000      -0.332264        -9.0414 
  65   2.0000      -0.329280        -8.9602 
  66   2.0000      -0.325031        -8.8445 
  67   2.0000      -0.305783        -8.3208 
  68   2.0000      -0.303820        -8.2674 
  69   2.0000      -0.297304        -8.0900 
  70   2.0000      -0.290862        -7.9147 
  71   2.0000      -0.281657        -7.6643 
  72   2.0000      -0.254770        -6.9326 
  73   2.0000      -0.250223        -6.8089 
  74   2.0000      -0.249076        -6.7777 
  75   2.0000      -0.234815        -6.3896 
  76   2.0000      -0.231939        -6.3114 
  77   2.0000      -0.230681        -6.2771 
  78   2.0000      -0.227137        -6.1807 
  79   2.0000      -0.181084        -4.9276 
  80   0.0000      -0.080644        -2.1944 
  81   0.0000      -0.067129        -1.8267 
  82   0.0000      -0.051129        -1.3913 
  83   0.0000      -0.045538        -1.2392 
  84   0.0000      -0.044518        -1.2114 
  85   0.0000      -0.035018        -0.9529 
  86   0.0000      -0.010311        -0.2806 
  87   0.0000       0.030132         0.8199 
  88   0.0000       0.036673         0.9979 
  89   0.0000       0.040296         1.0965 
  90   0.0000       0.044557         1.2125 
*Only the first 10 virtual orbitals were printed.

                    ********************************
                    * MULLIKEN POPULATION ANALYSIS *
                    ********************************

-----------------------
MULLIKEN ATOMIC CHARGES
-----------------------
   0 C :    0.003856
   1 C :    0.009436
   2 C :   -0.014690
   3 C :   -0.097923
   4 C :   -0.016991
   5 C :    0.008061
   6 P :    0.303559
   7 C :   -0.117728
   8 C :    0.016156
   9 C :    0.009649
  10 C :    0.011315
  11 C :    0.013640
  12 C :   -0.012044
  13 C :   -0.099674
  14 C :    0.002315
  15 C :    0.028286
  16 C :    0.009516
  17 C :    0.014371
  18 C :    0.002147
  19 C :    0.081136
  20 O :   -0.176585
  21 O :   -0.144858
  22 H :   -0.006968
  23 H :   -0.006616
  24 H :   -0.002052
  25 H :   -0.000305
  26 H :   -0.005010
  27 H :    0.011423
  28 H :   -0.002410
  29 H :   -0.004330
  30 H :   -0.007995
  31 H :    0.006013
  32 H :    0.000879
  33 H :    0.000163
  34 H :    0.002989
  35 H :    0.001902
  36 H :    0.179366
Sum of atomic charges:   -0.0000000

--------------------------------
MULLIKEN REDUCED ORBITAL CHARGES
--------------------------------
  0 C s       :     3.166923  s :     3.166923
      pz      :     0.966686  p :     2.796119
      px      :     0.922921
      py      :     0.906512
      dz2     :     0.002730  d :     0.033102
      dxz     :     0.005949
      dyz     :     0.004501
      dx2y2   :     0.009011
      dxy     :     0.010911

  1 C s       :     3.167294  s :     3.167294
      pz      :     0.973077  p :     2.790165
      px      :     0.944802
      py      :     0.872286
      dz2     :     0.003509  d :     0.033104
      dxz     :     0.006590
      dyz     :     0.003358
      dx2y2   :     0.009664
      dxy     :     0.009983

  2 C s       :     3.224602  s :     3.224602
      pz      :     0.973515  p :     2.757590
      px      :     0.845977
      py      :     0.938099
      dz2     :     0.003969  d :     0.032497
      dxz     :     0.003335
      dyz     :     0.005833
      dx2y2   :     0.010588
      dxy     :     0.008771

  3 C s       :     3.047374  s :     3.047374
      pz      :     0.987849  p :     3.015719
      px      :     1.017495
      py      :     1.010375
      dz2     :     0.003992  d :     0.034830
      dxz     :     0.006231
      dyz     :     0.005275
      dx2y2   :     0.008979
      dxy     :     0.010353

  4 C s       :     3.226285  s :     3.226285
      pz      :     0.960861  p :     2.758250
      px      :     0.930525
      py      :     0.866864
      dz2     :     0.003404  d :     0.032456
      dxz     :     0.006297
      dyz     :     0.003369
      dx2y2   :     0.009344
      dxy     :     0.010041

  5 C s       :     3.168216  s :     3.168216
      pz      :     0.981943  p :     2.790586
      px      :     0.843146
      py      :     0.965497
      dz2     :     0.004237  d :     0.033137
      dxz     :     0.003497
      dyz     :     0.005974
      dx2y2   :     0.010799
      dxy     :     0.008630

  6 P s       :     5.664858  s :     5.664858
      pz      :     3.340632  p :     8.857583
      px      :     2.756397
      py      :     2.760554
      dz2     :     0.015638  d :     0.174000
      dxz     :     0.032693
      dyz     :     0.036511
      dx2y2   :     0.043696
      dxy     :     0.045461

  7 C s       :     3.060878  s :     3.060878
      pz      :     1.008429  p :     3.021753
      px      :     1.019616
      py      :     0.993707
      dz2     :     0.009047  d :     0.035098
      dxz     :     0.005361
      dyz     :     0.011301
      dx2y2   :     0.004953
      dxy     :     0.004435

  8 C s       :     3.228654  s :     3.228654
      pz      :     0.873735  p :     2.722798
      px      :     0.939310
      py      :     0.909754
      dz2     :     0.007507  d :     0.032392
      dxz     :     0.003212
      dyz     :     0.009227
      dx2y2   :     0.005949
      dxy     :     0.006497

  9 C s       :     3.170334  s :     3.170334
      pz      :     0.921395  p :     2.787230
      px      :     0.980832
      py      :     0.885003
      dz2     :     0.007500  d :     0.032787
      dxz     :     0.004574
      dyz     :     0.011286
      dx2y2   :     0.005008
      dxy     :     0.004419

 10 C s       :     3.167580  s :     3.167580
      pz      :     0.951551  p :     2.787922
      px      :     0.971062
      py      :     0.865309
      dz2     :     0.008759  d :     0.033184
      dxz     :     0.005327
      dyz     :     0.010190
      dx2y2   :     0.004765
      dxy     :     0.004143

 11 C s       :     3.168487  s :     3.168487
      pz      :     0.850638  p :     2.785022
      px      :     0.970994
      py      :     0.963389
      dz2     :     0.007907  d :     0.032852
      dxz     :     0.003254
      dyz     :     0.009208
      dx2y2   :     0.005968
      dxy     :     0.006515

 12 C s       :     3.222494  s :     3.222494
      pz      :     0.933079  p :     2.756711
      px      :     0.972002
      py      :     0.851630
      dz2     :     0.007369  d :     0.032839
      dxz     :     0.004523
      dyz     :     0.011516
      dx2y2   :     0.004871
      dxy     :     0.004559

 13 C s       :     3.076555  s :     3.076555
      pz      :     0.988852  p :     2.988813
      px      :     1.002489
      py      :     0.997473
      dz2     :     0.009012  d :     0.034305
      dxz     :     0.011765
      dyz     :     0.005397
      dx2y2   :     0.004333
      dxy     :     0.003798

 14 C s       :     3.232372  s :     3.232372
      pz      :     0.928636  p :     2.732804
      px      :     0.849283
      py      :     0.954885
      dz2     :     0.007892  d :     0.032508
      dxz     :     0.012469
      dyz     :     0.004499
      dx2y2   :     0.004014
      dxy     :     0.003634

 15 C s       :     3.167629  s :     3.167629
      pz      :     0.831716  p :     2.771057
      px      :     0.968243
      py      :     0.971098
      dz2     :     0.009420  d :     0.033028
      dxz     :     0.009811
      dyz     :     0.002413
      dx2y2   :     0.005389
      dxy     :     0.005995

 16 C s       :     3.172915  s :     3.172915
      pz      :     0.946439  p :     2.784420
      px      :     0.867116
      py      :     0.970865
      dz2     :     0.009188  d :     0.033150
      dxz     :     0.011265
      dyz     :     0.005463
      dx2y2   :     0.004122
      dxy     :     0.003112

 17 C s       :     3.229157  s :     3.229157
      pz      :     0.879617  p :     2.724219
      px      :     0.877680
      py      :     0.966922
      dz2     :     0.007972  d :     0.032253
      dxz     :     0.011753
      dyz     :     0.004931
      dx2y2   :     0.004078
      dxy     :     0.003518

 18 C s       :     3.085636  s :     3.085636
      pz      :     0.940234  p :     2.875230
      px      :     0.945680
      py      :     0.989316
      dz2     :     0.011249  d :     0.036987
      dxz     :     0.009884
      dyz     :     0.003716
      dx2y2   :     0.005475
      dxy     :     0.006663

 19 C s       :     3.070428  s :     3.070428
      pz      :     1.009347  p :     2.719551
      px      :     0.855291
      py      :     0.854913
      dz2     :     0.029773  d :     0.128886
      dxz     :     0.020136
      dyz     :     0.030406
      dx2y2   :     0.025955
      dxy     :     0.022616

 20 O s       :     3.741813  s :     3.741813
      pz      :     1.616368  p :     4.417262
      px      :     1.403299
      py      :     1.397595
      dz2     :     0.002330  d :     0.017510
      dxz     :     0.002851
      dyz     :     0.004040
      dx2y2   :     0.004249
      dxy     :     0.004040

 21 O s       :     3.692109  s :     3.692109
      pz      :     1.218970  p :     4.439064
      px      :     1.632201
      py      :     1.587893
      dz2     :     0.003318  d :     0.013686
      dxz     :     0.001603
      dyz     :     0.002713
      dx2y2   :     0.002749
      dxy     :     0.003302

 22 H s       :     0.984542  s :     0.984542
      pz      :     0.006634  p :     0.022426
      px      :     0.007128
      py      :     0.008663

 23 H s       :     0.984237  s :     0.984237
      pz      :     0.005582  p :     0.022380
      px      :     0.005290
      py      :     0.011507

 24 H s       :     0.979210  s :     0.979210
      pz      :     0.005088  p :     0.022842
      px      :     0.013321
      py      :     0.004432

 25 H s       :     0.977651  s :     0.977651
      pz      :     0.005767  p :     0.022654
      px      :     0.005413
      py      :     0.011474

 26 H s       :     0.982626  s :     0.982626
      pz      :     0.004932  p :     0.022384
      px      :     0.013203
      py      :     0.004248

 27 H s       :     0.965877  s :     0.965877
      pz      :     0.012782  p :     0.022699
      px      :     0.006151
      py      :     0.003766

 28 H s       :     0.980040  s :     0.980040
      pz      :     0.007244  p :     0.022370
      px      :     0.005009
      py      :     0.010117

 29 H s       :     0.981982  s :     0.981982
      pz      :     0.005090  p :     0.022349
      px      :     0.005380
      py      :     0.011879

 30 H s       :     0.985596  s :     0.985596
      pz      :     0.012410  p :     0.022399
      px      :     0.006154
      py      :     0.003835

 31 H s       :     0.971174  s :     0.971174
      pz      :     0.007267  p :     0.022813
      px      :     0.005191
      py      :     0.010355

 32 H s       :     0.976432  s :     0.976432
      pz      :     0.007317  p :     0.022689
      px      :     0.010448
      py      :     0.004925

 33 H s       :     0.977507  s :     0.977507
      pz      :     0.013568  p :     0.022330
      px      :     0.003782
      py      :     0.004980

 34 H s       :     0.974666  s :     0.974666
      pz      :     0.005305  p :     0.022345
      px      :     0.012010
      py      :     0.005030

 35 H s       :     0.975501  s :     0.975501
      pz      :     0.007458  p :     0.022597
      px      :     0.010234
      py      :     0.004905

 36 H s       :     0.755418  s :     0.755418
      pz      :     0.034609  p :     0.065216
      px      :     0.015320
      py      :     0.015288



                     *******************************
                     * LOEWDIN POPULATION ANALYSIS *
                     *******************************

----------------------
LOEWDIN ATOMIC CHARGES
----------------------
   0 C :   -0.035040
   1 C :   -0.028546
   2 C :   -0.039104
   3 C :   -0.180576
   4 C :   -0.034898
   5 C :   -0.028296
   6 P :    0.520428
   7 C :   -0.172992
   8 C :   -0.020213
   9 C :   -0.027901
  10 C :   -0.024601
  11 C :   -0.030139
  12 C :   -0.030996
  13 C :   -0.150209
  14 C :   -0.013911
  15 C :   -0.019018
  16 C :   -0.019538
  17 C :   -0.006784
  18 C :   -0.062002
  19 C :    0.048787
  20 O :   -0.155556
  21 O :   -0.017522
  22 H :    0.028656
  23 H :    0.030056
  24 H :    0.027702
  25 H :    0.029511
  26 H :    0.030766
  27 H :    0.034136
  28 H :    0.031570
  29 H :    0.029705
  30 H :    0.029687
  31 H :    0.026837
  32 H :    0.031620
  33 H :    0.033433
  34 H :    0.034136
  35 H :    0.035299
  36 H :    0.095512

-------------------------------
LOEWDIN REDUCED ORBITAL CHARGES
-------------------------------
  0 C s       :     2.861875  s :     2.861875
      pz      :     0.986953  p :     3.083286
      px      :     1.056056
      py      :     1.040278
      dz2     :     0.006603  d :     0.089878
      dxz     :     0.014293
      dyz     :     0.011050
      dx2y2   :     0.026838
      dxy     :     0.031095

  1 C s       :     2.863556  s :     2.863556
      pz      :     0.985589  p :     3.075442
      px      :     1.060812
      py      :     1.029041
      dz2     :     0.008247  d :     0.089548
      dxz     :     0.016233
      dyz     :     0.008343
      dx2y2   :     0.028072
      dxy     :     0.028652

  2 C s       :     2.865936  s :     2.865936
      pz      :     0.992290  p :     3.084208
      px      :     1.041149
      py      :     1.050769
      dz2     :     0.008933  d :     0.088960
      dxz     :     0.008186
      dyz     :     0.015407
      dx2y2   :     0.030464
      dxy     :     0.025970

  3 C s       :     2.914937  s :     2.914937
      pz      :     1.007104  p :     3.174847
      px      :     1.086935
      py      :     1.080808
      dz2     :     0.008909  d :     0.090792
      dxz     :     0.014398
      dyz     :     0.012576
      dx2y2   :     0.026687
      dxy     :     0.028221

  4 C s       :     2.866260  s :     2.866260
      pz      :     0.990709  p :     3.079972
      px      :     1.053810
      py      :     1.035452
      dz2     :     0.007850  d :     0.088666
      dxz     :     0.015806
      dyz     :     0.008332
      dx2y2   :     0.027744
      dxy     :     0.028935

  5 C s       :     2.863337  s :     2.863337
      pz      :     0.988132  p :     3.075335
      px      :     1.036183
      py      :     1.051019
      dz2     :     0.009709  d :     0.089624
      dxz     :     0.008600
      dyz     :     0.015525
      dx2y2   :     0.030057
      dxy     :     0.025732

  6 P s       :     5.239223  s :     5.239223
      pz      :     3.401746  p :     8.999214
      px      :     2.795383
      py      :     2.802085
      dz2     :     0.021780  d :     0.241135
      dxz     :     0.044299
      dyz     :     0.049344
      dx2y2   :     0.062237
      dxy     :     0.063476

  7 C s       :     2.913241  s :     2.913241
      pz      :     1.083994  p :     3.168128
      px      :     1.009751
      py      :     1.074383
      dz2     :     0.024610  d :     0.091623
      dxz     :     0.013186
      dyz     :     0.032115
      dx2y2   :     0.012290
      dxy     :     0.009422

  8 C s       :     2.871038  s :     2.871038
      pz      :     1.037016  p :     3.060723
      px      :     0.960968
      py      :     1.062739
      dz2     :     0.020606  d :     0.088453
      dxz     :     0.007203
      dyz     :     0.027372
      dx2y2   :     0.017869
      dxy     :     0.015403

  9 C s       :     2.863967  s :     2.863967
      pz      :     1.046642  p :     3.074967
      px      :     0.979559
      py      :     1.048766
      dz2     :     0.021678  d :     0.088966
      dxz     :     0.011429
      dyz     :     0.031807
      dx2y2   :     0.013642
      dxy     :     0.010409

 10 C s       :     2.863429  s :     2.863429
      pz      :     1.054734  p :     3.071280
      px      :     0.972431
      py      :     1.044115
      dz2     :     0.024712  d :     0.089893
      dxz     :     0.013256
      dyz     :     0.029816
      dx2y2   :     0.012730
      dxy     :     0.009379

 11 C s       :     2.864027  s :     2.864027
      pz      :     1.031616  p :     3.077037
      px      :     0.979417
      py      :     1.066004
      dz2     :     0.021277  d :     0.089075
      dxz     :     0.007241
      dyz     :     0.027706
      dx2y2   :     0.017381
      dxy     :     0.015469

 12 C s       :     2.868007  s :     2.868007
      pz      :     1.042484  p :     3.073106
      px      :     0.978481
      py      :     1.052141
      dz2     :     0.021344  d :     0.089882
      dxz     :     0.011441
      dyz     :     0.033108
      dx2y2   :     0.013207
      dxy     :     0.010782

 13 C s       :     2.915828  s :     2.915828
      pz      :     1.083590  p :     3.144204
      px      :     1.078197
      py      :     0.982417
      dz2     :     0.027010  d :     0.090177
      dxz     :     0.033912
      dyz     :     0.011408
      dx2y2   :     0.010846
      dxy     :     0.007001

 14 C s       :     2.870403  s :     2.870403
      pz      :     1.053978  p :     3.054640
      px      :     1.053736
      py      :     0.946926
      dz2     :     0.024119  d :     0.088868
      dxz     :     0.036361
      dyz     :     0.009818
      dx2y2   :     0.011155
      dxy     :     0.007415

 15 C s       :     2.864958  s :     2.864958
      pz      :     1.041459  p :     3.064654
      px      :     1.067913
      py      :     0.955282
      dz2     :     0.025693  d :     0.089405
      dxz     :     0.030031
      dyz     :     0.004446
      dx2y2   :     0.015989
[...]
      dxz     :     0.023928
      dyz     :     0.013937
      dx2y2   :     0.014555
      dxy     :     0.016035

 15 C s       :     2.874534  s :     2.874534
      pz      :     1.010416  p :     3.051547
      px      :     1.062097
      py      :     0.979034
      dz2     :     0.014394  d :     0.086971
      dxz     :     0.022938
      dyz     :     0.010954
      dx2y2   :     0.019907
      dxy     :     0.018777

 16 C s       :     2.871146  s :     2.871146
      pz      :     1.028536  p :     3.074840
      px      :     1.041833
      py      :     1.004471
      dz2     :     0.016043  d :     0.086315
      dxz     :     0.023985
      dyz     :     0.013643
      dx2y2   :     0.017298
      dxy     :     0.015346

 17 C s       :     2.872640  s :     2.872640
      pz      :     1.021039  p :     3.044912
      px      :     1.040711
      py      :     0.983162
      dz2     :     0.018593  d :     0.086229
      dxz     :     0.023795
      dyz     :     0.013841
      dx2y2   :     0.014004
      dxy     :     0.015996

 18 C s       :     2.871487  s :     2.871487
      pz      :     1.019898  p :     3.110391
      px      :     1.069996
      py      :     1.020497
      dz2     :     0.018758  d :     0.101189
      dxz     :     0.024488
      dyz     :     0.016538
      dx2y2   :     0.022509
      dxy     :     0.018896

 19 C s       :     2.851660  s :     2.851660
      pz      :     0.976081  p :     2.806148
      px      :     0.931663
      py      :     0.898404
      dz2     :     0.057749  d :     0.277765
      dxz     :     0.064406
      dyz     :     0.027333
      dx2y2   :     0.067821
      dxy     :     0.060456

 20 O s       :     3.558859  s :     3.558859
      pz      :     1.541397  p :     4.566890
      px      :     1.529129
      py      :     1.496365
      dz2     :     0.004155  d :     0.030309
      dxz     :     0.011453
      dyz     :     0.002731
      dx2y2   :     0.006428
      dxy     :     0.005541

 21 O s       :     3.444614  s :     3.444614
      pz      :     1.473752  p :     4.559803
      px      :     1.523480
      py      :     1.562571
      dz2     :     0.004921  d :     0.025888
      dxz     :     0.004083
      dyz     :     0.005147
      dx2y2   :     0.006594
      dxy     :     0.005143

 22 H s       :     0.901621  s :     0.901621
      pz      :     0.020352  p :     0.065885
      px      :     0.024733
      py      :     0.020799

 23 H s       :     0.901078  s :     0.901078
      pz      :     0.013632  p :     0.065832
      px      :     0.012793
      py      :     0.039407

 24 H s       :     0.903478  s :     0.903478
      pz      :     0.029850  p :     0.066810
      px      :     0.021416
      py      :     0.015544

 25 H s       :     0.896026  s :     0.896026
      pz      :     0.013379  p :     0.069339
      px      :     0.013136
      py      :     0.042824

 26 H s       :     0.901379  s :     0.901379
      pz      :     0.028707  p :     0.065843
      px      :     0.021145
      py      :     0.015991

 27 H s       :     0.901555  s :     0.901555
      pz      :     0.030974  p :     0.066572
      px      :     0.016126
      py      :     0.019472

 28 H s       :     0.901198  s :     0.901198
      pz      :     0.022369  p :     0.065770
      px      :     0.026934
      py      :     0.016468

 29 H s       :     0.902265  s :     0.902265
      pz      :     0.013062  p :     0.065869
      px      :     0.015654
      py      :     0.037153

 30 H s       :     0.902267  s :     0.902267
      pz      :     0.030104  p :     0.065811
      px      :     0.016659
      py      :     0.019047

 31 H s       :     0.899932  s :     0.899932
      pz      :     0.022699  p :     0.068391
      px      :     0.028099
      py      :     0.017593

 32 H s       :     0.890009  s :     0.890009
      pz      :     0.014579  p :     0.071197
      px      :     0.037599
      py      :     0.019019

 33 H s       :     0.897782  s :     0.897782
      pz      :     0.031947  p :     0.065845
      px      :     0.011021
      py      :     0.022878

 34 H s       :     0.898434  s :     0.898434
      pz      :     0.020156  p :     0.066180
      px      :     0.032701
      py      :     0.013323

 35 H s       :     0.892931  s :     0.892931
      pz      :     0.015715  p :     0.069329
      px      :     0.034002
      py      :     0.019612

 36 H s       :     0.730223  s :     0.730223
      pz      :     0.077916  p :     0.169468
      px      :     0.034510
      py      :     0.057042



                      *****************************
                      * MAYER POPULATION ANALYSIS *
                      *****************************

  NA   - Mulliken gross atomic population
  ZA   - Total nuclear charge
  QA   - Mulliken gross atomic charge
  VA   - Mayer's total valence
  BVA  - Mayer's bonded valence
  FA   - Mayer's free valence

  ATOM       NA         ZA         QA         VA         BVA        FA
  0 C      5.9981     6.0000     0.0019     3.8236     3.8236    -0.0000
  1 C      5.9991     6.0000     0.0009     3.8494     3.8494    -0.0000
  2 C      5.9930     6.0000     0.0070     3.8689     3.8689    -0.0000
  3 C      6.1823     6.0000    -0.1823     3.8033     3.8033    -0.0000
  4 C      5.9868     6.0000     0.0132     3.8762     3.8762    -0.0000
  5 C      5.9945     6.0000     0.0055     3.8320     3.8320    -0.0000
  6 P     14.6651    15.0000     0.3349     3.0381     3.0381    -0.0000
  7 C      6.1288     6.0000    -0.1288     3.8805     3.8805    -0.0000
  8 C      5.9725     6.0000     0.0275     3.8739     3.8739    -0.0000
  9 C      6.0034     6.0000    -0.0034     3.8538     3.8538    -0.0000
 10 C      5.9966     6.0000     0.0034     3.8239     3.8239    -0.0000
 11 C      6.0003     6.0000    -0.0003     3.8364     3.8364    -0.0000
 12 C      6.0002     6.0000    -0.0002     3.8771     3.8771    -0.0000
 13 C      6.1507     6.0000    -0.1507     3.8959     3.8959    -0.0000
 14 C      6.0038     6.0000    -0.0038     3.8872     3.8872    -0.0000
 15 C      5.9801     6.0000     0.0199     3.8061     3.8061    -0.0000
 16 C      5.9901     6.0000     0.0099     3.7904     3.7904    -0.0000
 17 C      6.0003     6.0000    -0.0003     3.8230     3.8230     0.0000
 18 C      6.0249     6.0000    -0.0249     3.8134     3.8134    -0.0000
 19 C      5.8786     6.0000     0.1214     4.2953     4.2953    -0.0000
 20 O      8.1808     8.0000    -0.1808     2.3269     2.3269    -0.0000
 21 O      8.1553     8.0000    -0.1553     2.3153     2.3153    -0.0000
 22 H      0.9958     1.0000     0.0042     0.9786     0.9786    -0.0000
 23 H      0.9960     1.0000     0.0040     0.9788     0.9788    -0.0000
 24 H      0.9967     1.0000     0.0033     0.9918     0.9918    -0.0000
 25 H      0.9891     1.0000     0.0109     0.9972     0.9972    -0.0000
 26 H      0.9983     1.0000     0.0017     0.9786     0.9786    -0.0000
 27 H      0.9972     1.0000     0.0028     0.9906     0.9906    -0.0000
 28 H      0.9966     1.0000     0.0034     0.9789     0.9789    -0.0000
 29 H      0.9977     1.0000     0.0023     0.9786     0.9786    -0.0000
 30 H      1.0004     1.0000    -0.0004     0.9785     0.9785    -0.0000
 31 H      0.9892     1.0000     0.0108     0.9875     0.9875    -0.0000
 32 H      0.9731     1.0000     0.0269     0.9916     0.9916    -0.0000
 33 H      0.9915     1.0000     0.0085     0.9787     0.9787     0.0000
 34 H      0.9925     1.0000     0.0075     0.9800     0.9800    -0.0000
 35 H      0.9868     1.0000     0.0132     1.0060     1.0060     0.0000
 36 H      0.8140     1.0000     0.1860     1.0328     1.0328    -0.0000

  Mayer bond orders larger than 0.100000
B(  0-C ,  1-C ) :   1.3769 B(  0-C ,  5-C ) :   1.3750 B(  0-C , 22-H ) :   0.9755 
B(  1-C ,  2-C ) :   1.3962 B(  1-C , 23-H ) :   0.9764 B(  2-C ,  3-C ) :   1.3661 
B(  2-C , 24-H ) :   0.9711 B(  3-C ,  4-C ) :   1.3754 B(  3-C ,  6-P ) :   0.8896 
B(  4-C ,  5-C ) :   1.3864 B(  4-C , 25-H ) :   0.9668 B(  5-C , 26-H ) :   0.9747 
B(  6-P ,  7-C ) :   0.9392 B(  6-P , 13-C ) :   0.9492 B(  7-C ,  8-C ) :   1.3760 
B(  7-C , 12-C ) :   1.3759 B(  8-C ,  9-C ) :   1.3965 B(  8-C , 27-H ) :   0.9714 
B(  9-C , 10-C ) :   1.3775 B(  9-C , 28-H ) :   0.9757 B( 10-C , 11-C ) :   1.3767 
B( 10-C , 29-H ) :   0.9757 B( 11-C , 12-C ) :   1.3822 B( 11-C , 30-H ) :   0.9750 
B( 12-C , 31-H ) :   0.9666 B( 13-C , 14-C ) :   1.3838 B( 13-C , 18-C ) :   1.3629 
B( 14-C , 15-C ) :   1.3790 B( 14-C , 32-H ) :   0.9595 B( 15-C , 16-C ) :   1.3499 
B( 15-C , 33-H ) :   0.9746 B( 16-C , 17-C ) :   1.3642 B( 16-C , 34-H ) :   0.9768 
B( 17-C , 18-C ) :   1.3620 B( 17-C , 35-H ) :   0.9686 B( 18-C , 19-C ) :   0.9565 
B( 19-C , 20-O ) :   2.0072 B( 19-C , 21-O ) :   1.2657 B( 21-O , 36-H ) :   0.9371 


-------
TIMINGS
-------

Total SCF time: 0 days 0 hours 0 min 5 sec 

Total time                  ....       5.897 sec
Sum of individual times     ....       5.800 sec  ( 98.4%)

SCF preparation             ....       0.133 sec  (  2.3%)
Fock matrix formation       ....       5.089 sec  ( 86.3%)
  Startup                   ....       0.024 sec  (  0.5% of F)
  Split-RI-J                ....       1.797 sec  ( 35.3% of F)
  XC integration            ....       3.172 sec  ( 62.3% of F)
    Basis function eval.    ....       0.928 sec  ( 29.3% of XC)
    Density eval.           ....       1.004 sec  ( 31.7% of XC)
    XC-Functional eval.     ....       0.070 sec  (  2.2% of XC)
    XC-Potential eval.      ....       0.713 sec  ( 22.5% of XC)
Diagonalization             ....       0.000 sec  (  0.0%)
Density matrix formation    ....       0.055 sec  (  0.9%)
Total Energy calculation    ....       0.021 sec  (  0.4%)
Population analysis         ....       0.132 sec  (  2.2%)
Orbital Transformation      ....       0.046 sec  (  0.8%)
Orbital Orthonormalization  ....       0.000 sec  (  0.0%)
DIIS solution               ....       0.066 sec  (  1.1%)
SOSCF solution              ....       0.258 sec  (  4.4%)
Finished LeanSCF after   6.0 sec

Maximum memory used throughout the entire LEANSCF-calculation: 42.6 MB


-------------------------------------------------------------------------------
                          DFT DISPERSION CORRECTION                            
                                                                               
                              DFTD3 V3.1  Rev 1                                
                          USING Becke-Johnson damping                          
-------------------------------------------------------------------------------
The BP86 functional is recognized
Active option DFTDOPT                   ...         4   

molecular C6(AA) [au] = 19735.758387 


            DFT-D V3
 parameters
 s6 scaling factor         :     1.0000 
 a1 scaling factor         :     0.3946 
 s8 scaling factor         :     3.2822 
 a2 scaling factor         :     4.8516 
 ad hoc parameters k1-k3   :    16.0000     1.3333    -4.0000 

 Edisp/kcal,au: -58.171095630848  -0.092701531738 
 E6   /kcal   : -20.998352921 
 E8   /kcal   : -37.172742709 
 % E8         :  63.902428356 

-------------------------   ----------------
Dispersion correction           -0.092701532
-------------------------   ----------------


-------------------------   --------------------
FINAL SINGLE POINT ENERGY     -1224.268636373715
-------------------------   --------------------

                                *** OPTIMIZATION RUN DONE ***



           ************************************************************
           *        Program running with 6 parallel MPI-processes     *
           *              working on a common directory               *
           ************************************************************

------------------------------------------------------------------------------
                              ORCA PROPERTY CALCULATIONS
------------------------------------------------------------------------------

GBWName                                 ... data/geom_opt_P_BP86/87021/87021.gbw
Number of atoms                         ...     37
Number of basis functions               ...    387
Max core memory                         ...   1024 MB

Electric properties:
Dipole moment                           ... YES
Quadrupole moment                       ...  NO
Static polarizability (Dipole/Dipole)   ...  NO
Static polarizability (Dipole/Quad.)    ...  NO
Static polarizability (Quad./Quad.)     ...  NO
Static polarizability (Velocity)        ...  NO

Atomic electric properties:
Dipole moment                           ...  NO
Quadrupole moment                       ...  NO
Static polarizability                   ...  NO

Choice of electric origin               ... Center of mass
Position of electric origin             ...     0.334352     0.032432     0.557604

General magnetic properties:
Magnetizability                         ...  NO

EPR properties:
g-Tensor (aka g-matrix)                 ...  NO
Zero-Field splitting spin-orbit         ...  NO
Zero-field splitting spin-spin          ...  NO
Hyperfine couplings                     ...  NO (   0 nuclei)
Quadrupole couplings                    ...  NO (   0 nuclei)
Contact density                         ...  NO (   0 nuclei)

NMR properties:
Chemical shifts                         ...  NO (   0 nuclei)
Spin-rotation constants                 ...  NO (   0 nuclei)
Spin-spin couplings                     ...  NO (   0 nuclei,    0 pairs)

Choice of magnetic origin               ... GIAO
Position of magnetic origin             ...     0.000000     0.000000     0.000000

Properties with geometric perturbations:
SCF Hessian                             ...  NO
IR spectrum                             ...  NO
VCD spectrum                            ...  NO
X-ray spectroscopy properties:
SCF XES/XAS/RIXS spectra                ...  NO


-------------
DIPOLE MOMENT
-------------

Method             : SCF
Type of density    : Electron Density
Multiplicity       :   1
Irrep              :   0
Energy             : -1224.1759348419768685 Eh
Relativity type    : 
Basis              : AO
                                X                 Y                 Z
Electronic contribution:      5.534457803       0.170260279       8.408457015
Nuclear contribution   :     -5.103465321      -0.115396894      -9.066650786
                        -----------------------------------------
Total Dipole Moment    :      0.430992482       0.054863385      -0.658193771
                        -----------------------------------------
Magnitude (a.u.)       :      0.788659338
Magnitude (Debye)      :      2.004612728



--------------------
Rotational spectrum 
--------------------
 
Rotational constants in cm-1:             0.010704             0.008303             0.005736 
Rotational constants in MHz :           320.886549           248.928377           171.970830 

Dipole components along the rotational axes: 
x,y,z [a.u.] :     0.227158     0.341331    -0.673703 
x,y,z [Debye]:     0.577390     0.867595    -1.712417 

 

Dipole moment calculation done in   0.0 sec 

Maximum memory used throughout the entire PROP-calculation: 22.3 MB

--------------------------------
SUGGESTED CITATIONS FOR THIS RUN
--------------------------------

Below you find a list of papers that are relevant to this ORCA run
We neither can nor want to force you to cite these papers, but we appreciate if you do
You receive ORCA, which is the product of decades of hard work by many enthusiastic individuals, for free
The only thing we kindly ask in return is that you cite our papers,
We deeply appreciate it, if you show your appreciation for ORCA by not just citing the generic ORCA reference.

Please note that relegating all ORCA citations to the supporting information does *not* help us.
SI sections are not indexed - citations you put there will not count into any citation statistics
But we need these citations in order to attract the funding resources that allow us to do what we are doing

Therefore, if you are a happy ORCA user, please consider citing a few of the papers listed below in the main body of your paper

In addition to the list printed below, the program has created the file data/geom_opt_P_BP86/87021/87021.bibtex that contains the list in bibtex format
You can import this file easily into all common literature databanks and citation aid programs


List of essential papers. We consider these as the minimum necessary citations

  1. Neese,F.
     Software update: the ORCA program system, version 5.0
     WIRES Comput. Molec. Sci., 2022 12(1)e1606
     doi.org/10.1002/wcms.1606

List of papers to cite with high priority. The work reported in these papers was absolutely
necessary for this run to complete.
Our perspective: the developers of density functionals and basis sets usually get cited in chemistry papers
Good! But without the algorithms to do something with them, the functionals or basis sets would not do anything.
Hence, in our opinion, the algorithm design and method developments papers are equally worthy of getting cited

  1. Neese,F.
     An improvement of the resolution of the identity approximation for the formation of the Coulomb matrix
     J. Comp. Chem., 2003 24(14)1740-1747
     doi.org/10.1002/jcc.10318
  2. Neese,F.
     The SHARK Integral Generation and Digestion System
     J. Comp. Chem., 2022  1-16
     doi.org/10.1002/jcc.26942
  3. Grimme,S.; Antony,J.; Ehrlich,S.; Krieg,H.
     A consistent and accurate ab initio parametrization of density functional dispersion correction (DFT-D) for the 94 elements H-Pu
     J. Chem. Phys., 2010 132 154104-XXXX
     doi.org/10.1063/1.3382344
  4. Grimme,S.; Ehrlich,S.; Goerigk,L.
     Effect of the damping function in dispersion corrected density functional theory
     J. Comput. Chem., 2011 32(7)1456-1465
     doi.org/10.1002/jcc.21759

List of suggested additional citations. These are papers that are important in the 'surrounding' of 
of this run, or papers that preceded the highly important papers. If you like your results we are grateful for a citation.

  1. Neese,F.
     The ORCA program system
     WIRES Comput. Molec. Sci., 2012 2(1)73-78
     doi.org/10.1002/wcms.81
  2. Neese,F.
     Software update: the ORCA program system, version 4.0
     WIRES Comput. Molec. Sci., 2018 8(1)1-6
     doi.org/10.1002/wcms.1327
  3. Neese,F.; Wennmohs,F.; Becker,U.; Riplinger,C.
     The ORCA quantum chemistry program package
     J. Chem. Phys., 2020 152 Art. No. L224108
     doi.org/10.1063/5.0004608

List of optional additional citations

  1. Neese,F.
     Approximate second-order SCF convergence for spin unrestricted wavefunctions
     Chem. Phys. Lett., 2000 325(1-3)93-98
     doi.org/10.1016/s0009-2614(00)00662-x

Timings for individual modules:

Sum of individual times          ...      455.104 sec (=   7.585 min)
Startup calculation              ...       34.894 sec (=   0.582 min)   7.7 %
SCF iterations                   ...      284.438 sec (=   4.741 min)  62.5 %
Property calculations            ...        0.187 sec (=   0.003 min)   0.0 %
SCF Gradient evaluation          ...      135.159 sec (=   2.253 min)  29.7 %
Geometry relaxation              ...        0.426 sec (=   0.007 min)   0.1 %
                             ****ORCA TERMINATED NORMALLY****
TOTAL RUN TIME: 0 days 0 hours 7 minutes 39 seconds 582 msec
