
                                 *****************
                                 * O   R   C   A *
                                 *****************

                                            #,                                       
                                            ###                                      
                                            ####                                     
                                            #####                                    
                                            ######                                   
                                           ########,                                 
                                     ,,################,,,,,                         
                               ,,#################################,,                 
                          ,,##########################################,,             
                       ,#########################################, ''#####,          
                    ,#############################################,,   '####,        
                  ,##################################################,,,,####,       
                ,###########''''           ''''###############################       
              ,#####''   ,,,,##########,,,,          '''####'''          '####       
            ,##' ,,,,###########################,,,                        '##       
           ' ,,###''''                  '''############,,,                           
         ,,##''                                '''############,,,,        ,,,,,,###''
      ,#''                                            '''#######################'''  
     '                                                          ''''####''''         
             ,#######,   #######,   ,#######,      ##                                
            ,#'     '#,  ##    ##  ,#'     '#,    #''#        ,####,   ,####,        
            ##       ##  ##   ,#'  ##            #'  '#       #'       #'  '#        
            ##       ##  #######   ##           ,######,      #####,   #    #        
            '#,     ,#'  ##    ##  '#,     ,#' ,#      #,     #,   #   #,  ,#        
             '#######'   ##     ##  '#######'  #'      '#     '####' # '####'        



                #########################################################
                #                        -***-                          #
                #          Department of theory and spectroscopy        #
                #                                                       #
                #                      Frank Neese                      #
                #                                                       #
                #     Directorship, Architecture, Infrastructure        #
                #                    SHARK, DRIVERS                     #
                #        Core code/Algorithms in most modules           #
                #                                                       #
                #        Max Planck Institute fuer Kohlenforschung      #
                #                Kaiser Wilhelm Platz 1                 #
                #                 D-45470 Muelheim/Ruhr                 #
                #                      Germany                          #
                #                                                       #
                #                  All rights reserved                  #
                #                        -***-                          #
                #########################################################


                         Program Version 6.0.0  -   RELEASE   -


 With contributions from (in alphabetic order):
   Daniel Aravena         : Magnetic Suceptibility
   Michael Atanasov       : Ab Initio Ligand Field Theory (pilot matlab implementation)
   Alexander A. Auer      : GIAO ZORA, VPT2 properties, NMR spectrum
   Ute Becker             : All parallelization in ORCA, NUMFREQ, NUMCALC
   Giovanni Bistoni       : ED, misc. LED, open-shell LED, HFLD
   Martin Brehm           : Molecular dynamics
   Dmytro Bykov           : pre 5.0 version of the SCF Hessian
   Marcos Casanova-Páez   : Triplet and SCS-CIS(D). UHF-(DLPNO)-IP/EA/STEOM-CCSD. UHF-CVS-IP/STEOM-CCSD
   Vijay G. Chilkuri      : MRCI spin determinant printing, contributions to CSF-ICE
   Pauline Colinet        : FMM embedding
   Dipayan Datta          : RHF DLPNO-CCSD density
   Achintya Kumar Dutta   : EOM-CC, STEOM-CC
   Nicolas Foglia         : Exact transition moments, OPA infrastructure, MCD improvements
   Dmitry Ganyushin       : Spin-Orbit,Spin-Spin,Magnetic field MRCI
   Miquel Garcia          : C-PCM and meta-GGA Hessian, CCSD/C-PCM, Gaussian charge scheme
   Tiago L. C. Gouveia    : GS-ROHF, GS-ROCIS
   Yang Guo               : DLPNO-NEVPT2, F12-NEVPT2, CIM, IAO-localization
   Andreas Hansen         : Spin unrestricted coupled pair/coupled cluster methods
   Ingolf Harden          : AUTO-CI MPn and infrastructure 
   Benjamin Helmich-Paris : MC-RPA, TRAH-(SCF,CASSCF), AVAS, COSX integrals, SCF dyn. polar.
   Lee Huntington         : MR-EOM, pCC
   Robert Izsak           : Overlap fitted RIJCOSX, COSX-SCS-MP3, EOM
   Riya Kayal             : Wick's Theorem for AUTO-CI, AUTO-CI UHF-CCSDT
   Emily Kempfer          : AUTO-CI, RHF CISDT and CCSDT
   Christian Kollmar      : KDIIS, OOCD, Brueckner-CCSD(T), CCSD density, CASPT2, CASPT2-K, improved NEVPT2
   Axel Koslowski         : Symmetry handling
   Simone Kossmann        : Meta GGA functionals, TD-DFT gradient, OOMP2, (MP2 Hessian; deprecated post 5.0)
   Lucas Lang             : DCDCAS
   Marvin Lechner         : AUTO-CI (C++ implementation), FIC-MRCC
   Spencer Leger          : CASSCF response
   Dagmar Lenk            : GEPOL surface, SMD, ORCA-2-JSON
   Dimitrios Liakos       : Extrapolation schemes; Compound Job, initial MDCI parallelization
   Dimitrios Manganas     : Further ROCIS development; embedding schemes. LFT, Crystal Embedding
   Dimitrios Pantazis     : SARC Basis sets
   Anastasios Papadopoulos: AUTO-CI, single reference methods and gradients
   Taras Petrenko         : pre 6.0 DFT Hessian and TD-DFT gradient, (ASA, deprecated), ECA, 1-Electron XAS/XES, NRVS
   Peter Pinski           : DLPNO-MP2, DLPNO-MP2 Gradient
   Christoph Reimann      : Effective Core Potentials
   Marius Retegan         : Local ZFS, SOC
   Christoph Riplinger    : Optimizer, TS searches, QM/MM, DLPNO-CCSD(T), (RO)-DLPNO pert. Triples
   Michael Roemelt        : Original ROCIS implementation
   Masaaki Saitow         : Open-shell DLPNO-CCSD energy and density
   Barbara Sandhoefer     : DKH picture change effects
   Kantharuban Sivalingam : CASSCF convergence/infrastructure, NEVPT2 and variants, FIC-MRCI
   Bernardo de Souza      : ESD, SOC TD-DFT
   Georgi Stoychev        : AutoAux, RI-MP2 NMR, DLPNO-MP2 response, X2C
   Van Anh Tran           : RI-MP2 g-tensors
   Willem Van den Heuvel  : Paramagnetic NMR
   Zikuan Wang            : NOTCH, Electric field optimization 
   Frank Wennmohs         : Technical directorship and infrastructure
   Hang Xu                : AUTO-CI-Response properties 


 We gratefully acknowledge several colleagues who have allowed us to
 interface, adapt or use parts of their codes:
   Stefan Grimme, W. Hujo, H. Kruse, P. Pracht,  : VdW corrections, initial TS optimization,
                  C. Bannwarth, S. Ehlert,         DFT functionals, gCP, sTDA/sTD-DF
                  L. Wittmann, M. Mueller
   Ed Valeev, F. Pavosevic, A. Kumar             : LibInt (2-el integral package), F12 methods
   Garnet Chan, S. Sharma, J. Yang, R. Olivares  : DMRG
   Ulf Ekstrom                                   : XCFun DFT Library
   Mihaly Kallay                                 : mrcc  (arbitrary order and MRCC methods)
   Frank Weinhold                                : gennbo (NPA and NBO analysis)
   Simon Mueller                                 : openCOSMO-RS
   Christopher J. Cramer and Donald G. Truhlar   : smd solvation model
   Lars Goerigk                                  : TD-DFT with DH, B97 family of functionals
   V. Asgeirsson, H. Jonsson                     : NEB implementation
   FAccTs GmbH                                   : IRC, NEB, NEB-TS, DLPNO-Multilevel, CI-OPT
                                                   MM, QMMM, 2- and 3-layer-ONIOM, Crystal-QMMM,
                                                   LR-CPCM, SF, NACMEs, symmetry and pop. for TD-DFT,
                                                   nearIR, NL-DFT gradient (VV10), updates on ESD,
                                                   ML-optimized integration grids, MBIS, APM,
                                                   GOAT, DOCKER, SOLVATOR, interface openCOSMO-RS
   S Lehtola, MJT Oliveira, MAL Marques          : LibXC Library
   Liviu Ungur et al                             : ANISO software


 Your calculation uses the libint2 library for the computation of 2-el integrals
 For citations please refer to: http://libint.valeyev.net

 Your ORCA version has been built with support for libXC version: 6.2.2
 For citations please refer to: https://libxc.gitlab.io

 This ORCA versions uses:
   CBLAS   interface :  Fast vector & matrix operations
   LAPACKE interface :  Fast linear algebra routines
   Shared memory     :  Shared parallel matrices


Your calculation utilizes the atom-pairwise dispersion correction
with the zero-damping scheme (D30)


XCFun DFT library Copyright 2009-2010 Ulf Ekstrom and contributors.
See http://admol.org/xcfun for more information.
This is free software; see the source code for copying conditions.
There is ABSOLUTELY NO WARRANTY; not even for MERCHANTABILITY or FITNESS FOR A PARTICULAR PURPOSE.
For details see the documentation.
Scientific users of this library should cite U. Ekstrom, L. Visscher, R. Bast, A. J. Thorvaldsen and K. Ruud;
J.Chem.Theor.Comp. 2010, DOI: 10.1021/ct100117s
XCFun Version 0.99 

Warning: RI is on but no J-basis has been assigned. Assigning Def2/J (nothing to worry about!)
================================================================================

----- Orbital basis set information -----
Your calculation utilizes the basis: def2-TZVP
   F. Weigend and R. Ahlrichs, Phys. Chem. Chem. Phys. 7, 3297 (2005).

----- AuxJ basis set information -----
Your calculation utilizes the auxiliary basis: def2/J
   F. Weigend, Phys. Chem. Chem. Phys. 8, 1057 (2006).

================================================================================
                                        WARNINGS
                       Please study these warnings very carefully!
================================================================================

WARNING: Functional chosen is sensitive to the integration grid.
         DEFGRID3 seems to be a minimum grid for robust results!

================================================================================
                                       INPUT FILE
================================================================================
NAME = data/single_point_P_M06-2x/70874/70874.inp
|  1> ! RIJCOSX M062X def2-TZVP D3ZERO NormalSCF
|  2> %pal
|  3> nprocs 6
|  4> end
|  5> 
|  6> * xyz 0 1
|  7>   C          -0.70842688938131     -2.42297852092668     -1.67843530250784
|  8>   C          -1.15840504118323     -3.68918547441074     -1.28108892799836
|  9>   C          -1.80905253968223     -3.82661574206556     -0.04197582985170
| 10>   C          -2.00665201913897     -2.71595665776148      0.79544461022013
| 11>   C          -1.53810946837022     -1.45701407344164      0.38997824100718
| 12>   C          -0.88032774486131     -1.29377596180938     -0.84712863773294
| 13>   P          -0.21788530552671      0.32118430034777     -1.46332818839111
| 14>   C           1.53311823457941      0.22815590441206     -0.86993233906087
| 15>   C           2.42856316035354      1.21354864250352     -1.34218769043351
| 16>   C           3.76667232864734      1.23439248758647     -0.92674517992766
| 17>   C           4.22377575461056      0.24256376731455     -0.04080169417550
| 18>   C           3.35697656067690     -0.75786994777197      0.43008767526868
| 19>   C           2.01621712405851     -0.75727705014897      0.01603791597424
| 20>   Cl          5.89466812706242      0.25170868311551      0.47608990125348
| 21>   C          -0.94229719836060      1.48930299810112     -0.22325155617552
| 22>   C          -2.24839982709957      1.96748751218318     -0.47108583262620
| 23>   C          -2.88175921817701      2.83965140485838      0.42425255791511
| 24>   C          -2.19177516815679      3.25786568445003      1.57609844620779
| 25>   C          -0.88617659019952      2.80923786236754      1.83668642009269
| 26>   C          -0.27055209695214      1.92456963749357      0.93805837756869
| 27>   Cl         -2.96764729350016      4.35622463051030      2.69456042402454
| 28>   Cl         -2.38523959846411     -5.40016830905587      0.45926753719921
| 29>   H          -0.20940269284697     -2.31051033904154     -2.65457448477996
| 30>   H          -1.01881559626215     -4.56816571226314     -1.92604673968336
| 31>   H          -2.51998480247742     -2.84294294216999      1.75914524680956
| 32>   H          -1.68469052591915     -0.58977579162611      1.05095504801815
| 33>   H           2.07097727044263      1.98256922447626     -2.04591117660297
| 34>   H           4.46074673336997      2.00526439352549     -1.29019248367360
| 35>   H           3.73331478103522     -1.52642572206081      1.12008005790073
| 36>   H           1.33667897296399     -1.53577196512178      0.39392838841392
| 37>   H          -2.78206379982646      1.64838753994253     -1.38096367159319
| 38>   H          -3.90016051241172      3.20629449979955      0.23320964507383
| 39>   H          -0.36207587317434      3.14956919490195      2.74104300753839
| 40>   H           0.74819075417161      1.56645584178589      1.14872823472795
| 41> **                         ****END OF INPUT****
================================================================================

                       ****************************
                       * Single Point Calculation *
                       ****************************

---------------------------------
CARTESIAN COORDINATES (ANGSTROEM)
---------------------------------
  C     -0.708427   -2.422979   -1.678435
  C     -1.158405   -3.689185   -1.281089
  C     -1.809053   -3.826616   -0.041976
  C     -2.006652   -2.715957    0.795445
  C     -1.538109   -1.457014    0.389978
  C     -0.880328   -1.293776   -0.847129
  P     -0.217885    0.321184   -1.463328
  C      1.533118    0.228156   -0.869932
  C      2.428563    1.213549   -1.342188
  C      3.766672    1.234392   -0.926745
  C      4.223776    0.242564   -0.040802
  C      3.356977   -0.757870    0.430088
  C      2.016217   -0.757277    0.016038
  Cl     5.894668    0.251709    0.476090
  C     -0.942297    1.489303   -0.223252
  C     -2.248400    1.967488   -0.471086
  C     -2.881759    2.839651    0.424253
  C     -2.191775    3.257866    1.576098
  C     -0.886177    2.809238    1.836686
  C     -0.270552    1.924570    0.938058
  Cl    -2.967647    4.356225    2.694560
  Cl    -2.385240   -5.400168    0.459268
  H     -0.209403   -2.310510   -2.654574
  H     -1.018816   -4.568166   -1.926047
  H     -2.519985   -2.842943    1.759145
  H     -1.684691   -0.589776    1.050955
  H      2.070977    1.982569   -2.045911
  H      4.460747    2.005264   -1.290192
  H      3.733315   -1.526426    1.120080
  H      1.336679   -1.535772    0.393928
  H     -2.782064    1.648388   -1.380964
  H     -3.900161    3.206294    0.233210
  H     -0.362076    3.149569    2.741043
  H      0.748191    1.566456    1.148728

----------------------------
CARTESIAN COORDINATES (A.U.)
----------------------------
  NO LB      ZA    FRAG     MASS         X           Y           Z
   0 C     6.0000    0    12.011   -1.338733   -4.578766   -3.171783
   1 C     6.0000    0    12.011   -2.189068   -6.971550   -2.420907
   2 C     6.0000    0    12.011   -3.418614   -7.231256   -0.079323
   3 C     6.0000    0    12.011   -3.792023   -5.132414    1.503172
   4 C     6.0000    0    12.011   -2.906606   -2.753358    0.736952
   5 C     6.0000    0    12.011   -1.663578   -2.444882   -1.600841
   6 P    15.0000    0    30.974   -0.411744    0.606950   -2.765290
   7 C     6.0000    0    12.011    2.897174    0.431152   -1.643934
   8 C     6.0000    0    12.011    4.589319    2.293275   -2.536367
   9 C     6.0000    0    12.011    7.117979    2.332664   -1.751295
  10 C     6.0000    0    12.011    7.981779    0.458379   -0.077104
  11 C     6.0000    0    12.011    6.343766   -1.432167    0.812748
  12 C     6.0000    0    12.011    3.810098   -1.431046    0.030307
  13 Cl   17.0000    0    35.453   11.139308    0.475660    0.899680
  14 C     6.0000    0    12.011   -1.780684    2.814375   -0.421884
  15 C     6.0000    0    12.011   -4.248860    3.718013   -0.890223
  16 C     6.0000    0    12.011   -5.445736    5.366163    0.801721
  17 C     6.0000    0    12.011   -4.141855    6.156474    2.978394
  18 C     6.0000    0    12.011   -1.674631    5.308690    3.470834
  19 C     6.0000    0    12.011   -0.511269    3.636910    1.772673
  20 Cl   17.0000    0    35.453   -5.608041    8.232072    5.091981
  21 Cl   17.0000    0    35.453   -4.507450  -10.204839    0.867890
  22 H     1.0000    0     1.008   -0.395714   -4.366232   -5.016419
  23 H     1.0000    0     1.008   -1.925282   -8.632582   -3.639701
  24 H     1.0000    0     1.008   -4.762081   -5.372384    3.324303
  25 H     1.0000    0     1.008   -3.183604   -1.114515    1.986017
  26 H     1.0000    0     1.008    3.913580    3.746513   -3.866212
  27 H     1.0000    0     1.008    8.429590    3.789401   -2.438110
  28 H     1.0000    0     1.008    7.054943   -2.884527    2.116645
  29 H     1.0000    0     1.008    2.525957   -2.902188    0.744417
  30 H     1.0000    0     1.008   -5.257339    3.115001   -2.609643
  31 H     1.0000    0     1.008   -7.370235    6.059019    0.440702
  32 H     1.0000    0     1.008   -0.684224    5.951823    5.179821
  33 H     1.0000    0     1.008    1.413876    2.960173    2.170782

--------------------------------
INTERNAL COORDINATES (ANGSTROEM)
--------------------------------
 C      0   0   0     0.000000000000     0.00000000     0.00000000
 C      1   0   0     1.401301012447     0.00000000     0.00000000
 C      2   1   0     1.406282516342   119.12544874     0.00000000
 C      3   2   1     1.404949162525   120.86472799   359.81357417
 C      4   3   2     1.403164826048   119.34566807   359.52983621
 C      5   4   3     1.410587433057   120.86175155     0.35254122
 P      6   5   4     1.851115479923   124.04045279   180.42550219
 C      7   6   5     1.851158100735   100.83320635    93.44677449
 C      8   7   6     1.412743989645   117.21515403   170.18541648
 C      9   8   7     1.401271954934   121.09993945   178.84823151
 C     10   9   8     1.406258728801   119.12298715     0.98288753
 C     11  10   9     1.404971622184   120.85244002   359.81820629
 C     12  11  10     1.403236766045   119.35943872   359.51847169
 Cl    11  10   9     1.749040271471   119.53936877   179.57767530
 C      7   6   5     1.851233085348   100.80548910   350.12136324
 C     15   7   6     1.412793804803   117.24681504   274.13605478
 C     16  15   7     1.401229748303   121.09450937   179.06378680
 C     17  16  15     1.406317931093   119.12247212     0.99044397
 C     18  17  16     1.404905926261   120.85778290   359.79168523
 C     19  18  17     1.403268949132   119.35584405   359.52242095
 Cl    18  17  16     1.749093229390   119.52814841   179.52814545
 Cl     3   2   1     1.749086653314   119.52747627   179.56159000
 H      1   2   3     1.102053512235   119.26026174   180.75327220
 H      2   1   3     1.099118760882   121.02722981   179.39126657
 H      4   3   2     1.099252009250   119.79552094   179.82793125
 H      5   4   3     1.100217516351   119.28373734   180.59265687
 H      9   8   7     1.102037689531   119.63849496   359.10174072
 H     10   9   8     1.099125432904   121.02498982   180.37653951
 H     12  11  10     1.099271541697   119.80172766   179.83392123
 H     13  12  11     1.100285254192   119.23971428   180.60663741
 H     16  15   7     1.102043424695   119.63735199   359.28160235
 H     17  16  15     1.099120443679   121.02249593   180.36155019
 H     19  18  17     1.099257847253   119.78904882   179.82916924
 H     20  19  18     1.100211014355   119.26202536   180.59719269

---------------------------
INTERNAL COORDINATES (A.U.)
---------------------------
 C      0   0   0     0.000000000000     0.00000000     0.00000000
 C      1   0   0     2.648075144712     0.00000000     0.00000000
 C      2   1   0     2.657488822808   119.12544874     0.00000000
 C      3   2   1     2.654969149254   120.86472799   359.81357417
 C      4   3   2     2.651597241981   119.34566807   359.52983621
 C      5   4   3     2.665623936428   120.86175155     0.35254122
 P      6   5   4     3.498101299316   124.04045279   180.42550219
 C      7   6   5     3.498181840979   100.83320635    93.44677449
 C      8   7   6     2.669699237772   117.21515403   170.18541648
 C      9   8   7     2.648020233970   121.09993945   178.84823151
 C     10   9   8     2.657443870871   119.12298715     0.98288753
 C     11  10   9     2.655011591858   120.85244002   359.81820629
 C     12  11  10     2.651733188875   119.35943872   359.51847169
 Cl    11  10   9     3.305207110280   119.53936877   179.57767530
 C      7   6   5     3.498323541362   100.80548910   350.12136324
 C     15   7   6     2.669793374779   117.24681504   274.13605478
 C     16  15   7     2.647940474996   121.09450937   179.06378680
 C     17  16  15     2.657555746988   119.12247212     0.99044397
 C     18  17  16     2.654887444557   120.85778290   359.79168523
 C     19  18  17     2.651794006095   119.35584405   359.52242095
 Cl    18  17  16     3.305307186243   119.52814841   179.52814545
 Cl     3   2   1     3.305294759261   119.52747627   179.56159000
 H      1   2   3     2.082579323051   119.26026174   180.75327220
 H      2   1   3     2.077033446721   121.02722981   179.39126657
 H      4   3   2     2.077285249646   119.79552094   179.82793125
 H      5   4   3     2.079109793646   119.28373734   180.59265687
 H      9   8   7     2.082549422474   119.63849496   359.10174072
 H     10   9   8     2.077046055017   121.02498982   180.37653951
 H     12  11  10     2.077322160621   119.80172766   179.83392123
 H     13  12  11     2.079237799615   119.23971428   180.60663741
 H     16  15   7     2.082560260363   119.63735199   359.28160235
 H     17  16  15     2.077036626748   121.02249593   180.36155019
 H     19  18  17     2.077296281872   119.78904882   179.82916924
 H     20  19  18     2.079097506654   119.26202536   180.59719269

---------------------
BASIS SET INFORMATION
---------------------
There are 4 groups of distinct atoms

 Group   1 Type C   : 11s6p2d1f contracted to 5s3p2d1f pattern {62111/411/11/1}
 Group   2 Type P   : 14s9p3d1f contracted to 5s5p2d1f pattern {73211/51111/21/1}
 Group   3 Type Cl  : 14s9p3d1f contracted to 5s5p2d1f pattern {73211/51111/21/1}
 Group   4 Type H   : 5s1p contracted to 3s1p pattern {311/1}

Atom   0C    basis set group =>   1
Atom   1C    basis set group =>   1
Atom   2C    basis set group =>   1
Atom   3C    basis set group =>   1
Atom   4C    basis set group =>   1
Atom   5C    basis set group =>   1
Atom   6P    basis set group =>   2
Atom   7C    basis set group =>   1
Atom   8C    basis set group =>   1
Atom   9C    basis set group =>   1
Atom  10C    basis set group =>   1
Atom  11C    basis set group =>   1
Atom  12C    basis set group =>   1
Atom  13Cl   basis set group =>   3
Atom  14C    basis set group =>   1
Atom  15C    basis set group =>   1
Atom  16C    basis set group =>   1
Atom  17C    basis set group =>   1
Atom  18C    basis set group =>   1
Atom  19C    basis set group =>   1
Atom  20Cl   basis set group =>   3
Atom  21Cl   basis set group =>   3
Atom  22H    basis set group =>   4
Atom  23H    basis set group =>   4
Atom  24H    basis set group =>   4
Atom  25H    basis set group =>   4
Atom  26H    basis set group =>   4
Atom  27H    basis set group =>   4
Atom  28H    basis set group =>   4
Atom  29H    basis set group =>   4
Atom  30H    basis set group =>   4
Atom  31H    basis set group =>   4
Atom  32H    basis set group =>   4
Atom  33H    basis set group =>   4
---------------------------------
AUXILIARY/J BASIS SET INFORMATION
---------------------------------
There are 4 groups of distinct atoms

 Group   1 Type C   : 12s5p4d2f1g contracted to 6s4p3d1f1g pattern {711111/2111/211/2/1}
 Group   2 Type P   : 14s5p5d2f1g contracted to 8s4p3d1f1g pattern {71111111/2111/311/2/1}
 Group   3 Type Cl  : 14s5p5d2f1g contracted to 8s4p3d1f1g pattern {71111111/2111/311/2/1}
 Group   4 Type H   : 5s2p1d contracted to 3s1p1d pattern {311/2/1}

Atom   0C    basis set group =>   1
Atom   1C    basis set group =>   1
Atom   2C    basis set group =>   1
Atom   3C    basis set group =>   1
Atom   4C    basis set group =>   1
Atom   5C    basis set group =>   1
Atom   6P    basis set group =>   2
Atom   7C    basis set group =>   1
Atom   8C    basis set group =>   1
Atom   9C    basis set group =>   1
Atom  10C    basis set group =>   1
Atom  11C    basis set group =>   1
Atom  12C    basis set group =>   1
Atom  13Cl   basis set group =>   3
Atom  14C    basis set group =>   1
Atom  15C    basis set group =>   1
Atom  16C    basis set group =>   1
Atom  17C    basis set group =>   1
Atom  18C    basis set group =>   1
Atom  19C    basis set group =>   1
Atom  20Cl   basis set group =>   3
Atom  21Cl   basis set group =>   3
Atom  22H    basis set group =>   4
Atom  23H    basis set group =>   4
Atom  24H    basis set group =>   4
Atom  25H    basis set group =>   4
Atom  26H    basis set group =>   4
Atom  27H    basis set group =>   4
Atom  28H    basis set group =>   4
Atom  29H    basis set group =>   4
Atom  30H    basis set group =>   4
Atom  31H    basis set group =>   4
Atom  32H    basis set group =>   4
Atom  33H    basis set group =>   4


           ************************************************************
           *        Program running with 6 parallel MPI-processes     *
           *              working on a common directory               *
           ************************************************************
------------------------------------------------------------------------------
                             ORCA STARTUP CALCULATIONS
                           -- RI-GTO INTEGRALS CHOSEN --
------------------------------------------------------------------------------
------------------------------------------------------------------------------
                   ___                                                        
                  /   \      - P O W E R E D   B Y -                         
                 /     \                                                     
                 |  |  |   _    _      __       _____    __    __             
                 |  |  |  | |  | |    /  \     |  _  \  |  |  /  |          
                  \  \/   | |  | |   /    \    | | | |  |  | /  /          
                 / \  \   | |__| |  /  /\  \   | |_| |  |  |/  /          
                |  |  |   |  __  | /  /__\  \  |    /   |      \           
                |  |  |   | |  | | |   __   |  |    \   |  |\   \          
                \     /   | |  | | |  |  |  |  | |\  \  |  | \   \       
                 \___/    |_|  |_| |__|  |__|  |_| \__\ |__|  \__/        
                                                                              
                      - O R C A' S   B I G   F R I E N D -                    
                                      &                                       
                       - I N T E G R A L  F E E D E R -                       
                                                                              
 v1 FN, 2020, v2 2021, v3 2022-2024                                           
------------------------------------------------------------------------------


----------------------
SHARK INTEGRAL PACKAGE
----------------------

Number of atoms                             ...     34
Number of basis functions                   ...    778
Number of shells                            ...    298
Maximum angular momentum                    ...      3
Integral batch strategy                     ... SHARK/LIBINT Hybrid
RI-J (if used) integral strategy            ... SPLIT-RIJ (Revised 2003 algorithm where possible)
Printlevel                                  ...      1
Contraction scheme used                     ... SEGMENTED contraction
Prescreening option                         ... SCHWARTZ
   Thresh                                   ... 1.000e-10
   Tcut                                     ... 1.000e-11
   Tpresel                                  ... 1.000e-11 
Coulomb Range Separation                    ... NOT USED
Exchange Range Separation                   ... NOT USED
Multipole approximations                    ... NOT USED
Finite Nucleus Model                        ... NOT USED
CABS basis                                  ... NOT available
Auxiliary Coulomb fitting basis             ... AVAILABLE
   # of basis functions in Aux-J            ...   1218
   # of shells in Aux-J                     ...    398
   Maximum angular momentum in Aux-J        ...      4
Auxiliary J/K fitting basis                 ... NOT available
Auxiliary Correlation fitting basis         ... NOT available
Auxiliary 'external' fitting basis          ... NOT available

Checking pre-screening integrals            ... done (  0.0 sec) Dimension = 298
Check shell pair data                       ... done (  0.0 sec)
Shell pair information
Shell pair cut-off parameter TPreSel        ...   1.0e-11
Total number of shell pairs                 ...     44551
Shell pairs after pre-screening             ...     30154
Total number of primitive shell pairs       ...    146646
Primitive shell pairs kept                  ...     63265
          la=0 lb=0:   7004 shell pairs
          la=1 lb=0:   8777 shell pairs
          la=1 lb=1:   2783 shell pairs
          la=2 lb=0:   4258 shell pairs
          la=2 lb=1:   2665 shell pairs
          la=2 lb=2:    667 shell pairs
          la=3 lb=0:   1994 shell pairs
          la=3 lb=1:   1247 shell pairs
          la=3 lb=2:    608 shell pairs
          la=3 lb=3:    151 shell pairs

Calculating one electron integrals          ... done (  0.1 sec)
Calculating RI/J V-Matrix + Cholesky decomp.... done (  0.1 sec)
Calculating Nuclear repulsion               ... done (  0.0 sec) ENN=   2097.829938108246 Eh

Diagonalization of the overlap matrix:
Smallest eigenvalue                        ... 8.016e-06
Time for diagonalization                   ...    0.119 sec
Threshold for overlap eigenvalues          ... 1.000e-07
Number of eigenvalues below threshold      ... 0
Time for construction of square roots      ...    0.070 sec
Total time needed                          ...    0.194 sec

-------------------
DFT GRID GENERATION
-------------------

General Integration Accuracy     IntAcc      ... 4.388
Radial Grid Type                 RadialGrid  ... OptM3 with GC (2021)
Angular Grid (max. ang.)         AngularGrid ... 4 (Lebedev-302)
Angular grid pruning method      GridPruning ... 4 (adaptive)
Weight generation scheme         WeightScheme... mBecke (2022)
Basis function cutoff            BFCut       ... 1.0000e-10
Integration weight cutoff        WCut        ... 1.0000e-14
Partially contracted basis set               ... off
Rotationally invariant grid construction     ... off
Angular grids for H and He will be reduced by one unit

Total number of grid points                  ...   174831
Total number of batches                      ...     2752
Average number of points per batch           ...       63
Average number of grid points per atom       ...     5142

--------------------
COSX GRID GENERATION
--------------------

GRIDX 1
-------
General Integration Accuracy     IntAcc      ... 3.816
Radial Grid Type                 RadialGrid  ... OptM3 with GC (2021)
Angular Grid (max. ang.)         AngularGrid ... 1 (Lebedev-50)
Angular grid pruning method      GridPruning ... 4 (adaptive)
Weight generation scheme         WeightScheme... mBecke (2022)
Basis function cutoff            BFCut       ... 1.0000e-10
Integration weight cutoff        WCut        ... 1.0000e-14
Partially contracted basis set               ... on
Rotationally invariant grid construction     ... off
Angular grids for H and He will be reduced by one unit

Total number of grid points                  ...    26255
Total number of batches                      ...      216
Average number of points per batch           ...      121
Average number of grid points per atom       ...      772
UseSFitting                                  ... on

GRIDX 2
-------
General Integration Accuracy     IntAcc      ... 4.020
Radial Grid Type                 RadialGrid  ... OptM3 with GC (2021)
Angular Grid (max. ang.)         AngularGrid ... 2 (Lebedev-110)
Angular grid pruning method      GridPruning ... 4 (adaptive)
Weight generation scheme         WeightScheme... mBecke (2022)
Basis function cutoff            BFCut       ... 1.0000e-10
Integration weight cutoff        WCut        ... 1.0000e-14
Partially contracted basis set               ... on
Rotationally invariant grid construction     ... off
Angular grids for H and He will be reduced by one unit

Total number of grid points                  ...    48259
Total number of batches                      ...      395
Average number of points per batch           ...      122
Average number of grid points per atom       ...     1419
UseSFitting                                  ... on

GRIDX 3
-------
General Integration Accuracy     IntAcc      ... 4.338
Radial Grid Type                 RadialGrid  ... OptM3 with GC (2021)
Angular Grid (max. ang.)         AngularGrid ... 3 (Lebedev-194)
Angular grid pruning method      GridPruning ... 4 (adaptive)
Weight generation scheme         WeightScheme... mBecke (2022)
Basis function cutoff            BFCut       ... 1.0000e-10
Integration weight cutoff        WCut        ... 1.0000e-14
Partially contracted basis set               ... on
Rotationally invariant grid construction     ... off
Angular grids for H and He will be reduced by one unit

Total number of grid points                  ...   107827
Total number of batches                      ...      861
Average number of points per batch           ...      125
Average number of grid points per atom       ...     3171
UseSFitting                                  ... on
Initializing property integral containers    ... done (  0.0 sec)

SHARK setup successfully completed in   3.9 seconds

Maximum memory used throughout the entire STARTUP-calculation: 73.1 MB


           ************************************************************
           *        Program running with 6 parallel MPI-processes     *
           *              working on a common directory               *
           ************************************************************
-------------------------------------------------------------------------------
                                 ORCA GUESS
                   Start orbitals & Density for SCF / CASSCF
-------------------------------------------------------------------------------

------------
SCF SETTINGS
------------
Hamiltonian:
 Density Functional     Method          .... DFT(GTOs)
 Exchange Functional    Exchange        .... M062X
 Correlation Functional Correlation     .... M062X
 Gradients option       PostSCFGGA      .... off
 Hybrid DFT is turned on
   Fraction HF Exchange ScalHFX         ....  0.540000
   Scaling of DF-GGA-X  ScalDFX         ....  0.460000
   Scaling of DF-GGA-C  ScalDFC         ....  1.000000
   Scaling of DF-LDA-C  ScalLDAC        ....  1.000000
   Perturbative correction              ....  0.000000
 RI-approximation to the Coulomb term is turned on
   Number of AuxJ basis functions       .... 1218
   RIJ-COSX (HFX calculated with COS-X)).... on


General Settings:
 Integral files         IntName         .... data/single_point_P_M06-2x/70874/70874
 Hartree-Fock type      HFTyp           .... RHF
 Total Charge           Charge          ....    0
 Multiplicity           Mult            ....    1
 Number of Electrons    NEL             ....  186
 Basis Dimension        Dim             ....  778
 Nuclear Repulsion      ENuc            ....   2097.8299381082 Eh

Convergence Acceleration:
 AO-DIIS                CNVDIIS         .... on
   Start iteration      DIISMaxIt       ....    12
   Startup error        DIISStart       ....  0.200000
   # of expansion vecs  DIISMaxEq       ....     5
   Bias factor          DIISBfac        ....   1.050
   Max. coefficient     DIISMaxC        ....  10.000
 MO-DIIS                CNVKDIIS        .... off
 Trust-Rad. Augm. Hess. CNVTRAH         .... auto
   Auto Start mean grad. ratio tolernc. ....  1.125000
   Auto Start start iteration           ....    50
   Auto Start num. interpolation iter.  ....    10
   Max. Number of Micro iterations      ....    24
   Max. Number of Macro iterations      .... Maxiter - #DIIS iter
   Number of Davidson start vectors     ....     2
   Converg. threshold    (grad. norm)   ....   5.000e-05
   Grad. Scal. Fac. for Micro threshold ....   0.100
   Minimum threshold for Micro iter.    ....   1.000e-02
   NR start threshold (gradient norm)   ....   1.000e-04
   Initial trust radius                 ....   0.400
   Minimum AH scaling param. (alpha)    ....   1.000
   Maximum AH scaling param. (alpha)    .... 1000.000
   Quad. conv. algorithm                .... NR
   White noise on init. David. guess    .... on
   Maximum white noise                  ....   0.010
   Pseudo random numbers                .... off
   Inactive MOs                         .... canonical
   Orbital update algorithm             .... Taylor
   Preconditioner                       .... Diag
   Full preconditioner red. dimension   ....   250
 SOSCF                  CNVSOSCF        .... on
   Start iteration      SOSCFMaxIt      ....   150
   Startup grad/error   SOSCFStart      ....  0.003300
   Hessian update       SOSCFHessUp     .... L-BFGS
 Level Shifting         CNVShift        .... on
   Level shift para.    LevelShift      ....    0.2500
   Turn off err/grad.   ShiftErr        ....    0.0010
 Zerner damping         CNVZerner       .... off
 Static damping         CNVDamp         .... on
   Fraction old density DampFac         ....    0.7000
   Max. Damping (<1)    DampMax         ....    0.9800
   Min. Damping (>=0)   DampMin         ....    0.0000
   Turn off err/grad.   DampErr         ....    0.1000

SCF Procedure:
 Maximum # iterations   MaxIter         ....   125
 SCF integral mode      SCFMode         .... Direct
   Integral package                     .... SHARK and LIBINT hybrid scheme
 Reset frequency        DirectResetFreq ....    20
 Integral Threshold     Thresh          ....  1.000e-10 Eh
 Primitive CutOff       TCut            ....  1.000e-11 Eh

Convergence Tolerance:
 Convergence Check Mode ConvCheckMode   .... Total+1el-Energy
 Convergence forced     ConvForced      .... 0
 Energy Change          TolE            ....  1.000e-06 Eh
 1-El. energy change                    ....  1.000e-03 Eh
 Orbital Gradient       TolG            ....  5.000e-05
 Orbital Rotation angle TolX            ....  5.000e-05
 DIIS Error             TolErr          ....  1.000e-05

------------------------------
INITIAL GUESS: MODEL POTENTIAL
------------------------------
Loading Hartree-Fock densities                     ... done
Calculating cut-offs                               ... done
Initializing the effective Hamiltonian             ... done
Setting up the integral package (SHARK)            ... done
Starting the Coulomb interaction                   ... done (   0.5 sec)
Making the grid                                    ... done (   0.3 sec)
Mapping shells                                     ... done
Starting the XC term evaluation                    ... done (   0.4 sec)
  promolecular density results
     # of electrons  =    185.989863249
     EX              =   -200.192953766
     EC              =     -6.592984047
     EX+EC           =   -206.785937813
Transforming the Hamiltonian                       ... done (   0.1 sec)
Diagonalizing the Hamiltonian                      ... done (   0.1 sec)
Back transforming the eigenvectors                 ... done (   0.0 sec)
Now organizing SCF variables                       ... done
                      ------------------
                      INITIAL GUESS DONE (   1.5 sec)
                      ------------------
             **** ENERGY FILE WAS UPDATED (data/single_point_P_M06-2x/70874/70874.en.tmp) ****
Finished Guess after   1.8 sec
Maximum memory used throughout the entire GUESS-calculation: 55.9 MB


           ************************************************************
           *        Program running with 6 parallel MPI-processes     *
           *              working on a common directory               *
           ************************************************************

-------------------------------------------------------------------------------------------
                                      ORCA LEAN-SCF
                              memory conserving SCF solver
-------------------------------------------------------------------------------------------

----------------------------------------D-I-I-S--------------------------------------------
Iteration    Energy (Eh)           Delta-E    RMSDP     MaxDP     DIISErr   Damp  Time(sec)
-------------------------------------------------------------------------------------------
               ***  Starting incremental Fock matrix formation  ***
    1    -2414.6234551674538125     0.00e+00  1.14e-03  4.06e-02  1.29e-01  0.700  15.9
    2    -2414.8043044543960605    -1.81e-01  9.12e-04  2.95e-02  7.23e-02  0.700   9.2
                               ***Turning on AO-DIIS***
    3    -2414.8907996824532347    -8.65e-02  6.74e-04  2.61e-02  3.52e-02  0.700   9.0
    4    -2414.9417977909711226    -5.10e-02  1.68e-03  7.72e-02  2.32e-02  0.000   8.5
                              *** Initializing SOSCF ***
---------------------------------------S-O-S-C-F--------------------------------------
Iteration    Energy (Eh)           Delta-E    RMSDP     MaxDP     MaxGrad    Time(sec)
--------------------------------------------------------------------------------------
    5    -2415.0513956457966742    -1.10e-01  1.57e-04  1.25e-02  2.96e-03     9.3
               *** Restarting incremental Fock matrix formation ***
    6    -2415.0516558831664042    -2.60e-04  1.27e-04  5.43e-03  6.18e-04    15.2
    7    -2415.0516883590421457    -3.25e-05  6.72e-05  3.81e-03  4.71e-04    11.3
    8    -2415.0516975873028969    -9.23e-06  5.14e-05  2.56e-03  2.62e-04    11.1
    9    -2415.0517020754218720    -4.49e-06  9.54e-06  3.32e-04  9.00e-05    10.3
   10    -2415.0517023868865181    -3.11e-07  6.84e-06  2.49e-04  6.15e-05     9.8
                 **** Energy Check signals convergence ****

               *****************************************************
               *                     SUCCESS                       *
               *           SCF CONVERGED AFTER  10 CYCLES          *
               *****************************************************

Recomputing exchange energy using gridx3       ... done (   25.608 sec)
Old exchange energy                            :   -109.491123501 Eh
New exchange energy                            :   -109.490985894 Eh
Exchange energy change after final integration :      0.000137607 Eh
Total energy after final integration           :  -2415.051564780 Eh
             **** ENERGY FILE WAS UPDATED (data/single_point_P_M06-2x/70874/70874.en.tmp) ****

----------------
TOTAL SCF ENERGY
----------------

Total Energy       :      -2415.05156477988112 Eh          -65716.89406 eV

Components:
Nuclear Repulsion  :       2097.82993810824564 Eh           57084.85475 eV
Electronic Energy  :      -4512.88164049513216 Eh         -122801.75256 eV
One Electron Energy:      -7488.93171151040860 Eh         -203784.19206 eV
Two Electron Energy:       2976.05007101527644 Eh           80982.43950 eV

Virial components:
Potential Energy   :      -4823.72958716984976 Eh         -131260.35521 eV
Kinetic Energy     :       2408.67802238996865 Eh           65543.46115 eV
Virial Ratio       :          2.00264607487205

DFT components:
N(Alpha)           :       92.999967891518 electrons
N(Beta)            :       92.999967891518 electrons
N(Total)           :      185.999935783035 electrons
E(XC)              :     -100.303430579022 Eh       

---------------
SCF CONVERGENCE
---------------

  Last Energy change         ...    3.1146e-07  Tolerance :   1.0000e-06
  Last MAX-Density change    ...    2.4851e-04  Tolerance :   1.0000e-05
  Last RMS-Density change    ...    6.8437e-06  Tolerance :   1.0000e-06
  Last DIIS Error            ...    2.9573e-03  Tolerance :   1.0000e-05
  Last Orbital Gradient      ...    6.1538e-05  Tolerance :   5.0000e-05
  Last Orbital Rotation      ...    1.2705e-04  Tolerance :   5.0000e-05


----------------
ORBITAL ENERGIES
----------------

  NO   OCC          E(Eh)            E(eV) 
   0   2.0000    -102.654555     -2793.3725 
   1   2.0000    -102.654516     -2793.3714 
   2   2.0000    -102.654463     -2793.3700 
   3   2.0000     -78.048835     -2123.8168 
   4   2.0000     -10.621894      -289.0364 
   5   2.0000     -10.621881      -289.0361 
   6   2.0000     -10.621787      -289.0335 
   7   2.0000     -10.572668      -287.6969 
   8   2.0000     -10.572647      -287.6963 
   9   2.0000     -10.572618      -287.6956 
  10   2.0000     -10.571822      -287.6739 
  11   2.0000     -10.571821      -287.6739 
  12   2.0000     -10.571802      -287.6734 
  13   2.0000     -10.571522      -287.6657 
  14   2.0000     -10.571511      -287.6654 
  15   2.0000     -10.571489      -287.6648 
  16   2.0000     -10.571305      -287.6598 
  17   2.0000     -10.571295      -287.6596 
  18   2.0000     -10.571232      -287.6578 
  19   2.0000     -10.570044      -287.6255 
  20   2.0000     -10.570032      -287.6252 
  21   2.0000     -10.569958      -287.6232 
  22   2.0000      -9.816551      -267.1219 
  23   2.0000      -9.816519      -267.1210 
  24   2.0000      -9.816463      -267.1195 
  25   2.0000      -7.538482      -205.1325 
  26   2.0000      -7.538445      -205.1315 
  27   2.0000      -7.538389      -205.1300 
  28   2.0000      -7.533604      -204.9998 
  29   2.0000      -7.533578      -204.9991 
  30   2.0000      -7.533520      -204.9975 
  31   2.0000      -7.533454      -204.9957 
  32   2.0000      -7.533422      -204.9948 
  33   2.0000      -7.533370      -204.9934 
  34   2.0000      -6.864747      -186.7993 
  35   2.0000      -4.979377      -135.4957 
  36   2.0000      -4.978944      -135.4839 
  37   2.0000      -4.978937      -135.4838 
  38   2.0000      -1.003123       -27.2964 
  39   2.0000      -1.000892       -27.2357 
  40   2.0000      -1.000836       -27.2341 
  41   2.0000      -0.952224       -25.9113 
  42   2.0000      -0.941418       -25.6173 
  43   2.0000      -0.941361       -25.6157 
  44   2.0000      -0.864176       -23.5154 
  45   2.0000      -0.863395       -23.4942 
  46   2.0000      -0.863365       -23.4934 
  47   2.0000      -0.861885       -23.4531 
  48   2.0000      -0.830732       -22.6054 
  49   2.0000      -0.830670       -22.6037 
  50   2.0000      -0.734680       -19.9917 
  51   2.0000      -0.712857       -19.3978 
  52   2.0000      -0.712619       -19.3914 
  53   2.0000      -0.712561       -19.3898 
  54   2.0000      -0.684677       -18.6310 
  55   2.0000      -0.684645       -18.6301 
  56   2.0000      -0.651885       -17.7387 
  57   2.0000      -0.595890       -16.2150 
  58   2.0000      -0.595844       -16.2138 
  59   2.0000      -0.567579       -15.4446 
  60   2.0000      -0.550408       -14.9774 
  61   2.0000      -0.550242       -14.9728 
  62   2.0000      -0.550190       -14.9714 
  63   2.0000      -0.540816       -14.7163 
  64   2.0000      -0.540784       -14.7155 
  65   2.0000      -0.529543       -14.4096 
  66   2.0000      -0.508939       -13.8489 
  67   2.0000      -0.508093       -13.8259 
  68   2.0000      -0.508049       -13.8247 
  69   2.0000      -0.491429       -13.3725 
  70   2.0000      -0.491357       -13.3705 
  71   2.0000      -0.477091       -12.9823 
  72   2.0000      -0.474087       -12.9006 
  73   2.0000      -0.474027       -12.8989 
  74   2.0000      -0.456776       -12.4295 
  75   2.0000      -0.432798       -11.7770 
  76   2.0000      -0.432756       -11.7759 
  77   2.0000      -0.431570       -11.7436 
  78   2.0000      -0.414376       -11.2758 
  79   2.0000      -0.414321       -11.2742 
  80   2.0000      -0.411651       -11.2016 
  81   2.0000      -0.395058       -10.7501 
  82   2.0000      -0.395019       -10.7490 
  83   2.0000      -0.384682       -10.4677 
  84   2.0000      -0.384648       -10.4668 
  85   2.0000      -0.384564       -10.4645 
  86   2.0000      -0.338722        -9.2171 
  87   2.0000      -0.335767        -9.1367 
  88   2.0000      -0.328770        -8.9463 
  89   2.0000      -0.328683        -8.9439 
  90   2.0000      -0.312575        -8.5056 
  91   2.0000      -0.312407        -8.5010 
  92   2.0000      -0.278502        -7.5784 
  93   0.0000      -0.020106        -0.5471 
  94   0.0000      -0.019588        -0.5330 
  95   0.0000      -0.019466        -0.5297 
  96   0.0000      -0.002043        -0.0556 
  97   0.0000       0.003139         0.0854 
  98   0.0000       0.003263         0.0888 
  99   0.0000       0.051155         1.3920 
 100   0.0000       0.051265         1.3950 
 101   0.0000       0.054910         1.4942 
 102   0.0000       0.072813         1.9814 
 103   0.0000       0.072915         1.9841 
*Only the first 10 virtual orbitals were printed.

                    ********************************
                    * MULLIKEN POPULATION ANALYSIS *
                    ********************************

-----------------------
MULLIKEN ATOMIC CHARGES
-----------------------
   0 C :   -0.134412
   1 C :   -0.172028
   2 C :    0.091490
   3 C :   -0.189023
   4 C :   -0.128560
   5 C :   -0.111246
   6 P :    0.131690
   7 C :   -0.108990
   8 C :   -0.135810
   9 C :   -0.173104
  10 C :    0.092755
  11 C :   -0.189175
  12 C :   -0.130046
  13 Cl:   -0.079347
  14 C :   -0.109241
  15 C :   -0.136562
  16 C :   -0.173551
  17 C :    0.093533
  18 C :   -0.191542
  19 C :   -0.125935
  20 Cl:   -0.079389
  21 Cl:   -0.079711
  22 H :    0.162036
  23 H :    0.164929
  24 H :    0.165425
  25 H :    0.187629
  26 H :    0.162230
  27 H :    0.164771
  28 H :    0.165361
  29 H :    0.186959
  30 H :    0.161979
  31 H :    0.164765
  32 H :    0.165143
  33 H :    0.186976
Sum of atomic charges:   -0.0000000

--------------------------------
MULLIKEN REDUCED ORBITAL CHARGES
--------------------------------
  0 C s       :     3.200041  s :     3.200041
      pz      :     0.990501  p :     2.862873
      px      :     0.951124
      py      :     0.921249
      dz2     :     0.010649  d :     0.064909
      dxz     :     0.008603
      dyz     :     0.015992
      dx2y2   :     0.010158
      dxy     :     0.019507
      f0      :     0.000491  f :     0.006589
      f+1     :     0.000685
      f-1     :     0.001257
      f+2     :     0.000951
      f-2     :     0.000963
      f+3     :     0.001055
      f-3     :     0.001187

  1 C s       :     3.217956  s :     3.217956
      pz      :     0.923478  p :     2.884816
      px      :     0.955540
      py      :     1.005798
      dz2     :     0.015361  d :     0.062755
      dxz     :     0.010728
      dyz     :     0.013884
      dx2y2   :     0.013921
      dxy     :     0.008860
      f0      :     0.001102  f :     0.006501
      f+1     :     0.000781
      f-1     :     0.000920
      f+2     :     0.001189
      f-2     :     0.000843
      f+3     :     0.000687
      f-3     :     0.000979

  2 C s       :     3.132550  s :     3.132550
      pz      :     0.891863  p :     2.638389
      px      :     0.947695
      py      :     0.798831
      dz2     :     0.026492  d :     0.128264
      dxz     :     0.016944
      dyz     :     0.032811
      dx2y2   :     0.023843
      dxy     :     0.028174
      f0      :     0.001274  f :     0.009308
      f+1     :     0.000829
      f-1     :     0.001767
      f+2     :     0.001381
      f-2     :     0.001503
      f+3     :     0.001217
      f-3     :     0.001336

  3 C s       :     3.223839  s :     3.223839
      pz      :     1.002589  p :     2.896014
      px      :     0.979643
      py      :     0.913782
      dz2     :     0.009285  d :     0.062693
      dxz     :     0.008166
      dyz     :     0.017239
      dx2y2   :     0.010041
      dxy     :     0.017962
      f0      :     0.000482  f :     0.006477
      f+1     :     0.000739
      f-1     :     0.001165
      f+2     :     0.001005
      f-2     :     0.000941
      f+3     :     0.000968
      f-3     :     0.001177

  4 C s       :     3.186528  s :     3.186528
      pz      :     0.907017  p :     2.869604
      px      :     0.944010
      py      :     1.018576
      dz2     :     0.013212  d :     0.065926
      dxz     :     0.009174
      dyz     :     0.018813
      dx2y2   :     0.013340
      dxy     :     0.011387
      f0      :     0.001038  f :     0.006503
      f+1     :     0.000736
      f-1     :     0.000973
      f+2     :     0.001143
      f-2     :     0.000887
      f+3     :     0.000715
      f-3     :     0.001011

  5 C s       :     3.246314  s :     3.246314
      pz      :     0.871080  p :     2.780877
      px      :     0.979664
      py      :     0.930134
      dz2     :     0.019421  d :     0.077085
      dxz     :     0.011173
      dyz     :     0.019428
      dx2y2   :     0.011495
      dxy     :     0.015567
      f0      :     0.001122  f :     0.006969
      f+1     :     0.000773
      f-1     :     0.001338
      f+2     :     0.001091
      f-2     :     0.001160
      f+3     :     0.000772
      f-3     :     0.000713

  6 P s       :     5.758811  s :     5.758811
      pz      :     3.314599  p :     8.825536
      px      :     2.747598
      py      :     2.763339
      dz2     :     0.030716  d :     0.258387
      dxz     :     0.048953
      dyz     :     0.052309
      dx2y2   :     0.071145
      dxy     :     0.055265
      f0      :     0.002602  f :     0.025575
      f+1     :     0.003109
      f-1     :     0.003012
      f+2     :     0.005360
      f-2     :     0.003931
      f+3     :     0.003461
      f-3     :     0.004101

  7 C s       :     3.242036  s :     3.242036
      pz      :     0.921871  p :     2.782933
      px      :     0.922304
      py      :     0.938758
      dz2     :     0.018758  d :     0.077068
      dxz     :     0.016741
      dyz     :     0.007330
      dx2y2   :     0.019929
      dxy     :     0.014311
      f0      :     0.000667  f :     0.006953
      f+1     :     0.000801
      f-1     :     0.001351
      f+2     :     0.001068
      f-2     :     0.001193
      f+3     :     0.000774
      f-3     :     0.001100

  8 C s       :     3.201254  s :     3.201254
      pz      :     0.981017  p :     2.862952
      px      :     0.922830
      py      :     0.959104
      dz2     :     0.006126  d :     0.065017
      dxz     :     0.018416
      dyz     :     0.009976
      dx2y2   :     0.013566
      dxy     :     0.016933
      f0      :     0.000569  f :     0.006588
      f+1     :     0.001025
      f-1     :     0.000736
      f+2     :     0.000992
      f-2     :     0.000954
      f+3     :     0.000902
      f-3     :     0.001410

  9 C s       :     3.219817  s :     3.219817
      pz      :     0.938677  p :     2.883835
      px      :     0.971088
      py      :     0.974070
      dz2     :     0.015283  d :     0.062937
      dxz     :     0.011485
      dyz     :     0.008224
      dx2y2   :     0.009635
      dxy     :     0.018310
      f0      :     0.000740  f :     0.006515
      f+1     :     0.000849
      f-1     :     0.000972
      f+2     :     0.001140
      f-2     :     0.001032
      f+3     :     0.000650
      f-3     :     0.001131

 10 C s       :     3.131119  s :     3.131119
      pz      :     0.930976  p :     2.638694
      px      :     0.791496
      py      :     0.916222
      dz2     :     0.023834  d :     0.128130
      dxz     :     0.030232
      dyz     :     0.011132
      dx2y2   :     0.029617
      dxy     :     0.033314
      f0      :     0.000899  f :     0.009301
      f+1     :     0.001245
      f-1     :     0.001424
      f+2     :     0.001507
      f-2     :     0.001332
      f+3     :     0.001087
      f-3     :     0.001808

 11 C s       :     3.224370  s :     3.224370
      pz      :     0.995474  p :     2.895617
      px      :     0.940773
      py      :     0.959369
      dz2     :     0.006239  d :     0.062715
      dxz     :     0.017522
      dyz     :     0.008756
      dx2y2   :     0.011531
      dxy     :     0.018667
      f0      :     0.000609  f :     0.006474
      f+1     :     0.000959
      f-1     :     0.000774
      f+2     :     0.000919
      f-2     :     0.000984
      f+3     :     0.000833
      f-3     :     0.001397

 12 C s       :     3.188662  s :     3.188662
      pz      :     0.913170  p :     2.868569
      px      :     0.986827
      py      :     0.968572
      dz2     :     0.014427  d :     0.066304
      dxz     :     0.014826
      dyz     :     0.007322
      dx2y2   :     0.011122
      dxy     :     0.018608
      f0      :     0.000707  f :     0.006511
      f+1     :     0.000852
      f-1     :     0.000882
      f+2     :     0.001196
      f-2     :     0.001011
      f+3     :     0.000701
      f-3     :     0.001163

 13 Cls       :     5.887915  s :     5.887915
      pz      :     3.875696  p :    11.129755
      px      :     3.305078
      py      :     3.948981
      dz2     :     0.007480  d :     0.056273
      dxz     :     0.016749
      dyz     :     0.001387
      dx2y2   :     0.019926
      dxy     :     0.010731
      f0      :     0.000554  f :     0.005404
      f+1     :     0.000956
      f-1     :     0.000036
      f+2     :     0.001190
      f-2     :     0.000263
      f+3     :     0.001505
      f-3     :     0.000899

 14 C s       :     3.244246  s :     3.244246
      pz      :     0.895732  p :     2.780843
      px      :     0.927823
      py      :     0.957287
      dz2     :     0.020202  d :     0.077189
      dxz     :     0.013717
      dyz     :     0.013177
      dx2y2   :     0.014724
      dxy     :     0.015369
      f0      :     0.001179  f :     0.006963
      f+1     :     0.000776
      f-1     :     0.000960
      f+2     :     0.001170
      f-2     :     0.001025
      f+3     :     0.001029
      f-3     :     0.000822

 15 C s       :     3.201623  s :     3.201623
      pz      :     1.008430  p :     2.863589
      px      :     0.928312
      py      :     0.926847
      dz2     :     0.011879  d :     0.064763
      dxz     :     0.016024
      dyz     :     0.008203
      dx2y2   :     0.017620
      dxy     :     0.011036
      f0      :     0.000658  f :     0.006587
      f+1     :     0.000876
      f-1     :     0.000912
      f+2     :     0.001143
      f-2     :     0.000906
      f+3     :     0.001136
      f-3     :     0.000955

 16 C s       :     3.221671  s :     3.221671
      pz      :     0.910322  p :     2.882611
      px      :     1.014813
      py      :     0.957475
      dz2     :     0.020274  d :     0.062752
      dxz     :     0.011916
      dyz     :     0.009213
      dx2y2   :     0.010078
      dxy     :     0.011270
      f0      :     0.001051  f :     0.006518
      f+1     :     0.000812
      f-1     :     0.001158
      f+2     :     0.001263
      f-2     :     0.000976
      f+3     :     0.000490
      f-3     :     0.000769

 17 C s       :     3.130739  s :     3.130739
      pz      :     0.861335  p :     2.638498
      px      :     0.875047
      py      :     0.902116
      dz2     :     0.031268  d :     0.127931
      dxz     :     0.025250
      dyz     :     0.021893
      dx2y2   :     0.024025
      dxy     :     0.025496
      f0      :     0.001419  f :     0.009299
      f+1     :     0.000966
      f-1     :     0.001391
      f+2     :     0.001715
      f-2     :     0.001423
      f+3     :     0.001265
      f-3     :     0.001121

 18 C s       :     3.225874  s :     3.225874
      pz      :     1.019290  p :     2.896684
      px      :     0.912280
      py      :     0.965114
      dz2     :     0.012095  d :     0.062508
      dxz     :     0.012627
      dyz     :     0.008239
      dx2y2   :     0.017541
      dxy     :     0.012005
      f0      :     0.000599  f :     0.006476
      f+1     :     0.000860
      f-1     :     0.000928
      f+2     :     0.001062
      f-2     :     0.000920
      f+3     :     0.001077
      f-3     :     0.001029

 19 C s       :     3.187043  s :     3.187043
      pz      :     0.887027  p :     2.866549
      px      :     1.021070
      py      :     0.958453
      dz2     :     0.019295  d :     0.065834
      dxz     :     0.013057
      dyz     :     0.011309
      dx2y2   :     0.012500
      dxy     :     0.009673
      f0      :     0.001059  f :     0.006509
      f+1     :     0.000783
      f-1     :     0.001137
      f+2     :     0.001309
      f-2     :     0.000983
      f+3     :     0.000501
      f-3     :     0.000736

 20 Cls       :     5.887783  s :     5.887783
      pz      :     3.658726  p :    11.129921
      px      :     3.815658
      py      :     3.655537
      dz2     :     0.009492  d :     0.056279
      dxz     :     0.011940
      dyz     :     0.015810
      dx2y2   :     0.009522
      dxy     :     0.009515
      f0      :     0.000581  f :     0.005405
      f+1     :     0.000578
      f-1     :     0.000943
      f+2     :     0.000847
      f-2     :     0.001496
      f+3     :     0.000565
      f-3     :     0.000395

 21 Cls       :     5.888004  s :     5.888004
      pz      :     3.895623  p :    11.130058
      px      :     3.854230
      py      :     3.380205
      dz2     :     0.007032  d :     0.056247
      dxz     :     0.002423
      dyz     :     0.013454
      dx2y2   :     0.016168
      dxy     :     0.017171
      f0      :     0.000549  f :     0.005402
      f+1     :     0.000153
      f-1     :     0.000799
      f+2     :     0.000832
      f-2     :     0.000573
      f+3     :     0.001397
      f-3     :     0.001098

 22 H s       :     0.817916  s :     0.817916
      pz      :     0.011461  p :     0.020047
      px      :     0.005743
      py      :     0.002844

 23 H s       :     0.814926  s :     0.814926
      pz      :     0.006561  p :     0.020144
      px      :     0.003700
      py      :     0.009883

 24 H s       :     0.814460  s :     0.814460
      pz      :     0.011354  p :     0.020115
      px      :     0.005976
      py      :     0.002785

 25 H s       :     0.791650  s :     0.791650
      pz      :     0.006679  p :     0.020721
      px      :     0.003706
      py      :     0.010335

 26 H s       :     0.817708  s :     0.817708
      pz      :     0.007777  p :     0.020062
      px      :     0.003970
      py      :     0.008315

 27 H s       :     0.815083  s :     0.815083
      pz      :     0.004454  p :     0.020146
      px      :     0.007239
      py      :     0.008452

 28 H s       :     0.814515  s :     0.814515
      pz      :     0.007684  p :     0.020124
      px      :     0.004029
      py      :     0.008411

 29 H s       :     0.792299  s :     0.792299
      pz      :     0.004458  p :     0.020742
      px      :     0.007611
      py      :     0.008673

 30 H s       :     0.817976  s :     0.817976
      pz      :     0.010423  p :     0.020045
      px      :     0.005312
      py      :     0.004309

 31 H s       :     0.815102  s :     0.815102
      pz      :     0.003183  p :     0.020133
      px      :     0.012342
      py      :     0.004609

 32 H s       :     0.814744  s :     0.814744
      pz      :     0.010492  p :     0.020113
      px      :     0.005182
      py      :     0.004440

 33 H s       :     0.792272  s :     0.792272
      pz      :     0.003304  p :     0.020751
      px      :     0.012732
      py      :     0.004715



                     *******************************
                     * LOEWDIN POPULATION ANALYSIS *
                     *******************************

----------------------
LOEWDIN ATOMIC CHARGES
----------------------
   0 C :   -0.134119
   1 C :   -0.141931
   2 C :   -0.414833
   3 C :   -0.141345
   4 C :   -0.130648
   5 C :   -0.278707
   6 P :    0.703464
   7 C :   -0.278687
   8 C :   -0.134355
   9 C :   -0.141986
  10 C :   -0.414895
  11 C :   -0.141318
  12 C :   -0.130523
  13 Cl:    0.383509
  14 C :   -0.278574
  15 C :   -0.134251
  16 C :   -0.141981
  17 C :   -0.414905
  18 C :   -0.141334
  19 C :   -0.130655
  20 Cl:    0.383399
  21 Cl:    0.383478
  22 H :    0.154567
  23 H :    0.154176
  24 H :    0.154275
  25 H :    0.160706
  26 H :    0.154567
  27 H :    0.154194
  28 H :    0.154279
  29 H :    0.160680
  30 H :    0.154574
  31 H :    0.154204
  32 H :    0.154245
  33 H :    0.160731

-------------------------------
LOEWDIN REDUCED ORBITAL CHARGES
-------------------------------
  0 C s       :     2.776623  s :     2.776623
      pz      :     0.974935  p :     2.931656
      px      :     0.899324
      py      :     1.057396
      dz2     :     0.082816  d :     0.384971
      dxz     :     0.041997
      dyz     :     0.096683
      dx2y2   :     0.082226
      dxy     :     0.081248
      f0      :     0.003660  f :     0.040871
      f+1     :     0.002688
      f-1     :     0.010199
      f+2     :     0.005287
      f-2     :     0.007246
      f+3     :     0.004683
      f-3     :     0.007107

  1 C s       :     2.779080  s :     2.779080
      pz      :     0.997284  p :     2.952082
      px      :     0.928745
      py      :     1.026053
      dz2     :     0.075394  d :     0.370031
      dxz     :     0.051939
      dyz     :     0.126042
      dx2y2   :     0.064970
      dxy     :     0.051686
      f0      :     0.007450  f :     0.040738
      f+1     :     0.005668
      f-1     :     0.007453
      f+2     :     0.004745
      f-2     :     0.005479
      f+3     :     0.004350
      f-3     :     0.005593

  2 C s       :     2.792100  s :     2.792100
      pz      :     1.056529  p :     2.966060
      px      :     0.938038
      py      :     0.971493
      dz2     :     0.132119  d :     0.596453
      dxz     :     0.075233
      dyz     :     0.164520
      dx2y2   :     0.109401
      dxy     :     0.115180
      f0      :     0.008102  f :     0.060220
      f+1     :     0.005364
      f-1     :     0.014609
      f+2     :     0.006973
      f-2     :     0.010173
      f+3     :     0.006693
      f-3     :     0.008307

  3 C s       :     2.779219  s :     2.779219
      pz      :     0.975551  p :     2.950965
      px      :     0.919150
      py      :     1.056264
      dz2     :     0.074296  d :     0.370494
      dxz     :     0.041257
      dyz     :     0.099221
      dx2y2   :     0.077889
      dxy     :     0.077831
      f0      :     0.003558  f :     0.040666
      f+1     :     0.002739
      f-1     :     0.009834
      f+2     :     0.005421
      f-2     :     0.007308
      f+3     :     0.004736
      f-3     :     0.007071

  4 C s       :     2.775896  s :     2.775896
      pz      :     0.996863  p :     2.930273
      px      :     0.918166
      py      :     1.015244
      dz2     :     0.073661  d :     0.383689
      dxz     :     0.050732
      dyz     :     0.137737
      dx2y2   :     0.063743
      dxy     :     0.057814
      f0      :     0.007173  f :     0.040790
      f+1     :     0.005219
      f-1     :     0.007918
      f+2     :     0.004515
      f-2     :     0.005899
      f+3     :     0.004392
      f-3     :     0.005674

  5 C s       :     2.779212  s :     2.779212
      pz      :     1.042867  p :     3.000873
      px      :     0.921625
      py      :     1.036381
      dz2     :     0.109498  d :     0.453772
      dxz     :     0.067763
      dyz     :     0.143075
      dx2y2   :     0.066343
      dxy     :     0.067093
      f0      :     0.006754  f :     0.044850
      f+1     :     0.004992
      f-1     :     0.011301
      f+2     :     0.005911
      f-2     :     0.007666
      f+3     :     0.003757
      f-3     :     0.004471

  6 P s       :     4.929048  s :     4.929048
      pz      :     3.269825  p :     8.777317
      px      :     2.746545
      py      :     2.760946
      dz2     :     0.074842  d :     0.494421
      dxz     :     0.083999
      dyz     :     0.091137
      dx2y2   :     0.137079
      dxy     :     0.107364
      f0      :     0.008483  f :     0.095751
      f+1     :     0.009573
      f-1     :     0.011444
      f+2     :     0.019897
      f-2     :     0.015051
      f+3     :     0.016079
      f-3     :     0.015224

  7 C s       :     2.779206  s :     2.779206
      pz      :     0.964498  p :     3.000791
      px      :     1.033218
      py      :     1.003075
      dz2     :     0.070034  d :     0.453832
      dxz     :     0.098206
      dyz     :     0.071015
      dx2y2   :     0.124194
      dxy     :     0.090384
      f0      :     0.004644  f :     0.044858
      f+1     :     0.005449
      f-1     :     0.004716
      f+2     :     0.007347
      f-2     :     0.007381
      f+3     :     0.006146
      f-3     :     0.009176

  8 C s       :     2.776625  s :     2.776625
      pz      :     0.925806  p :     2.931851
      px      :     1.043723
      py      :     0.962323
      dz2     :     0.035958  d :     0.385007
      dxz     :     0.082598
      dyz     :     0.055247
      dx2y2   :     0.105139
      dxy     :     0.106064
      f0      :     0.003156  f :     0.040871
      f+1     :     0.006973
      f-1     :     0.002601
      f+2     :     0.006164
      f-2     :     0.005340
      f+3     :     0.006026
      f-3     :     0.010610

  9 C s       :     2.779054  s :     2.779054
      pz      :     0.949457  p :     2.952079
      px      :     1.036289
      py      :     0.966333
      dz2     :     0.058874  d :     0.370109
      dxz     :     0.082927
      dyz     :     0.043985
      dx2y2   :     0.070899
      dxy     :     0.113423
      f0      :     0.004790  f :     0.040744
      f+1     :     0.004671
      f-1     :     0.004543
      f+2     :     0.007387
      f-2     :     0.005429
      f+3     :     0.005380
      f-3     :     0.008544

 10 C s       :     2.792072  s :     2.792072
      pz      :     0.974740  p :     2.966122
      px      :     0.949017
      py      :     1.042365
      dz2     :     0.089961  d :     0.596480
      dxz     :     0.124736
      dyz     :     0.075572
      dx2y2   :     0.169871
      dxy     :     0.136341
      f0      :     0.005789  f :     0.060221
      f+1     :     0.008382
      f-1     :     0.005073
      f+2     :     0.009933
      f-2     :     0.008163
      f+3     :     0.008849
      f-3     :     0.014032

 11 C s       :     2.779239  s :     2.779239
      pz      :     0.934130  p :     2.950930
      px      :     1.049744
      py      :     0.967056
      dz2     :     0.034316  d :     0.370487
      dxz     :     0.080567
      dyz     :     0.051384
      dx2y2   :     0.095232
      dxy     :     0.108988
      f0      :     0.003339  f :     0.040662
      f+1     :     0.006652
      f-1     :     0.002705
      f+2     :     0.005792
      f-2     :     0.005590
      f+3     :     0.006224
      f-3     :     0.010361

 12 C s       :     2.775871  s :     2.775871
      pz      :     0.936398  p :     2.930174
      px      :     1.025380
      py      :     0.968396
      dz2     :     0.058386  d :     0.383681
      dxz     :     0.089523
      dyz     :     0.043040
      dx2y2   :     0.074774
      dxy     :     0.117958
      f0      :     0.004662  f :     0.040796
      f+1     :     0.004662
      f-1     :     0.004136
      f+2     :     0.007397
      f-2     :     0.005542
      f+3     :     0.005430
      f-3     :     0.008967

 13 Cls       :     5.551726  s :     5.551726
      pz      :     3.799374  p :    10.957548
      px      :     3.302900
      py      :     3.855274
      dz2     :     0.012536  d :     0.095958
      dxz     :     0.028414
      dyz     :     0.002392
      dx2y2   :     0.032098
      dxy     :     0.020519
      f0      :     0.001074  f :     0.011259
      f+1     :     0.002082
      f-1     :     0.000072
      f+2     :     0.002388
      f-2     :     0.000612
      f+3     :     0.002769
      f-3     :     0.002262

 14 C s       :     2.779227  s :     2.779227
      pz      :     1.029248  p :     3.000600
      px      :     1.027801
      py      :     0.943551
      dz2     :     0.100040  d :     0.453896
      dxz     :     0.119249
      dyz     :     0.078807
      dx2y2   :     0.075845
      dxy     :     0.079955
      f0      :     0.007794  f :     0.044851
      f+1     :     0.006406
      f-1     :     0.006814
      f+2     :     0.007767
      f-2     :     0.004545
      f+3     :     0.006073
      f-3     :     0.005452

 15 C s       :     2.776591  s :     2.776591
      pz      :     0.974951  p :     2.931859
      px      :     1.018266
      py      :     0.938642
      dz2     :     0.069710  d :     0.384932
      dxz     :     0.108529
      dyz     :     0.043664
      dx2y2   :     0.077182
      dxy     :     0.085846
      f0      :     0.004795  f :     0.040869
      f+1     :     0.005836
      f-1     :     0.005638
      f+2     :     0.007316
      f-2     :     0.005043
      f+3     :     0.005406
      f-3     :     0.006836

 16 C s       :     2.779087  s :     2.779087
      pz      :     1.013279  p :     2.952040
      px      :     0.982995
      py      :     0.955766
      dz2     :     0.106721  d :     0.370107
      dxz     :     0.075791
      dyz     :     0.074150
      dx2y2   :     0.060386
      dxy     :     0.053059
      f0      :     0.005852  f :     0.040747
      f+1     :     0.006741
      f-1     :     0.007309
      f+2     :     0.007511
      f-2     :     0.006065
      f+3     :     0.002929
      f-3     :     0.004341

 17 C s       :     2.792069  s :     2.792069
      pz      :     0.991233  p :     2.966185
      px      :     1.050291
      py      :     0.924660
      dz2     :     0.120176  d :     0.596435
      dxz     :     0.152618
      dyz     :     0.106796
      dx2y2   :     0.107169
      dxy     :     0.109676
      f0      :     0.009532  f :     0.060216
      f+1     :     0.008127
      f-1     :     0.008884
      f+2     :     0.011459
      f-2     :     0.007333
      f+3     :     0.007463
      f-3     :     0.007418

 18 C s       :     2.779242  s :     2.779242
      pz      :     0.979463  p :     2.950941
      px      :     1.014519
      py      :     0.956959
      dz2     :     0.068253  d :     0.370489
      dxz     :     0.097854
      dyz     :     0.044689
      dx2y2   :     0.077920
      dxy     :     0.081773
      f0      :     0.004600  f :     0.040662
      f+1     :     0.005707
      f-1     :     0.005565
      f+2     :     0.007078
      f-2     :     0.005013
      f+3     :     0.005607
      f-3     :     0.007093

 19 C s       :     2.775831  s :     2.775831
      pz      :     1.005002  p :     2.930372
      px      :     0.982588
      py      :     0.942782
      dz2     :     0.107704  d :     0.383657
      dxz     :     0.077546
      dyz     :     0.080805
      dx2y2   :     0.066902
      dxy     :     0.050700
      f0      :     0.005798  f :     0.040795
      f+1     :     0.006347
      f-1     :     0.007505
      f+2     :     0.007965
      f-2     :     0.005804
      f+3     :     0.003086
      f-3     :     0.004291

 20 Cls       :     5.551752  s :     5.551752
      pz      :     3.607133  p :    10.957630
      px      :     3.737375
      py      :     3.613121
      dz2     :     0.017490  d :     0.095960
      dxz     :     0.019392
      dyz     :     0.026300
      dx2y2   :     0.016059
      dxy     :     0.016720
      f0      :     0.001230  f :     0.011259
      f+1     :     0.001192
      f-1     :     0.002064
      f+2     :     0.001926
      f-2     :     0.002791
      f+3     :     0.001108
      f-3     :     0.000948

 21 Cls       :     5.551745  s :     5.551745
      pz      :     3.806434  p :    10.957589
      px      :     3.785378
      py      :     3.365776
      dz2     :     0.012020  d :     0.095933
      dxz     :     0.004601
      dyz     :     0.023751
      dx2y2   :     0.027426
      dxy     :     0.028135
      f0      :     0.001094  f :     0.011256
      f+1     :     0.000315
      f-1     :     0.001837
      f+2     :     0.001661
      f-2     :     0.001266
      f+3     :     0.002671
      f-3     :     0.002411

 22 H s       :     0.789152  s :     0.789152
      pz      :     0.029781  p :     0.056281
      px      :     0.016687
      py      :     0.009814

 23 H s       :     0.788755  s :     0.788755
      pz      :     0.018878  p :     0.057069
      px      :     0.011935
      py      :     0.026257

 24 H s       :     0.788677  s :     0.788677
      pz      :     0.029969  p :     0.057047
      px      :     0.017216
      py      :     0.009862

 25 H s       :     0.780809  s :     0.780809
      pz      :     0.019170  p :     0.058485
      px      :     0.011892
      py      :     0.027423

 26 H s       :     0.789141  s :     0.789141
      pz      :     0.021084  p :     0.056292
      px      :     0.012430
      py      :     0.022777

 27 H s       :     0.788757  s :     0.788757
      pz      :     0.013871  p :     0.057050
      px      :     0.020057
      py      :     0.023121

 28 H s       :     0.788676  s :     0.788676
      pz      :     0.021324  p :     0.057045
      px      :     0.012669
      py      :     0.023051

 29 H s       :     0.780868  s :     0.780868
      pz      :     0.013842  p :     0.058452
      px      :     0.021109
      py      :     0.023502

 30 H s       :     0.789136  s :     0.789136
      pz      :     0.027286  p :     0.056290
      px      :     0.015767
      py      :     0.013237

 31 H s       :     0.788732  s :     0.788732
      pz      :     0.010877  p :     0.057064
      px      :     0.032181
      py      :     0.014007

 32 H s       :     0.788700  s :     0.788700
      pz      :     0.027802  p :     0.057054
      px      :     0.015659
      py      :     0.013594

 33 H s       :     0.780763  s :     0.780763
      pz      :     0.010986  p :     0.058506
      px      :     0.033123
      py      :     0.014396



                      *****************************
                      * MAYER POPULATION ANALYSIS *
                      *****************************

  NA   - Mulliken gross atomic population
  ZA   - Total nuclear charge
  QA   - Mulliken gross atomic charge
  VA   - Mayer's total valence
  BVA  - Mayer's bonded valence
  FA   - Mayer's free valence

  ATOM       NA         ZA         QA         VA         BVA        FA
  0 C      6.1344     6.0000    -0.1344     3.9245     3.9245    -0.0000
  1 C      6.1720     6.0000    -0.1720     3.9579     3.9579    -0.0000
  2 C      5.9085     6.0000     0.0915     3.9301     3.9301    -0.0000
  3 C      6.1890     6.0000    -0.1890     3.9939     3.9939    -0.0000
  4 C      6.1286     6.0000    -0.1286     3.8196     3.8196    -0.0000
  5 C      6.1112     6.0000    -0.1112     3.8449     3.8449    -0.0000
  6 P     14.8683    15.0000     0.1317     3.0749     3.0749    -0.0000
  7 C      6.1090     6.0000    -0.1090     3.8467     3.8467    -0.0000
  8 C      6.1358     6.0000    -0.1358     3.9223     3.9223    -0.0000
  9 C      6.1731     6.0000    -0.1731     3.9557     3.9557    -0.0000
 10 C      5.9072     6.0000     0.0928     3.9300     3.9300    -0.0000
 11 C      6.1892     6.0000    -0.1892     3.9923     3.9923    -0.0000
 12 C      6.1300     6.0000    -0.1300     3.8233     3.8233    -0.0000
 13 Cl    17.0793    17.0000    -0.0793     1.2185     1.2185    -0.0000
 14 C      6.1092     6.0000    -0.1092     3.8452     3.8452    -0.0000
 15 C      6.1366     6.0000    -0.1366     3.9226     3.9226     0.0000
 16 C      6.1736     6.0000    -0.1736     3.9560     3.9560     0.0000
 17 C      5.9065     6.0000     0.0935     3.9286     3.9286    -0.0000
 18 C      6.1915     6.0000    -0.1915     3.9949     3.9949    -0.0000
 19 C      6.1259     6.0000    -0.1259     3.8197     3.8197    -0.0000
 20 Cl    17.0794    17.0000    -0.0794     1.2183     1.2183    -0.0000
 21 Cl    17.0797    17.0000    -0.0797     1.2177     1.2177    -0.0000
 22 H      0.8380     1.0000     0.1620     0.9666     0.9666     0.0000
 23 H      0.8351     1.0000     0.1649     0.9683     0.9683    -0.0000
 24 H      0.8346     1.0000     0.1654     0.9696     0.9696    -0.0000
 25 H      0.8124     1.0000     0.1876     0.9491     0.9491    -0.0000
 26 H      0.8378     1.0000     0.1622     0.9665     0.9665    -0.0000
 27 H      0.8352     1.0000     0.1648     0.9683     0.9683    -0.0000
 28 H      0.8346     1.0000     0.1654     0.9694     0.9694    -0.0000
 29 H      0.8130     1.0000     0.1870     0.9493     0.9493    -0.0000
 30 H      0.8380     1.0000     0.1620     0.9665     0.9665     0.0000
 31 H      0.8352     1.0000     0.1648     0.9683     0.9683    -0.0000
 32 H      0.8349     1.0000     0.1651     0.9697     0.9697    -0.0000
 33 H      0.8130     1.0000     0.1870     0.9496     0.9496     0.0000

  Mayer bond orders larger than 0.100000
B(  0-C ,  1-C ) :   1.4549 B(  0-C ,  5-C ) :   1.3980 B(  0-C , 22-H ) :   0.9326 
B(  1-C ,  2-C ) :   1.3866 B(  1-C , 23-H ) :   0.9317 B(  2-C ,  3-C ) :   1.3987 
B(  2-C , 21-Cl) :   1.0364 B(  3-C ,  4-C ) :   1.4624 B(  3-C , 24-H ) :   0.9260 
B(  4-C ,  5-C ) :   1.3306 B(  4-C , 25-H ) :   0.9249 B(  5-C ,  6-P ) :   0.9316 
B(  6-P ,  7-C ) :   0.9315 B(  6-P , 14-C ) :   0.9313 B(  7-C ,  8-C ) :   1.3970 
B(  7-C , 12-C ) :   1.3336 B(  8-C ,  9-C ) :   1.4533 B(  8-C , 26-H ) :   0.9331 
B(  9-C , 10-C ) :   1.3860 B(  9-C , 27-H ) :   0.9323 B( 10-C , 11-C ) :   1.3976 
B( 10-C , 13-Cl) :   1.0383 B( 11-C , 12-C ) :   1.4622 B( 11-C , 28-H ) :   0.9261 
B( 12-C , 29-H ) :   0.9253 B( 14-C , 15-C ) :   1.3963 B( 14-C , 19-C ) :   1.3323 
B( 15-C , 16-C ) :   1.4546 B( 15-C , 30-H ) :   0.9329 B( 16-C , 17-C ) :   1.3842 
B( 16-C , 31-H ) :   0.9324 B( 17-C , 18-C ) :   1.3997 B( 17-C , 20-Cl) :   1.0378 
B( 18-C , 19-C ) :   1.4616 B( 18-C , 32-H ) :   0.9261 B( 19-C , 33-H ) :   0.9252 


-------
TIMINGS
-------

Total SCF time: 0 days 0 hours 2 min 16 sec 

Total time                  ....     136.192 sec
Sum of individual times     ....     136.268 sec  (100.1%)

SCF preparation             ....       0.281 sec  (  0.2%)
Fock matrix formation       ....     131.681 sec  ( 96.7%)
  Startup                   ....       0.137 sec  (  0.1% of F)
  Split-RI-J                ....       9.058 sec  (  6.9% of F)
  Chain of spheres X        ....      97.098 sec  ( 73.7% of F)
  XC integration            ....      25.018 sec  ( 19.0% of F)
    Basis function eval.    ....       3.679 sec  ( 14.7% of XC)
    Density eval.           ....      10.485 sec  ( 41.9% of XC)
    XC-Functional eval.     ....       0.445 sec  (  1.8% of XC)
    XC-Potential eval.      ....       9.363 sec  ( 37.4% of XC)
Diagonalization             ....       0.000 sec  (  0.0%)
Density matrix formation    ....       0.386 sec  (  0.3%)
Total Energy calculation    ....       0.134 sec  (  0.1%)
Population analysis         ....       0.236 sec  (  0.2%)
Orbital Transformation      ....       0.557 sec  (  0.4%)
Orbital Orthonormalization  ....       0.000 sec  (  0.0%)
DIIS solution               ....       1.815 sec  (  1.3%)
SOSCF solution              ....       1.178 sec  (  0.9%)
Finished LeanSCF after 136.2 sec

Maximum memory used throughout the entire LEANSCF-calculation: 107.6 MB


-------------------------------------------------------------------------------
                          DFT DISPERSION CORRECTION                            
                                                                               
                              DFTD3 V3.1  Rev 1                                
                              USING zero damping                               
-------------------------------------------------------------------------------
The M062X functional is recognized
Active option DFTDOPT                   ...         3   

molecular C6(AA) [au] = 23079.734325 


            DFT-D V3
 parameters
 s6 scaling factor         :     1.0000 
 rs6 scaling factor        :     1.6190 
 s8 scaling factor         :     0.0000 
 rs8 scaling factor        :     1.0000 
 Damping factor alpha6     :    14.0000 
 Damping factor alpha8     :    16.0000 
 ad hoc parameters k1-k3   :    16.0000     1.3333    -4.0000 

 Edisp/kcal,au: -1.478007987162  -0.002355355402 
 E6   /kcal   :  -1.478007987 
 E8   /kcal   :  -0.000000000 
 % E8         :   0.000000000 

-------------------------   ----------------
Dispersion correction           -0.002355355
-------------------------   ----------------


-------------------------   --------------------
FINAL SINGLE POINT ENERGY     -2415.053920135283
-------------------------   --------------------



           ************************************************************
           *        Program running with 6 parallel MPI-processes     *
           *              working on a common directory               *
           ************************************************************

------------------------------------------------------------------------------
                              ORCA PROPERTY CALCULATIONS
------------------------------------------------------------------------------

GBWName                                 ... data/single_point_P_M06-2x/70874/70874.gbw
Number of atoms                         ...     34
Number of basis functions               ...    778
Max core memory                         ...   1024 MB

Electric properties:
Dipole moment                           ... YES
Quadrupole moment                       ...  NO
Static polarizability (Dipole/Dipole)   ...  NO
Static polarizability (Dipole/Quad.)    ...  NO
Static polarizability (Quad./Quad.)     ...  NO
Static polarizability (Velocity)        ...  NO

Atomic electric properties:
Dipole moment                           ...  NO
Quadrupole moment                       ...  NO
Static polarizability                   ...  NO

Choice of electric origin               ... Center of mass
Position of electric origin             ...     0.051525    -0.075025     0.344749

General magnetic properties:
Magnetizability                         ...  NO

EPR properties:
g-Tensor (aka g-matrix)                 ...  NO
Zero-Field splitting spin-orbit         ...  NO
Zero-field splitting spin-spin          ...  NO
Hyperfine couplings                     ...  NO (   0 nuclei)
Quadrupole couplings                    ...  NO (   0 nuclei)
Contact density                         ...  NO (   0 nuclei)

NMR properties:
Chemical shifts                         ...  NO (   0 nuclei)
Spin-rotation constants                 ...  NO (   0 nuclei)
Spin-spin couplings                     ...  NO (   0 nuclei,    0 pairs)

Choice of magnetic origin               ... GIAO
Position of magnetic origin             ...     0.000000     0.000000     0.000000

Properties with geometric perturbations:
SCF Hessian                             ...  NO
IR spectrum                             ...  NO
VCD spectrum                            ...  NO
X-ray spectroscopy properties:
SCF XES/XAS/RIXS spectra                ...  NO


-------------
DIPOLE MOMENT
-------------

Method             : SCF
Type of density    : Electron Density
Multiplicity       :   1
Irrep              :   0
Energy             : -2415.0515647798811187 Eh
Relativity type    : 
Basis              : AO
                                X                 Y                 Z
Electronic contribution:      0.788239214      -1.150217371       5.266701973
Nuclear contribution   :     -0.824731804       1.201509707      -5.518903439
                        -----------------------------------------
Total Dipole Moment    :     -0.036492590       0.051292336      -0.252201466
                        -----------------------------------------
Magnitude (a.u.)       :      0.259938824
Magnitude (Debye)      :      0.660711983



--------------------
Rotational spectrum 
--------------------
 
Rotational constants in cm-1:             0.005077             0.005065             0.002877 
Rotational constants in MHz :           152.193146           151.857001            86.241645 

Dipole components along the rotational axes: 
x,y,z [a.u.] :    -0.003324    -0.002777    -0.259903 
x,y,z [Debye]:    -0.008449    -0.007060    -0.660620 

 

Dipole moment calculation done in   0.0 sec 

Maximum memory used throughout the entire PROP-calculation: 59.1 MB

--------------------------------
SUGGESTED CITATIONS FOR THIS RUN
--------------------------------

Below you find a list of papers that are relevant to this ORCA run
We neither can nor want to force you to cite these papers, but we appreciate if you do
You receive ORCA, which is the product of decades of hard work by many enthusiastic individuals, for free
The only thing we kindly ask in return is that you cite our papers,
We deeply appreciate it, if you show your appreciation for ORCA by not just citing the generic ORCA reference.

Please note that relegating all ORCA citations to the supporting information does *not* help us.
SI sections are not indexed - citations you put there will not count into any citation statistics
But we need these citations in order to attract the funding resources that allow us to do what we are doing

Therefore, if you are a happy ORCA user, please consider citing a few of the papers listed below in the main body of your paper

In addition to the list printed below, the program has created the file data/single_point_P_M06-2x/70874/70874.bibtex that contains the list in bibtex format
You can import this file easily into all common literature databanks and citation aid programs


List of essential papers. We consider these as the minimum necessary citations

  1. Neese,F.
     Software update: the ORCA program system, version 5.0
     WIRES Comput. Molec. Sci., 2022 12(1)e1606
     doi.org/10.1002/wcms.1606

List of papers to cite with high priority. The work reported in these papers was absolutely
necessary for this run to complete.
Our perspective: the developers of density functionals and basis sets usually get cited in chemistry papers
Good! But without the algorithms to do something with them, the functionals or basis sets would not do anything.
Hence, in our opinion, the algorithm design and method developments papers are equally worthy of getting cited

  1. Neese,F.
     An improvement of the resolution of the identity approximation for the formation of the Coulomb matrix
     J. Comp. Chem., 2003 24(14)1740-1747
     doi.org/10.1002/jcc.10318
  2. Neese,F.; Wennmohs,F.; Hansen,A.; Becker,U.
     Efficient, approximate and parallel Hartree-Fock and hybrid DFT calculations. A 'chain-of-spheres' algorithm for the Hartree-Fock exchange
     Chem. Phys., 2009 356(1-3)98-109
     doi.org/10.1016/j.chemphys.2008.10.036
  3. Helmich-Paris,B.; de Souza,B.; Neese,F.; Izsák,R.
     An improved chain of spheres for exchange algorithm
     J. Chem. Phys., 2021 155 104109
     doi.org/doi: 10.1063/5.0058766.
  4. Neese,F.
     The SHARK Integral Generation and Digestion System
     J. Comp. Chem., 2022  1-16
     doi.org/10.1002/jcc.26942
  5. Grimme,S.; Antony,J.; Ehrlich,S.; Krieg,H.
     A consistent and accurate ab initio parametrization of density functional dispersion correction (DFT-D) for the 94 elements H-Pu
     J. Chem. Phys., 2010 132 154104-XXXX
     doi.org/10.1063/1.3382344

List of suggested additional citations. These are papers that are important in the 'surrounding' of 
of this run, or papers that preceded the highly important papers. If you like your results we are grateful for a citation.

  1. Izsak,R.; Neese,F.
     An overlap fitted chain of spheres exchange method
     J. Chem. Phys., 2011 135 144105
     doi.org/10.1063/1.3646921
  2. Izsak,R.; Hansen,A.; Neese,F.
     The resolution of identity and chain of spheres approximations for the LPNO-CCSD singles Fock term
     Molec. Phys., 2012 110 2413-2417
     doi.org/10.1080/00268976.2012.687466
  3. Neese,F.
     The ORCA program system
     WIRES Comput. Molec. Sci., 2012 2(1)73-78
     doi.org/10.1002/wcms.81
  4. Izsak,R.; Neese,F.; Klopper,W.
     Robust fitting techniques in the chain of spheres approximation to the Fock exchange: The role of the complementary space
     J. Chem. Phys., 2013 139 
     doi.org/10.1063/1.4819264
  5. Neese,F.
     Software update: the ORCA program system, version 4.0
     WIRES Comput. Molec. Sci., 2018 8(1)1-6
     doi.org/10.1002/wcms.1327
  6. Neese,F.; Wennmohs,F.; Becker,U.; Riplinger,C.
     The ORCA quantum chemistry program package
     J. Chem. Phys., 2020 152 Art. No. L224108
     doi.org/10.1063/5.0004608

List of optional additional citations

  1. Neese,F.
     Approximate second-order SCF convergence for spin unrestricted wavefunctions
     Chem. Phys. Lett., 2000 325(1-3)93-98
     doi.org/10.1016/s0009-2614(00)00662-x

Timings for individual modules:

Sum of individual times          ...      142.645 sec (=   2.377 min)
Startup calculation              ...        4.075 sec (=   0.068 min)   2.9 %
SCF iterations                   ...      138.262 sec (=   2.304 min)  96.9 %
Property calculations            ...        0.308 sec (=   0.005 min)   0.2 %
                             ****ORCA TERMINATED NORMALLY****
TOTAL RUN TIME: 0 days 0 hours 2 minutes 22 seconds 899 msec
