
                                 *****************
                                 * O   R   C   A *
                                 *****************

                                            #,                                       
                                            ###                                      
                                            ####                                     
                                            #####                                    
                                            ######                                   
                                           ########,                                 
                                     ,,################,,,,,                         
                               ,,#################################,,                 
                          ,,##########################################,,             
                       ,#########################################, ''#####,          
                    ,#############################################,,   '####,        
                  ,##################################################,,,,####,       
                ,###########''''           ''''###############################       
              ,#####''   ,,,,##########,,,,          '''####'''          '####       
            ,##' ,,,,###########################,,,                        '##       
           ' ,,###''''                  '''############,,,                           
         ,,##''                                '''############,,,,        ,,,,,,###''
      ,#''                                            '''#######################'''  
     '                                                          ''''####''''         
             ,#######,   #######,   ,#######,      ##                                
            ,#'     '#,  ##    ##  ,#'     '#,    #''#        ,####,   ,####,        
            ##       ##  ##   ,#'  ##            #'  '#       #'       #'  '#        
            ##       ##  #######   ##           ,######,      #####,   #    #        
            '#,     ,#'  ##    ##  '#,     ,#' ,#      #,     #,   #   #,  ,#        
             '#######'   ##     ##  '#######'  #'      '#     '####' # '####'        



                #########################################################
                #                        -***-                          #
                #          Department of theory and spectroscopy        #
                #                                                       #
                #                      Frank Neese                      #
                #                                                       #
                #     Directorship, Architecture, Infrastructure        #
                #                    SHARK, DRIVERS                     #
                #        Core code/Algorithms in most modules           #
                #                                                       #
                #        Max Planck Institute fuer Kohlenforschung      #
                #                Kaiser Wilhelm Platz 1                 #
                #                 D-45470 Muelheim/Ruhr                 #
                #                      Germany                          #
                #                                                       #
                #                  All rights reserved                  #
                #                        -***-                          #
                #########################################################


                         Program Version 6.0.0  -   RELEASE   -


 With contributions from (in alphabetic order):
   Daniel Aravena         : Magnetic Suceptibility
   Michael Atanasov       : Ab Initio Ligand Field Theory (pilot matlab implementation)
   Alexander A. Auer      : GIAO ZORA, VPT2 properties, NMR spectrum
   Ute Becker             : All parallelization in ORCA, NUMFREQ, NUMCALC
   Giovanni Bistoni       : ED, misc. LED, open-shell LED, HFLD
   Martin Brehm           : Molecular dynamics
   Dmytro Bykov           : pre 5.0 version of the SCF Hessian
   Marcos Casanova-Páez   : Triplet and SCS-CIS(D). UHF-(DLPNO)-IP/EA/STEOM-CCSD. UHF-CVS-IP/STEOM-CCSD
   Vijay G. Chilkuri      : MRCI spin determinant printing, contributions to CSF-ICE
   Pauline Colinet        : FMM embedding
   Dipayan Datta          : RHF DLPNO-CCSD density
   Achintya Kumar Dutta   : EOM-CC, STEOM-CC
   Nicolas Foglia         : Exact transition moments, OPA infrastructure, MCD improvements
   Dmitry Ganyushin       : Spin-Orbit,Spin-Spin,Magnetic field MRCI
   Miquel Garcia          : C-PCM and meta-GGA Hessian, CCSD/C-PCM, Gaussian charge scheme
   Tiago L. C. Gouveia    : GS-ROHF, GS-ROCIS
   Yang Guo               : DLPNO-NEVPT2, F12-NEVPT2, CIM, IAO-localization
   Andreas Hansen         : Spin unrestricted coupled pair/coupled cluster methods
   Ingolf Harden          : AUTO-CI MPn and infrastructure 
   Benjamin Helmich-Paris : MC-RPA, TRAH-(SCF,CASSCF), AVAS, COSX integrals, SCF dyn. polar.
   Lee Huntington         : MR-EOM, pCC
   Robert Izsak           : Overlap fitted RIJCOSX, COSX-SCS-MP3, EOM
   Riya Kayal             : Wick's Theorem for AUTO-CI, AUTO-CI UHF-CCSDT
   Emily Kempfer          : AUTO-CI, RHF CISDT and CCSDT
   Christian Kollmar      : KDIIS, OOCD, Brueckner-CCSD(T), CCSD density, CASPT2, CASPT2-K, improved NEVPT2
   Axel Koslowski         : Symmetry handling
   Simone Kossmann        : Meta GGA functionals, TD-DFT gradient, OOMP2, (MP2 Hessian; deprecated post 5.0)
   Lucas Lang             : DCDCAS
   Marvin Lechner         : AUTO-CI (C++ implementation), FIC-MRCC
   Spencer Leger          : CASSCF response
   Dagmar Lenk            : GEPOL surface, SMD, ORCA-2-JSON
   Dimitrios Liakos       : Extrapolation schemes; Compound Job, initial MDCI parallelization
   Dimitrios Manganas     : Further ROCIS development; embedding schemes. LFT, Crystal Embedding
   Dimitrios Pantazis     : SARC Basis sets
   Anastasios Papadopoulos: AUTO-CI, single reference methods and gradients
   Taras Petrenko         : pre 6.0 DFT Hessian and TD-DFT gradient, (ASA, deprecated), ECA, 1-Electron XAS/XES, NRVS
   Peter Pinski           : DLPNO-MP2, DLPNO-MP2 Gradient
   Christoph Reimann      : Effective Core Potentials
   Marius Retegan         : Local ZFS, SOC
   Christoph Riplinger    : Optimizer, TS searches, QM/MM, DLPNO-CCSD(T), (RO)-DLPNO pert. Triples
   Michael Roemelt        : Original ROCIS implementation
   Masaaki Saitow         : Open-shell DLPNO-CCSD energy and density
   Barbara Sandhoefer     : DKH picture change effects
   Kantharuban Sivalingam : CASSCF convergence/infrastructure, NEVPT2 and variants, FIC-MRCI
   Bernardo de Souza      : ESD, SOC TD-DFT
   Georgi Stoychev        : AutoAux, RI-MP2 NMR, DLPNO-MP2 response, X2C
   Van Anh Tran           : RI-MP2 g-tensors
   Willem Van den Heuvel  : Paramagnetic NMR
   Zikuan Wang            : NOTCH, Electric field optimization 
   Frank Wennmohs         : Technical directorship and infrastructure
   Hang Xu                : AUTO-CI-Response properties 


 We gratefully acknowledge several colleagues who have allowed us to
 interface, adapt or use parts of their codes:
   Stefan Grimme, W. Hujo, H. Kruse, P. Pracht,  : VdW corrections, initial TS optimization,
                  C. Bannwarth, S. Ehlert,         DFT functionals, gCP, sTDA/sTD-DF
                  L. Wittmann, M. Mueller
   Ed Valeev, F. Pavosevic, A. Kumar             : LibInt (2-el integral package), F12 methods
   Garnet Chan, S. Sharma, J. Yang, R. Olivares  : DMRG
   Ulf Ekstrom                                   : XCFun DFT Library
   Mihaly Kallay                                 : mrcc  (arbitrary order and MRCC methods)
   Frank Weinhold                                : gennbo (NPA and NBO analysis)
   Simon Mueller                                 : openCOSMO-RS
   Christopher J. Cramer and Donald G. Truhlar   : smd solvation model
   Lars Goerigk                                  : TD-DFT with DH, B97 family of functionals
   V. Asgeirsson, H. Jonsson                     : NEB implementation
   FAccTs GmbH                                   : IRC, NEB, NEB-TS, DLPNO-Multilevel, CI-OPT
                                                   MM, QMMM, 2- and 3-layer-ONIOM, Crystal-QMMM,
                                                   LR-CPCM, SF, NACMEs, symmetry and pop. for TD-DFT,
                                                   nearIR, NL-DFT gradient (VV10), updates on ESD,
                                                   ML-optimized integration grids, MBIS, APM,
                                                   GOAT, DOCKER, SOLVATOR, interface openCOSMO-RS
   S Lehtola, MJT Oliveira, MAL Marques          : LibXC Library
   Liviu Ungur et al                             : ANISO software


 Your calculation uses the libint2 library for the computation of 2-el integrals
 For citations please refer to: http://libint.valeyev.net

 Your ORCA version has been built with support for libXC version: 6.2.2
 For citations please refer to: https://libxc.gitlab.io

 This ORCA versions uses:
   CBLAS   interface :  Fast vector & matrix operations
   LAPACKE interface :  Fast linear algebra routines
   Shared memory     :  Shared parallel matrices


Your calculation utilizes the atom-pairwise dispersion correction
with the Becke-Johnson damping scheme (D3BJ)


Warning: RI is on but no J-basis has been assigned. Assigning Def2/J (nothing to worry about!)
================================================================================

----- Orbital basis set information -----
Your calculation utilizes the basis: def2-SVP
   F. Weigend and R. Ahlrichs, Phys. Chem. Chem. Phys. 7, 3297 (2005).

----- AuxJ basis set information -----
Your calculation utilizes the auxiliary basis: def2/J
   F. Weigend, Phys. Chem. Chem. Phys. 8, 1057 (2006).

================================================================================
                                        WARNINGS
                       Please study these warnings very carefully!
================================================================================


WARNING: Geometry Optimization
  ===> : Switching off AutoStart
         For restart on a previous wavefunction, please use MOREAD

================================================================================
                                       INPUT FILE
================================================================================
NAME = data/geom_opt/27365/27365.inp
|  1> ! RIJONX B3LYP def2-SVP D3BJ TIGHTSCF Opt
|  2> %pal
|  3> nprocs 6
|  4> end
|  5> 
|  6> * xyz 0 1
|  7> C     -1.896337   -2.046541    0.116894
|  8> C     -1.398604   -0.740020   -0.479288
|  9> P     -0.158618    0.103895    0.603008
| 10> C      1.328222   -0.945779    0.273437
| 11> C      2.561074   -0.456096    1.015362
| 12> C      0.241938    1.573428   -0.446349
| 13> C     -0.853679    2.626396   -0.413962
| 14> H     -1.090106   -2.779478    0.222400
| 15> H     -2.660416   -2.486833   -0.532338
| 16> H     -2.344898   -1.892386    1.104428
| 17> H     -2.257379   -0.074590   -0.615819
| 18> H     -0.972063   -0.925916   -1.470817
| 19> H      1.115181   -1.969655    0.597820
| 20> H      1.535201   -0.983033   -0.801456
| 21> H      3.402634   -1.131537    0.828996
| 22> H      2.862093    0.544601    0.689282
| 23> H      2.392079   -0.422897    2.097273
| 24> H      1.167248    2.027837   -0.077231
| 25> H      0.424031    1.262348   -1.480609
| 26> H     -1.793718    2.249111   -0.829076
| 27> H     -0.554787    3.495603   -1.009207
| 28> H     -1.049097    2.971544    0.607252
| 29> **                         ****END OF INPUT****
================================================================================

                       *****************************
                       * Geometry Optimization Run *
                       *****************************

Geometry optimization settings:
Update method            Update   .... BFGS
Choice of coordinates    CoordSys .... (2022) Redundant Internals
Initial Hessian          InHess   .... Almloef's Model
Max. no of cycles        MaxIter  .... 66

Convergence Tolerances:
Energy Change            TolE     ....  5.0000e-06 Eh
Max. Gradient            TolMAXG  ....  3.0000e-04 Eh/bohr
RMS Gradient             TolRMSG  ....  1.0000e-04 Eh/bohr
Max. Displacement        TolMAXD  ....  4.0000e-03 bohr
RMS Displacement         TolRMSD  ....  2.0000e-03 bohr
Strict Convergence                .... False

------------------------------------------------------------------------------
                        ORCA OPTIMIZATION COORDINATE SETUP
------------------------------------------------------------------------------

The optimization will be done in redundant internal coordinates (2022)
Making redundant internal coordinates   ...  (2022 redundants) done
Evaluating the initial hessian          ...  (Almloef) done
Evaluating the coordinates              ...  done
Calculating the B-matrix                .... done
Calculating the G-matrix                .... done
Diagonalizing the G-matrix              .... done
Small eigenvalue found = 2.068e-02
Small eigenvalue found = 2.176e-02
The first mode is                       ....   33
The number of degrees of freedom        ....   60

    -----------------------------------------------------------------
                    Redundant Internal Coordinates


    -----------------------------------------------------------------
         Definition                    Initial Value    Approx d2E/dq
    -----------------------------------------------------------------
      1. B(C   1,C   0)                  1.5199         0.387662   
      2. B(P   2,C   1)                  1.8496         0.388084   
      3. B(C   3,P   2)                  1.8496         0.388083   
      4. B(C   4,C   3)                  1.5199         0.387663   
      5. B(C   5,P   2)                  1.8496         0.388084   
      6. B(C   6,C   5)                  1.5199         0.387663   
      7. B(H   7,C   0)                  1.0947         0.353955   
      8. B(H   8,C   0)                  1.0951         0.353457   
      9. B(H   9,C   0)                  1.0955         0.352853   
     10. B(H  10,C   1)                  1.0950         0.353601   
     11. B(H  11,C   1)                  1.0953         0.353191   
     12. B(H  12,C   3)                  1.0950         0.353601   
     13. B(H  13,C   3)                  1.0953         0.353192   
     14. B(H  14,C   4)                  1.0951         0.353456   
     15. B(H  15,C   4)                  1.0947         0.353955   
     16. B(H  16,C   4)                  1.0955         0.352854   
     17. B(H  17,C   5)                  1.0950         0.353600   
     18. B(H  18,C   5)                  1.0953         0.353192   
     19. B(H  19,C   6)                  1.0947         0.353954   
     20. B(H  20,C   6)                  1.0951         0.353458   
     21. B(H  21,C   6)                  1.0955         0.352854   
     22. A(H   7,C   0,H   8)          107.5673         0.289209   
     23. A(H   8,C   0,H   9)          107.7768         0.289068   
     24. A(C   1,C   0,H   8)          109.9719         0.325301   
     25. A(C   1,C   0,H   9)          111.5124         0.325209   
     26. A(C   1,C   0,H   7)          111.8488         0.325376   
     27. A(H   7,C   0,H   9)          107.9922         0.289132   
     28. A(P   2,C   1,H  10)          108.7521         0.345464   
     29. A(C   0,C   1,H  10)          108.3287         0.325322   
     30. A(H  10,C   1,H  11)          107.1996         0.289130   
     31. A(C   0,C   1,P   2)          112.4712         0.391765   
     32. A(P   2,C   1,H  11)          110.2477         0.345397   
     33. A(C   0,C   1,H  11)          109.6775         0.325260   
     34. A(C   1,P   2,C   5)          100.1201         0.417570   
     35. A(C   1,P   2,C   3)          100.1201         0.417570   
     36. A(C   3,P   2,C   5)          100.1201         0.417570   
     37. A(P   2,C   3,C   4)          112.4712         0.391765   
     38. A(H  12,C   3,H  13)          107.1996         0.289130   
     39. A(C   4,C   3,H  13)          109.6775         0.325261   
     40. A(P   2,C   3,H  13)          110.2477         0.345397   
     41. A(C   4,C   3,H  12)          108.3287         0.325323   
     42. A(P   2,C   3,H  12)          108.7521         0.345464   
     43. A(H  15,C   4,H  16)          107.9922         0.289132   
     44. A(C   3,C   4,H  16)          111.5125         0.325210   
     45. A(H  14,C   4,H  15)          107.5673         0.289209   
     46. A(C   3,C   4,H  15)          111.8487         0.325376   
     47. A(H  14,C   4,H  16)          107.7768         0.289068   
     48. A(C   3,C   4,H  14)          109.9719         0.325301   
     49. A(P   2,C   5,H  18)          110.2477         0.345397   
     50. A(C   6,C   5,H  17)          108.3286         0.325322   
     51. A(P   2,C   5,H  17)          108.7521         0.345464   
     52. A(P   2,C   5,C   6)          112.4712         0.391765   
     53. A(H  17,C   5,H  18)          107.1996         0.289130   
     54. A(C   6,C   5,H  18)          109.6775         0.325261   
     55. A(H  19,C   6,H  21)          107.9922         0.289132   
     56. A(C   5,C   6,H  21)          111.5124         0.325209   
     57. A(H  19,C   6,H  20)          107.5673         0.289209   
     58. A(C   5,C   6,H  20)          109.9719         0.325301   
     59. A(H  20,C   6,H  21)          107.7769         0.289068   
     60. A(C   5,C   6,H  19)          111.8487         0.325376   
     61. D(H  10,C   1,C   0,H   9)    -62.3704         0.011954   
     62. D(P   2,C   1,C   0,H   8)    177.3611         0.011954   
     63. D(P   2,C   1,C   0,H   7)    -63.1862         0.011954   
     64. D(P   2,C   1,C   0,H   9)     57.8617         0.011954   
     65. D(H  10,C   1,C   0,H   8)     57.1290         0.011954   
     66. D(H  10,C   1,C   0,H   7)    176.5817         0.011954   
     67. D(C   3,P   2,C   1,C   0)     75.8845         0.003535   
     68. D(C   5,P   2,C   1,C   0)    178.1926         0.003535   
     69. D(C   5,P   2,C   1,H  10)    -61.8202         0.003535   
     70. D(C   3,P   2,C   1,H  10)   -164.1282         0.003535   
     71. D(C   3,P   2,C   1,H  11)    -46.8651         0.003535   
     72. D(H  12,C   3,P   2,C   1)    -61.8201         0.003535   
     73. D(C   4,C   3,P   2,C   5)     75.8845         0.003535   
     74. D(H  12,C   3,P   2,C   5)   -164.1282         0.003535   
     75. D(C   4,C   3,P   2,C   1)    178.1926         0.003535   
     76. D(H  13,C   3,P   2,C   1)     55.4429         0.003535   
     77. D(H  15,C   4,C   3,H  13)     59.8836         0.011954   
     78. D(H  15,C   4,C   3,H  12)    176.5819         0.011954   
     79. D(H  15,C   4,C   3,P   2)    -63.1860         0.011954   
     80. D(H  14,C   4,C   3,H  13)    -59.5692         0.011954   
     81. D(H  14,C   4,C   3,H  12)     57.1291         0.011954   
     82. D(H  14,C   4,C   3,P   2)    177.3612         0.011954   
     83. D(H  17,C   5,P   2,C   3)    -61.8201         0.003535   
     84. D(H  17,C   5,P   2,C   1)   -164.1282         0.003535   
     85. D(C   6,C   5,P   2,C   3)    178.1927         0.003535   
     86. D(H  18,C   5,P   2,C   1)    -46.8650         0.003535   
     87. D(C   6,C   5,P   2,C   1)     75.8847         0.003535   
     88. D(H  20,C   6,C   5,P   2)    177.3612         0.011954   
     89. D(H  19,C   6,C   5,H  18)     59.8836         0.011954   
     90. D(H  19,C   6,C   5,H  17)    176.5818         0.011954   
     91. D(H  19,C   6,C   5,P   2)    -63.1861         0.011954   
     92. D(H  20,C   6,C   5,H  18)    -59.5691         0.011954   
     93. D(H  20,C   6,C   5,H  17)     57.1291         0.011954   
    -----------------------------------------------------------------

Number of atoms                         .... 22
Number of degrees of freedom            .... 93


         *************************************************************
         *                GEOMETRY OPTIMIZATION CYCLE   1            *
         *************************************************************
---------------------------------
CARTESIAN COORDINATES (ANGSTROEM)
---------------------------------
  C     -1.896337   -2.046541    0.116894
  C     -1.398604   -0.740020   -0.479288
  P     -0.158618    0.103895    0.603008
  C      1.328222   -0.945779    0.273437
  C      2.561074   -0.456096    1.015362
  C      0.241938    1.573428   -0.446349
  C     -0.853679    2.626396   -0.413962
  H     -1.090106   -2.779478    0.222400
  H     -2.660416   -2.486833   -0.532338
  H     -2.344898   -1.892386    1.104428
  H     -2.257379   -0.074590   -0.615819
  H     -0.972063   -0.925916   -1.470817
  H      1.115181   -1.969655    0.597820
  H      1.535201   -0.983033   -0.801456
  H      3.402634   -1.131537    0.828996
  H      2.862093    0.544601    0.689282
  H      2.392079   -0.422897    2.097273
  H      1.167248    2.027837   -0.077231
  H      0.424031    1.262348   -1.480609
  H     -1.793718    2.249111   -0.829076
  H     -0.554787    3.495603   -1.009207
  H     -1.049097    2.971544    0.607252

----------------------------
CARTESIAN COORDINATES (A.U.)
----------------------------
  NO LB      ZA    FRAG     MASS         X           Y           Z
   0 C     6.0000    0    12.011   -3.583558   -3.867402    0.220898
   1 C     6.0000    0    12.011   -2.642979   -1.398435   -0.905723
   2 P    15.0000    0    30.974   -0.299745    0.196333    1.139520
   3 C     6.0000    0    12.011    2.509976   -1.787263    0.516721
   4 C     6.0000    0    12.011    4.839728   -0.861897    1.918756
   5 C     6.0000    0    12.011    0.457197    2.973348   -0.843477
   6 C     6.0000    0    12.011   -1.613220    4.963169   -0.782275
   7 H     1.0000    0     1.008   -2.060002   -5.252452    0.420275
   8 H     1.0000    0     1.008   -5.027458   -4.699433   -1.005973
   9 H     1.0000    0     1.008   -4.431215   -3.576091    2.087066
  10 H     1.0000    0     1.008   -4.265828   -0.140955   -1.163729
  11 H     1.0000    0     1.008   -1.836933   -1.749728   -2.779441
  12 H     1.0000    0     1.008    2.107387   -3.722109    1.129716
  13 H     1.0000    0     1.008    2.901109   -1.857663   -1.514532
  14 H     1.0000    0     1.008    6.430046   -2.138295    1.566575
  15 H     1.0000    0     1.008    5.408572    1.029147    1.302554
  16 H     1.0000    0     1.008    4.520374   -0.799160    3.963272
  17 H     1.0000    0     1.008    2.205779    3.832057   -0.145945
  18 H     1.0000    0     1.008    0.801302    2.385492   -2.797946
  19 H     1.0000    0     1.008   -3.389636    4.250204   -1.566727
  20 H     1.0000    0     1.008   -1.048395    6.605732   -1.907125
  21 H     1.0000    0     1.008   -1.982506    5.615404    1.147540

--------------------------------
INTERNAL COORDINATES (ANGSTROEM)
--------------------------------
 C      0   0   0     0.000000000000     0.00000000     0.00000000
 C      1   0   0     1.519923761198     0.00000000     0.00000000
 P      2   1   0     1.849627648754   112.47119222     0.00000000
 C      3   2   1     1.849628539982   100.12008149    75.88454235
 C      4   3   2     1.519923090165   112.47119044   178.19257676
 C      3   2   1     1.849627654603   100.12005431   178.19257241
 C      6   3   2     1.519923398557   112.47120901    75.88467156
 H      1   2   3     1.094685611199   111.84875781   296.81384426
 H      1   2   3     1.095068926291   109.97186975   177.36106109
 H      1   2   3     1.095533721937   111.51240837    57.86171734
 H      2   1   3     1.094957670180   108.32873242   239.76789034
 H      2   1   3     1.095273621219   109.67751338   123.06965153
 H      4   3   2     1.094957926930   108.75211132   298.17986253
 H      4   3   2     1.095273083941   110.24765172    55.44292984
 H      5   4   3     1.095068976840   109.97186753   177.36120693
 H      5   4   3     1.094684927534   111.84873390   296.81400259
 H      5   4   3     1.095533155841   111.51247137    57.86187771
 H      6   3   2     1.094958553236   108.75211040   195.87184864
 H      6   3   2     1.095272739846   110.24770817   313.13497289
 H      7   6   3     1.094685765753   111.84871531   296.81385732
 H      7   6   3     1.095067964347   109.97189870   177.36115249
 H      7   6   3     1.095533372574   111.51243122    57.86171616

---------------------------
INTERNAL COORDINATES (A.U.)
---------------------------
 C      0   0   0     0.000000000000     0.00000000     0.00000000
 C      1   0   0     2.872239653104     0.00000000     0.00000000
 P      2   1   0     3.495289705875   112.47119222     0.00000000
 C      3   2   1     3.495291390051   100.12008149    75.88454235
 C      4   3   2     2.872238385036   112.47119044   178.19257676
 C      3   2   1     3.495289716928   100.12005431   178.19257241
 C      6   3   2     2.872238967812   112.47120901    75.88467156
 H      1   2   3     2.068656007910   111.84875781   296.81384426
 H      1   2   3     2.069380368458   109.97186975   177.36106109
 H      1   2   3     2.070258704937   111.51240837    57.86171734
 H      2   1   3     2.069170124877   108.32873242   239.76789034
 H      2   1   3     2.069767185812   109.67751338   123.06965153
 H      4   3   2     2.069170610063   108.75211132   298.17986253
 H      4   3   2     2.069766170504   110.24765172    55.44292984
 H      5   4   3     2.069380463981   109.97186753   177.36120693
 H      5   4   3     2.068654715971   111.84873390   296.81400259
 H      5   4   3     2.070257635170   111.51247137    57.86187771
 H      6   3   2     2.069171793611   108.75211040   195.87184864
 H      6   3   2     2.069765520258   110.24770817   313.13497289
 H      7   6   3     2.068656299975   111.84871531   296.81385732
 H      7   6   3     2.069378550646   109.97189870   177.36115249
 H      7   6   3     2.070258044737   111.51243122    57.86171616

---------------------
BASIS SET INFORMATION
---------------------
There are 3 groups of distinct atoms

 Group   1 Type C   : 7s4p1d contracted to 3s2p1d pattern {511/31/1}
 Group   2 Type P   : 10s7p1d contracted to 4s3p1d pattern {5311/511/1}
 Group   3 Type H   : 4s1p contracted to 2s1p pattern {31/1}

Atom   0C    basis set group =>   1
Atom   1C    basis set group =>   1
Atom   2P    basis set group =>   2
Atom   3C    basis set group =>   1
Atom   4C    basis set group =>   1
Atom   5C    basis set group =>   1
Atom   6C    basis set group =>   1
Atom   7H    basis set group =>   3
Atom   8H    basis set group =>   3
Atom   9H    basis set group =>   3
Atom  10H    basis set group =>   3
Atom  11H    basis set group =>   3
Atom  12H    basis set group =>   3
Atom  13H    basis set group =>   3
Atom  14H    basis set group =>   3
Atom  15H    basis set group =>   3
Atom  16H    basis set group =>   3
Atom  17H    basis set group =>   3
Atom  18H    basis set group =>   3
Atom  19H    basis set group =>   3
Atom  20H    basis set group =>   3
Atom  21H    basis set group =>   3
---------------------------------
AUXILIARY/J BASIS SET INFORMATION
---------------------------------
There are 3 groups of distinct atoms

 Group   1 Type C   : 12s5p4d2f1g contracted to 6s4p3d1f1g pattern {711111/2111/211/2/1}
 Group   2 Type P   : 14s5p5d2f1g contracted to 8s4p3d1f1g pattern {71111111/2111/311/2/1}
 Group   3 Type H   : 5s2p1d contracted to 3s1p1d pattern {311/2/1}

Atom   0C    basis set group =>   1
Atom   1C    basis set group =>   1
Atom   2P    basis set group =>   2
Atom   3C    basis set group =>   1
Atom   4C    basis set group =>   1
Atom   5C    basis set group =>   1
Atom   6C    basis set group =>   1
Atom   7H    basis set group =>   3
Atom   8H    basis set group =>   3
Atom   9H    basis set group =>   3
Atom  10H    basis set group =>   3
Atom  11H    basis set group =>   3
Atom  12H    basis set group =>   3
Atom  13H    basis set group =>   3
Atom  14H    basis set group =>   3
Atom  15H    basis set group =>   3
Atom  16H    basis set group =>   3
Atom  17H    basis set group =>   3
Atom  18H    basis set group =>   3
Atom  19H    basis set group =>   3
Atom  20H    basis set group =>   3
Atom  21H    basis set group =>   3


           ************************************************************
           *        Program running with 6 parallel MPI-processes     *
           *              working on a common directory               *
           ************************************************************
------------------------------------------------------------------------------
                             ORCA STARTUP CALCULATIONS
                           -- RI-GTO INTEGRALS CHOSEN --
------------------------------------------------------------------------------
------------------------------------------------------------------------------
                   ___                                                        
                  /   \      - P O W E R E D   B Y -                         
                 /     \                                                     
                 |  |  |   _    _      __       _____    __    __             
                 |  |  |  | |  | |    /  \     |  _  \  |  |  /  |          
                  \  \/   | |  | |   /    \    | | | |  |  | /  /          
                 / \  \   | |__| |  /  /\  \   | |_| |  |  |/  /          
                |  |  |   |  __  | /  /__\  \  |    /   |      \           
                |  |  |   | |  | | |   __   |  |    \   |  |\   \          
                \     /   | |  | | |  |  |  |  | |\  \  |  | \   \       
                 \___/    |_|  |_| |__|  |__|  |_| \__\ |__|  \__/        
                                                                              
                      - O R C A' S   B I G   F R I E N D -                    
                                      &                                       
                       - I N T E G R A L  F E E D E R -                       
                                                                              
 v1 FN, 2020, v2 2021, v3 2022-2024                                           
------------------------------------------------------------------------------


----------------------
SHARK INTEGRAL PACKAGE
----------------------

Number of atoms                             ...     22
Number of basis functions                   ...    177
Number of shells                            ...     89
Maximum angular momentum                    ...      2
Integral batch strategy                     ... SHARK/LIBINT Hybrid
RI-J (if used) integral strategy            ... SPLIT-RIJ (Revised 2003 algorithm where possible)
Printlevel                                  ...      1
Contraction scheme used                     ... SEGMENTED contraction
Prescreening option                         ... SCHWARTZ
   Thresh                                   ... 2.500e-11
   Tcut                                     ... 2.500e-12
   Tpresel                                  ... 2.500e-12 
Coulomb Range Separation                    ... NOT USED
Exchange Range Separation                   ... NOT USED
Multipole approximations                    ... NOT USED
Finite Nucleus Model                        ... NOT USED
CABS basis                                  ... NOT available
Auxiliary Coulomb fitting basis             ... AVAILABLE
   # of basis functions in Aux-J            ...    510
   # of shells in Aux-J                     ...    182
   Maximum angular momentum in Aux-J        ...      4
Auxiliary J/K fitting basis                 ... NOT available
Auxiliary Correlation fitting basis         ... NOT available
Auxiliary 'external' fitting basis          ... NOT available

Checking pre-screening integrals            ... done (  0.0 sec) Dimension = 89
Check shell pair data                       ... done (  0.0 sec)
Shell pair information
Shell pair cut-off parameter TPreSel        ...   2.5e-12
Total number of shell pairs                 ...      4005
Shell pairs after pre-screening             ...      3706
Total number of primitive shell pairs       ...     13841
Primitive shell pairs kept                  ...      9283
          la=0 lb=0:   1297 shell pairs
          la=1 lb=0:   1439 shell pairs
          la=1 lb=1:    411 shell pairs
          la=2 lb=0:    343 shell pairs
          la=2 lb=1:    189 shell pairs
          la=2 lb=2:     27 shell pairs

Calculating one electron integrals          ... done (  0.0 sec)
Calculating RI/J V-Matrix + Cholesky decomp.... done (  0.0 sec)
Calculating Nuclear repulsion               ... done (  0.0 sec) ENN=    398.177819652337 Eh

Diagonalization of the overlap matrix:
Smallest eigenvalue                        ... 2.187e-03
Time for diagonalization                   ...    0.003 sec
Threshold for overlap eigenvalues          ... 1.000e-07
Number of eigenvalues below threshold      ... 0
Time for construction of square roots      ...    0.003 sec
Total time needed                          ...    0.007 sec

-------------------
DFT GRID GENERATION
-------------------

General Integration Accuracy     IntAcc      ... 4.388
Radial Grid Type                 RadialGrid  ... OptM3 with GC (2021)
Angular Grid (max. ang.)         AngularGrid ... 4 (Lebedev-302)
Angular grid pruning method      GridPruning ... 4 (adaptive)
Weight generation scheme         WeightScheme... mBecke (2022)
Basis function cutoff            BFCut       ... 1.0000e-11
Integration weight cutoff        WCut        ... 1.0000e-14
Partially contracted basis set               ... off
Rotationally invariant grid construction     ... off
Angular grids for H and He will be reduced by one unit

Total number of grid points                  ...    91362
Total number of batches                      ...     1437
Average number of points per batch           ...       63
Average number of grid points per atom       ...     4153
Initializing property integral containers    ... done (  0.0 sec)

SHARK setup successfully completed in   0.4 seconds

Maximum memory used throughout the entire STARTUP-calculation: 24.7 MB


           ************************************************************
           *        Program running with 6 parallel MPI-processes     *
           *              working on a common directory               *
           ************************************************************
-------------------------------------------------------------------------------
                                 ORCA GUESS
                   Start orbitals & Density for SCF / CASSCF
-------------------------------------------------------------------------------

------------
SCF SETTINGS
------------
Hamiltonian:
 Density Functional     Method          .... DFT(GTOs)
 Exchange Functional    Exchange        .... B88
   X-Alpha parameter    XAlpha          ....  0.666667
   Becke's b parameter  XBeta           ....  0.004200
 Correlation Functional Correlation     .... LYP
 LDA part of GGA corr.  LDAOpt          .... VWN-5
 Gradients option       PostSCFGGA      .... off
 Hybrid DFT is turned on
   Fraction HF Exchange ScalHFX         ....  0.200000
   Scaling of DF-GGA-X  ScalDFX         ....  0.720000
   Scaling of DF-GGA-C  ScalDFC         ....  0.810000
   Scaling of DF-LDA-C  ScalLDAC        ....  1.000000
   Perturbative correction              ....  0.000000
   NL short-range parameter             ....  4.800000
 RI-approximation to the Coulomb term is turned on
   Number of AuxJ basis functions       .... 510
   RIJ-ON(X) (HFX calculated with O(N)) .... on


General Settings:
 Integral files         IntName         .... data/geom_opt/27365/27365
 Hartree-Fock type      HFTyp           .... RHF
 Total Charge           Charge          ....    0
 Multiplicity           Mult            ....    1
 Number of Electrons    NEL             ....   66
 Basis Dimension        Dim             ....  177
 Nuclear Repulsion      ENuc            ....    398.1778196523 Eh

Convergence Acceleration:
 AO-DIIS                CNVDIIS         .... on
   Start iteration      DIISMaxIt       ....    12
   Startup error        DIISStart       ....  0.200000
   # of expansion vecs  DIISMaxEq       ....     5
   Bias factor          DIISBfac        ....   1.050
   Max. coefficient     DIISMaxC        ....  10.000
 MO-DIIS                CNVKDIIS        .... off
 Trust-Rad. Augm. Hess. CNVTRAH         .... auto
   Auto Start mean grad. ratio tolernc. ....  1.125000
   Auto Start start iteration           ....    50
   Auto Start num. interpolation iter.  ....    10
   Max. Number of Micro iterations      ....    24
   Max. Number of Macro iterations      .... Maxiter - #DIIS iter
   Number of Davidson start vectors     ....     2
   Converg. threshold    (grad. norm)   ....   1.000e-05
   Grad. Scal. Fac. for Micro threshold ....   0.100
   Minimum threshold for Micro iter.    ....   1.000e-02
   NR start threshold (gradient norm)   ....   1.000e-04
   Initial trust radius                 ....   0.400
   Minimum AH scaling param. (alpha)    ....   1.000
   Maximum AH scaling param. (alpha)    .... 1000.000
   Quad. conv. algorithm                .... NR
   White noise on init. David. guess    .... on
   Maximum white noise                  ....   0.010
   Pseudo random numbers                .... off
   Inactive MOs                         .... canonical
   Orbital update algorithm             .... Taylor
   Preconditioner                       .... Diag
   Full preconditioner red. dimension   ....   250
   COSX micro iterations for RIJONX calc.... off
 SOSCF                  CNVSOSCF        .... on
   Start iteration      SOSCFMaxIt      ....   150
   Startup grad/error   SOSCFStart      ....  0.003300
   Hessian update       SOSCFHessUp     .... L-BFGS
 Level Shifting         CNVShift        .... on
   Level shift para.    LevelShift      ....    0.2500
   Turn off err/grad.   ShiftErr        ....    0.0010
 Zerner damping         CNVZerner       .... off
 Static damping         CNVDamp         .... on
   Fraction old density DampFac         ....    0.7000
   Max. Damping (<1)    DampMax         ....    0.9800
   Min. Damping (>=0)   DampMin         ....    0.0000
   Turn off err/grad.   DampErr         ....    0.1000

SCF Procedure:
 Maximum # iterations   MaxIter         ....   125
 SCF integral mode      SCFMode         .... Direct
   Integral package                     .... SHARK and LIBINT hybrid scheme
 Reset frequency        DirectResetFreq ....    20
 Integral Threshold     Thresh          ....  2.500e-11 Eh
 Primitive CutOff       TCut            ....  2.500e-12 Eh

Convergence Tolerance:
 Convergence Check Mode ConvCheckMode   .... Total+1el-Energy
 Convergence forced     ConvForced      .... 0
 Energy Change          TolE            ....  1.000e-08 Eh
 1-El. energy change                    ....  1.000e-05 Eh
 Orbital Gradient       TolG            ....  1.000e-05
 Orbital Rotation angle TolX            ....  1.000e-05
 DIIS Error             TolErr          ....  5.000e-07

------------------------------
INITIAL GUESS: MODEL POTENTIAL
------------------------------
Loading Hartree-Fock densities                     ... done
Calculating cut-offs                               ... done
Initializing the effective Hamiltonian             ... done
Setting up the integral package (SHARK)            ... done
Starting the Coulomb interaction                   ... done (   0.0 sec)
Making the grid                                    ... done (   0.1 sec)
Mapping shells                                     ... done
Starting the XC term evaluation                    ... done (   0.0 sec)
  promolecular density results
     # of electrons  =     65.995271253
     EX              =    -57.950242583
     EC              =     -2.216590925
     EX+EC           =    -60.166833509
Transforming the Hamiltonian                       ... done (   0.0 sec)
Diagonalizing the Hamiltonian                      ... done (   0.0 sec)
Back transforming the eigenvectors                 ... done (   0.0 sec)
Now organizing SCF variables                       ... done
                      ------------------
                      INITIAL GUESS DONE (   0.2 sec)
                      ------------------
             **** ENERGY FILE WAS UPDATED (data/geom_opt/27365/27365.en.tmp) ****
Finished Guess after   0.3 sec
Maximum memory used throughout the entire GUESS-calculation: 12.6 MB


           ************************************************************
           *        Program running with 6 parallel MPI-processes     *
           *              working on a common directory               *
           ************************************************************

-------------------------------------------------------------------------------------------
                                      ORCA LEAN-SCF
                              memory conserving SCF solver
-------------------------------------------------------------------------------------------

----------------------------------------D-I-I-S--------------------------------------------
Iteration    Energy (Eh)           Delta-E    RMSDP     MaxDP     DIISErr   Damp  Time(sec)
-------------------------------------------------------------------------------------------
               ***  Starting incremental Fock matrix formation  ***
    1    -578.2370931789862425     0.00e+00  3.38e-03  7.90e-02  1.73e-01  0.700   0.8
    2    -578.3728717856764661    -1.36e-01  2.45e-03  4.91e-02  8.99e-02  0.700   0.7
                               ***Turning on AO-DIIS***
    3    -578.4272272454833228    -5.44e-02  1.07e-03  3.53e-02  3.33e-02  0.700   0.7
    4    -578.4581934548940580    -3.10e-02  1.99e-03  7.97e-02  1.54e-02  0.000   0.6
    5    -578.5255174629686508    -6.73e-02  2.97e-04  7.83e-03  6.93e-03  0.000   0.7
                              *** Initializing SOSCF ***
---------------------------------------S-O-S-C-F--------------------------------------
Iteration    Energy (Eh)           Delta-E    RMSDP     MaxDP     MaxGrad    Time(sec)
--------------------------------------------------------------------------------------
    6    -578.5260079945103371    -4.91e-04  1.12e-04  1.44e-03  1.85e-03     0.6
               *** Restarting incremental Fock matrix formation ***
    7    -578.5260544634909365    -4.65e-05  7.55e-05  1.14e-03  2.21e-04     0.7
    8    -578.5260551955052506    -7.32e-07  2.21e-05  6.88e-04  2.05e-04     0.5
    9    -578.5260585616056233    -3.37e-06  5.97e-06  3.75e-04  1.46e-05     0.5
   10    -578.5260585788557819    -1.73e-08  2.38e-06  1.53e-04  1.28e-05     0.6
   11    -578.5260585883057729    -9.45e-09  5.47e-07  1.08e-05  2.51e-06     0.5
                 **** Energy Check signals convergence ****

               *****************************************************
               *                     SUCCESS                       *
               *           SCF CONVERGED AFTER  11 CYCLES          *
               *****************************************************

             **** ENERGY FILE WAS UPDATED (data/geom_opt/27365/27365.en.tmp) ****

----------------
TOTAL SCF ENERGY
----------------

Total Energy       :       -578.52605858830577 Eh          -15742.49439 eV

Components:
Nuclear Repulsion  :        398.17781965233712 Eh           10834.96931 eV
Electronic Energy  :       -976.70387824064289 Eh          -26577.46370 eV
One Electron Energy:      -1580.39133816627100 Eh          -43004.63462 eV
Two Electron Energy:        603.68745992562810 Eh           16427.17093 eV

Virial components:
Potential Energy   :      -1153.37253154405653 Eh          -31384.86216 eV
Kinetic Energy     :        574.84647295575076 Eh           15642.36777 eV
Virial Ratio       :          2.00640098844764

DFT components:
N(Alpha)           :       32.999990083038 electrons
N(Beta)            :       32.999990083038 electrons
N(Total)           :       65.999980166077 electrons
E(X)               :      -46.785650506581 Eh       
E(C)               :       -2.621311166901 Eh       
E(XC)              :      -49.406961673482 Eh       

---------------
SCF CONVERGENCE
---------------

  Last Energy change         ...    9.4500e-09  Tolerance :   1.0000e-08
  Last MAX-Density change    ...    1.0813e-05  Tolerance :   1.0000e-07
  Last RMS-Density change    ...    5.4675e-07  Tolerance :   5.0000e-09
  Last DIIS Error            ...    1.8539e-03  Tolerance :   5.0000e-07
  Last Orbital Gradient      ...    2.5122e-06  Tolerance :   1.0000e-05
  Last Orbital Rotation      ...    4.0507e-06  Tolerance :   1.0000e-05


----------------
ORBITAL ENERGIES
----------------

  NO   OCC          E(Eh)            E(eV) 
   0   2.0000     -77.024376     -2095.9398 
   1   2.0000     -10.176861      -276.9265 
   2   2.0000     -10.176857      -276.9263 
   3   2.0000     -10.176795      -276.9247 
   4   2.0000     -10.175882      -276.8998 
   5   2.0000     -10.175873      -276.8996 
   6   2.0000     -10.175871      -276.8995 
   7   2.0000      -6.523378      -177.5101 
   8   2.0000      -4.688693      -127.5858 
   9   2.0000      -4.688689      -127.5857 
  10   2.0000      -4.685578      -127.5011 
  11   2.0000      -0.782307       -21.2877 
  12   2.0000      -0.745316       -20.2811 
  13   2.0000      -0.745311       -20.2809 
  14   2.0000      -0.648014       -17.6334 
  15   2.0000      -0.600045       -16.3281 
  16   2.0000      -0.600041       -16.3280 
  17   2.0000      -0.517502       -14.0819 
  18   2.0000      -0.447274       -12.1709 
  19   2.0000      -0.447268       -12.1708 
  20   2.0000      -0.446922       -12.1614 
  21   2.0000      -0.427971       -11.6457 
  22   2.0000      -0.427968       -11.6456 
  23   2.0000      -0.387192       -10.5360 
  24   2.0000      -0.370346       -10.0776 
  25   2.0000      -0.367033        -9.9875 
  26   2.0000      -0.367031        -9.9874 
  27   2.0000      -0.357921        -9.7395 
  28   2.0000      -0.341895        -9.3034 
  29   2.0000      -0.341894        -9.3034 
  30   2.0000      -0.298524        -8.1232 
  31   2.0000      -0.298519        -8.1231 
  32   2.0000      -0.214450        -5.8355 
  33   0.0000       0.054215         1.4753 
  34   0.0000       0.054215         1.4753 
  35   0.0000       0.058602         1.5946 
  36   0.0000       0.090662         2.4670 
  37   0.0000       0.090667         2.4672 
  38   0.0000       0.091064         2.4780 
  39   0.0000       0.120389         3.2759 
  40   0.0000       0.120389         3.2760 
  41   0.0000       0.128321         3.4918 
  42   0.0000       0.138257         3.7622 
  43   0.0000       0.138268         3.7625 
*Only the first 10 virtual orbitals were printed.

                    ********************************
                    * MULLIKEN POPULATION ANALYSIS *
                    ********************************

-----------------------
MULLIKEN ATOMIC CHARGES
-----------------------
   0 C :    0.029484
   1 C :   -0.154014
   2 P :    0.134907
   3 C :   -0.153830
   4 C :    0.029504
   5 C :   -0.154206
   6 C :    0.029599
   7 H :    0.009634
   8 H :    0.009621
   9 H :    0.017509
  10 H :    0.029310
  11 H :    0.013478
  12 H :    0.029265
  13 H :    0.013450
  14 H :    0.009604
  15 H :    0.009590
  16 H :    0.017512
  17 H :    0.029332
  18 H :    0.013548
  19 H :    0.009604
  20 H :    0.009588
  21 H :    0.017512
Sum of atomic charges:   -0.0000000

--------------------------------
MULLIKEN REDUCED ORBITAL CHARGES
--------------------------------
  0 C s       :     2.967457  s :     2.967457
      pz      :     1.003023  p :     2.972782
      px      :     1.000866
      py      :     0.968893
      dz2     :     0.006296  d :     0.030278
      dxz     :     0.006508
      dyz     :     0.004653
      dx2y2   :     0.003469
      dxy     :     0.009352

  1 C s       :     3.076022  s :     3.076022
      pz      :     1.019078  p :     3.046439
      px      :     1.018525
      py      :     1.008836
      dz2     :     0.007689  d :     0.031553
      dxz     :     0.005500
      dyz     :     0.005366
      dx2y2   :     0.004013
      dxy     :     0.008985

  2 P s       :     5.812807  s :     5.812807
      pz      :     3.268924  p :     8.879933
      px      :     2.815141
      py      :     2.795868
      dz2     :     0.020352  d :     0.172352
      dxz     :     0.032368
      dyz     :     0.040683
      dx2y2   :     0.030189
      dxy     :     0.048761

  3 C s       :     3.075917  s :     3.075917
      pz      :     1.006660  p :     3.046360
      px      :     1.009694
      py      :     1.030005
      dz2     :     0.009606  d :     0.031553
      dxz     :     0.005785
      dyz     :     0.003086
      dx2y2   :     0.006607
      dxy     :     0.006469

  4 C s       :     2.967498  s :     2.967498
      pz      :     1.004201  p :     2.972720
      px      :     0.966320
      py      :     1.002200
      dz2     :     0.009761  d :     0.030278
      dxz     :     0.004227
      dyz     :     0.002488
      dx2y2   :     0.005641
      dxy     :     0.008160

  5 C s       :     3.076049  s :     3.076049
      pz      :     1.010355  p :     3.046602
      px      :     1.023165
      py      :     1.013082
      dz2     :     0.007604  d :     0.031554
      dxz     :     0.004223
      dyz     :     0.006295
      dx2y2   :     0.006204
      dxy     :     0.007229

  6 C s       :     2.967461  s :     2.967461
      pz      :     1.009501  p :     2.972663
      px      :     0.984923
      py      :     0.978240
      dz2     :     0.005840  d :     0.030277
      dxz     :     0.004380
      dyz     :     0.006762
      dx2y2   :     0.006523
      dxy     :     0.006773

  7 H s       :     0.967027  s :     0.967027
      pz      :     0.005150  p :     0.023339
      px      :     0.009692
      py      :     0.008498

  8 H s       :     0.967126  s :     0.967126
      pz      :     0.007947  p :     0.023253
      px      :     0.009387
      py      :     0.005919

  9 H s       :     0.959360  s :     0.959360
      pz      :     0.012379  p :     0.023131
      px      :     0.006414
      py      :     0.004338

 10 H s       :     0.947566  s :     0.947566
      pz      :     0.004841  p :     0.023124
      px      :     0.010408
      py      :     0.007874

 11 H s       :     0.963751  s :     0.963751
      pz      :     0.012098  p :     0.022770
      px      :     0.006165
      py      :     0.004508

 12 H s       :     0.947614  s :     0.947614
      pz      :     0.005629  p :     0.023121
      px      :     0.004874
      py      :     0.012618

 13 H s       :     0.963778  s :     0.963778
      pz      :     0.013463  p :     0.022772
      px      :     0.004616
      py      :     0.004692

 14 H s       :     0.967142  s :     0.967142
      pz      :     0.005085  p :     0.023254
      px      :     0.009867
      py      :     0.008302

 15 H s       :     0.967069  s :     0.967069
      pz      :     0.005628  p :     0.023341
      px      :     0.005230
      py      :     0.012483

 16 H s       :     0.959356  s :     0.959356
      pz      :     0.013720  p :     0.023132
      px      :     0.004473
      py      :     0.004939

 17 H s       :     0.947547  s :     0.947547
      pz      :     0.005923  p :     0.023121
      px      :     0.010996
      py      :     0.006202

 18 H s       :     0.963686  s :     0.963686
      pz      :     0.012941  p :     0.022766
      px      :     0.004612
      py      :     0.005213

 19 H s       :     0.967057  s :     0.967057
      pz      :     0.006473  p :     0.023339
      px      :     0.011273
      py      :     0.005593

 20 H s       :     0.967157  s :     0.967157
      pz      :     0.007647  p :     0.023255
      px      :     0.005208
      py      :     0.010401

 21 H s       :     0.959355  s :     0.959355
      pz      :     0.012966  p :     0.023132
      px      :     0.004774
      py      :     0.005392



                     *******************************
                     * LOEWDIN POPULATION ANALYSIS *
                     *******************************

----------------------
LOEWDIN ATOMIC CHARGES
----------------------
   0 C :   -0.062611
   1 C :   -0.180867
   2 P :    0.448196
   3 C :   -0.180849
   4 C :   -0.062588
   5 C :   -0.180906
   6 C :   -0.062577
   7 H :    0.017307
   8 H :    0.022726
   9 H :    0.022202
  10 H :    0.020326
  11 H :    0.011520
  12 H :    0.020316
  13 H :    0.011514
  14 H :    0.022719
  15 H :    0.017293
  16 H :    0.022201
  17 H :    0.020334
  18 H :    0.011531
  19 H :    0.017298
  20 H :    0.022715
  21 H :    0.022199

-------------------------------
LOEWDIN REDUCED ORBITAL CHARGES
-------------------------------
  0 C s       :     2.835025  s :     2.835025
      pz      :     1.060696  p :     3.152253
      px      :     1.059248
      py      :     1.032309
      dz2     :     0.015582  d :     0.075334
      dxz     :     0.016186
      dyz     :     0.011465
      dx2y2   :     0.008487
      dxy     :     0.023613

  1 C s       :     2.888488  s :     2.888488
      pz      :     1.080064  p :     3.216073
      px      :     1.081068
      py      :     1.054940
      dz2     :     0.018089  d :     0.076306
      dxz     :     0.013798
      dyz     :     0.013325
      dx2y2   :     0.009195
      dxy     :     0.021899

  2 P s       :     5.307639  s :     5.307639
      pz      :     3.367714  p :     9.017894
      px      :     2.836364
      py      :     2.813816
      dz2     :     0.025734  d :     0.226271
      dxz     :     0.041316
      dyz     :     0.053172
      dx2y2   :     0.039564
      dxy     :     0.066485

  3 C s       :     2.888486  s :     2.888486
      pz      :     1.068752  p :     3.216056
      px      :     1.068193
      py      :     1.079111
      dz2     :     0.023054  d :     0.076307
      dxz     :     0.014270
      dyz     :     0.007126
      dx2y2   :     0.015980
      dxy     :     0.015876

  4 C s       :     2.835030  s :     2.835030
      pz      :     1.057021  p :     3.152223
      px      :     1.035964
      py      :     1.059239
      dz2     :     0.023815  d :     0.075335
      dxz     :     0.011069
      dyz     :     0.006009
      dx2y2   :     0.014405
      dxy     :     0.020038

  5 C s       :     2.888492  s :     2.888492
      pz      :     1.082612  p :     3.216109
      px      :     1.059629
      py      :     1.073869
      dz2     :     0.019388  d :     0.076305
      dxz     :     0.009303
      dyz     :     0.015217
      dx2y2   :     0.013269
      dxy     :     0.019128

  6 C s       :     2.835028  s :     2.835028
      pz      :     1.067881  p :     3.152212
      px      :     1.041376
      py      :     1.042956
      dz2     :     0.015259  d :     0.075336
      dxz     :     0.010144
      dyz     :     0.016331
      dx2y2   :     0.014895
      dxy     :     0.018707

  7 H s       :     0.917432  s :     0.917432
      pz      :     0.012889  p :     0.065261
      px      :     0.027372
      py      :     0.025000

  8 H s       :     0.912213  s :     0.912213
      pz      :     0.022007  p :     0.065060
      px      :     0.025701
      py      :     0.017353

  9 H s       :     0.912558  s :     0.912558
      pz      :     0.035413  p :     0.065240
      px      :     0.016988
      py      :     0.012839

 10 H s       :     0.910257  s :     0.910257
      pz      :     0.013931  p :     0.069417
      px      :     0.031815
      py      :     0.023670

 11 H s       :     0.918458  s :     0.918458
      pz      :     0.038069  p :     0.070022
      px      :     0.017525
      py      :     0.014428

 12 H s       :     0.910268  s :     0.910268
      pz      :     0.015082  p :     0.069416
      px      :     0.015855
      py      :     0.038478

 13 H s       :     0.918464  s :     0.918464
      pz      :     0.040054  p :     0.070022
      px      :     0.016157
      py      :     0.013811

 14 H s       :     0.912221  s :     0.912221
      pz      :     0.013467  p :     0.065060
      px      :     0.028923
      py      :     0.022670

 15 H s       :     0.917446  s :     0.917446
      pz      :     0.014967  p :     0.065260
      px      :     0.014936
      py      :     0.035357

 16 H s       :     0.912559  s :     0.912559
      pz      :     0.039751  p :     0.065240
      px      :     0.013010
      py      :     0.012478

 17 H s       :     0.910249  s :     0.910249
      pz      :     0.016194  p :     0.069417
      px      :     0.033096
      py      :     0.020127

 18 H s       :     0.918444  s :     0.918444
      pz      :     0.039896  p :     0.070024
      px      :     0.013839
      py      :     0.016289

 19 H s       :     0.917441  s :     0.917441
      pz      :     0.016534  p :     0.065260
      px      :     0.032736
      py      :     0.015989

 20 H s       :     0.912225  s :     0.912225
      pz      :     0.020568  p :     0.065060
      px      :     0.014664
      py      :     0.029827

 21 H s       :     0.912561  s :     0.912561
      pz      :     0.036838  p :     0.065240
      px      :     0.013318
      py      :     0.015084



                      *****************************
                      * MAYER POPULATION ANALYSIS *
                      *****************************

  NA   - Mulliken gross atomic population
  ZA   - Total nuclear charge
  QA   - Mulliken gross atomic charge
  VA   - Mayer's total valence
  BVA  - Mayer's bonded valence
  FA   - Mayer's free valence

  ATOM       NA         ZA         QA         VA         BVA        FA
  0 C      5.9705     6.0000     0.0295     3.9942     3.9942    -0.0000
  1 C      6.1540     6.0000    -0.1540     3.9768     3.9768    -0.0000
  2 P     14.8651    15.0000     0.1349     3.0547     3.0547    -0.0000
  3 C      6.1538     6.0000    -0.1538     3.9769     3.9769    -0.0000
  4 C      5.9705     6.0000     0.0295     3.9941     3.9941    -0.0000
  5 C      6.1542     6.0000    -0.1542     3.9768     3.9768    -0.0000
  6 C      5.9704     6.0000     0.0296     3.9941     3.9941    -0.0000
  7 H      0.9904     1.0000     0.0096     0.9946     0.9946    -0.0000
  8 H      0.9904     1.0000     0.0096     0.9839     0.9839    -0.0000
  9 H      0.9825     1.0000     0.0175     0.9925     0.9925    -0.0000
 10 H      0.9707     1.0000     0.0293     0.9812     0.9812    -0.0000
 11 H      0.9865     1.0000     0.0135     0.9799     0.9799    -0.0000
 12 H      0.9707     1.0000     0.0293     0.9812     0.9812    -0.0000
 13 H      0.9866     1.0000     0.0134     0.9799     0.9799     0.0000
 14 H      0.9904     1.0000     0.0096     0.9839     0.9839    -0.0000
 15 H      0.9904     1.0000     0.0096     0.9946     0.9946    -0.0000
 16 H      0.9825     1.0000     0.0175     0.9925     0.9925    -0.0000
 17 H      0.9707     1.0000     0.0293     0.9812     0.9812    -0.0000
 18 H      0.9865     1.0000     0.0135     0.9799     0.9799    -0.0000
 19 H      0.9904     1.0000     0.0096     0.9946     0.9946    -0.0000
 20 H      0.9904     1.0000     0.0096     0.9839     0.9839    -0.0000
 21 H      0.9825     1.0000     0.0175     0.9925     0.9925    -0.0000

  Mayer bond orders larger than 0.100000
B(  0-C ,  1-C ) :   1.0893 B(  0-C ,  7-H ) :   0.9709 B(  0-C ,  8-H ) :   0.9633 
B(  0-C ,  9-H ) :   0.9679 B(  1-C ,  2-P ) :   0.9702 B(  1-C , 10-H ) :   0.9452 
B(  1-C , 11-H ) :   0.9295 B(  2-P ,  3-C ) :   0.9703 B(  2-P ,  5-C ) :   0.9703 
B(  3-C ,  4-C ) :   1.0892 B(  3-C , 12-H ) :   0.9452 B(  3-C , 13-H ) :   0.9295 
B(  4-C , 14-H ) :   0.9633 B(  4-C , 15-H ) :   0.9709 B(  4-C , 16-H ) :   0.9679 
B(  5-C ,  6-C ) :   1.0892 B(  5-C , 17-H ) :   0.9452 B(  5-C , 18-H ) :   0.9295 
B(  6-C , 19-H ) :   0.9709 B(  6-C , 20-H ) :   0.9633 B(  6-C , 21-H ) :   0.9679 


-------
TIMINGS
-------

Total SCF time: 0 days 0 hours 0 min 6 sec 

Total time                  ....       6.907 sec
Sum of individual times     ....       6.867 sec  ( 99.4%)

SCF preparation             ....       0.069 sec  (  1.0%)
Fock matrix formation       ....       6.526 sec  ( 94.5%)
  Startup                   ....       0.022 sec  (  0.3% of F)
  Exchange formation        ....       4.098 sec  ( 62.8% of F)
  Split-RI-J                ....       0.601 sec  (  9.2% of F)
  XC integration            ....       1.715 sec  ( 26.3% of F)
    Basis function eval.    ....       0.528 sec  ( 30.8% of XC)
    Density eval.           ....       0.360 sec  ( 21.0% of XC)
    XC-Functional eval.     ....       0.060 sec  (  3.5% of XC)
    XC-Potential eval.      ....       0.356 sec  ( 20.8% of XC)
Diagonalization             ....       0.000 sec  (  0.0%)
Density matrix formation    ....       0.044 sec  (  0.6%)
Total Energy calculation    ....       0.019 sec  (  0.3%)
Population analysis         ....       0.029 sec  (  0.4%)
Orbital Transformation      ....       0.021 sec  (  0.3%)
Orbital Orthonormalization  ....       0.000 sec  (  0.0%)
DIIS solution               ....       0.105 sec  (  1.5%)
SOSCF solution              ....       0.054 sec  (  0.8%)
Finished LeanSCF after   6.9 sec

Maximum memory used throughout the entire LEANSCF-calculation: 17.6 MB


-------------------------------------------------------------------------------
                          DFT DISPERSION CORRECTION                            
                                                                               
                              DFTD3 V3.1  Rev 1                                
                          USING Becke-Johnson damping                          
-------------------------------------------------------------------------------
The B3LYP functional is recognized
Active option DFTDOPT                   ...         4   

molecular C6(AA) [au] = 4104.126268 


            DFT-D V3
 parameters
 s6 scaling factor         :     1.0000 
 a1 scaling factor         :     0.3981 
 s8 scaling factor         :     1.9889 
 a2 scaling factor         :     4.4211 
 ad hoc parameters k1-k3   :    16.0000     1.3333    -4.0000 

 Edisp/kcal,au: -21.982045807879  -0.035030616065 
 E6   /kcal   : -10.296400455 
 E8   /kcal   : -11.685645353 
 % E8         :  53.159953604 

-------------------------   ----------------
Dispersion correction           -0.035030616
-------------------------   ----------------


-------------------------   --------------------
FINAL SINGLE POINT ENERGY      -578.561089204371
-------------------------   --------------------



           ************************************************************
           *        Program running with 6 parallel MPI-processes     *
           *              working on a common directory               *
           ************************************************************
------------------------------------------------------------------------------
                         ORCA SCF GRADIENT CALCULATION
------------------------------------------------------------------------------

Nuc. rep. gradient        (SHARK) ... done (  0.0 sec)
HCore & Overlap gradient  (SHARK) ... done (  0.1 sec)
Split-RIJ-J gradient      (SHARK) ... done (  0.2 sec)
O(N)X-gradient            (SHARK) ... done (  1.8 sec)
XC gradient                       ... done (  1.3 sec)
Dispersion correction             ... done (  0.1 sec)

-------------------
DISPERSION GRADIENT
-------------------

   1   C   :   -0.000489614   -0.000398163    0.000009437
   2   C   :   -0.000509965   -0.000376265   -0.000126377
   3   P   :   -0.000100494    0.000065824    0.000382041
   4   C   :    0.000568333   -0.000274056    0.000139652
   5   C   :    0.000550091   -0.000186985    0.000246540
   6   C   :   -0.000017390    0.000623481   -0.000169059
   7   C   :   -0.000110477    0.000617898   -0.000065895
   8   H   :   -0.000186660   -0.000366223    0.000019620
   9   H   :   -0.000193149   -0.000198466   -0.000043495
  10   H   :   -0.000259606   -0.000206495    0.000129031
  11   H   :   -0.000316249   -0.000088190   -0.000094869
  12   H   :   -0.000180333   -0.000159867   -0.000285996
  13   H   :    0.000227129   -0.000244109    0.000074927
  14   H   :    0.000277080   -0.000193783   -0.000159833
  15   H   :    0.000263998   -0.000076110    0.000055673
  16   H   :    0.000396657    0.000034489    0.000104018
  17   H   :    0.000260689   -0.000045146    0.000238091
  18   H   :    0.000108420    0.000319657   -0.000053433
  19   H   :    0.000094350    0.000228481   -0.000280653
  20   H   :   -0.000214034    0.000334378   -0.000108290
  21   H   :   -0.000051544    0.000261932   -0.000085571
  22   H   :   -0.000117232    0.000327719    0.000074439

Difference to translation invariance:
           :   -0.0000000000   -0.0000000000    0.0000000000

Difference to rotation invariance:
           :   -0.0000000000   -0.0000000000   -0.0000000000

Norm of the Dispersion gradient    ...    0.0021218146
RMS gradient                       ...    0.0002611773
MAX gradient                       ...    0.0006234807

------------------
CARTESIAN GRADIENT
------------------

   1   C   :    0.001947495    0.001096751    0.000869520
   2   C   :    0.001035189    0.003388441   -0.000724081
   3   P   :    0.003015195   -0.002006646   -0.011512550
   4   C   :   -0.003353113   -0.001117499   -0.001102286
   5   C   :   -0.001863468    0.001423466   -0.000162225
   6   C   :    0.002582390   -0.002611035    0.000717462
   7   C   :   -0.000380145   -0.002204667    0.000828401
   8   H   :   -0.003040037    0.003597466   -0.000994654
   9   H   :    0.003336104    0.003642762    0.001955844
  10   H   :    0.001161542   -0.000407719   -0.004096527
  11   H   :    0.002022832   -0.005659445    0.000726476
  12   H   :   -0.002680154   -0.000679257    0.006630906
  13   H   :    0.004064703    0.004467219   -0.000461653
  14   H   :    0.000283668    0.001267722    0.007053621
  15   H   :   -0.005019890    0.001758568    0.000079251
  16   H   :   -0.001787216   -0.004440740    0.000687939
  17   H   :    0.000768256   -0.000779854   -0.004139938
  18   H   :   -0.005510687    0.000872093   -0.002380267
  19   H   :   -0.002783874    0.002873314    0.005974842
  20   H   :    0.004475241    0.001053395    0.001412154
  21   H   :    0.000452003   -0.004610829    0.002617132
  22   H   :    0.001273968   -0.000923507   -0.003979367

Difference to translation invariance:
           :   -0.0000000000   -0.0000000000    0.0000000000

Difference to rotation invariance:
           :   -0.0001011743    0.0001421419    0.0002410187

Norm of the Cartesian gradient     ...    0.0260341618
RMS gradient                       ...    0.0032045838
MAX gradient                       ...    0.0115125498

-------
TIMINGS
-------

Total SCF gradient time     ....        3.396 sec

Densities                   ....       0.001 sec  (  0.0%)
One electron gradient       ....       0.064 sec  (  1.9%)
Two electron gradient       ....       1.773 sec  ( 52.2%)
RI-J Coulomb gradient       ....       0.206 sec  (  6.1%)
XC gradient                 ....       1.290 sec  ( 38.0%)

Maximum memory used throughout the entire SCFGRAD-calculation: 29.7 MB
------------------------------------------------------------------------------
                         ORCA GEOMETRY RELAXATION STEP
------------------------------------------------------------------------------

Reading the OPT-File                    .... done
Getting information on internals        .... done
Copying old internal coords+grads       .... done
Making the new internal coordinates     .... (2022 redundants) done
Validating the new internal coordinates .... (2022 redundants) done
Calculating the B-matrix                .... done
Calculating the G,G- and P matrices     .... done
Transforming gradient to internals      .... done
Projecting the internal gradient        .... done
Number of atoms                         ....  22
Number of internal coordinates          ....  93
Current Energy                          ....  -578.561089204 Eh
Current gradient norm                   ....     0.026034162 Eh/bohr
Maximum allowed component of the step   ....  0.300
Current trust radius                    ....  0.300
Evaluating the initial hessian          ....  (Almloef) done
Projecting the Hessian                  .... done
Forming the augmented Hessian           .... done
Diagonalizing the augmented Hessian     .... done
Last element of RFO vector              ....  0.995542309
Lowest eigenvalues of augmented Hessian:
 -0.002797308  0.003535119  0.003535120  0.003536642  0.011954097
Length of the computed step             ....  0.094738328
The final length of the internal step   ....  0.094738328
Converting the step to Cartesian space:
 Initial RMS(Int)=    0.0098239069
Transforming coordinates:
 Iter   0:  RMS(Cart)=    0.0230272063 RMS(Int)=    0.0098351243
done
Storing new coordinates                 .... done

                                .--------------------.
          ----------------------|Geometry convergence|-------------------------
          Item                value                   Tolerance       Converged
          ---------------------------------------------------------------------
          RMS gradient        0.0032101767            0.0001000000      NO
          MAX gradient        0.0088263057            0.0003000000      NO
          RMS step            0.0098239069            0.0020000000      NO
          MAX step            0.0226049182            0.0040000000      NO
          ........................................................
          Max(Bonds)      0.0120      Max(Angles)    0.78
          Max(Dihed)        1.02      Max(Improp)    0.00
          ---------------------------------------------------------------------

The optimization has not yet converged - more geometry cycles are needed


    ---------------------------------------------------------------------------
                         Redundant Internal Coordinates
                            (Angstroem and degrees)

        Definition                    Value    dE/dq     Step     New-Value
    ----------------------------------------------------------------------------
     1. B(C   1,C   0)                1.5199 -0.008826  0.0120    1.5319   
     2. B(P   2,C   1)                1.8496 -0.007355  0.0100    1.8596   
     3. B(C   3,P   2)                1.8496 -0.007364  0.0100    1.8596   
     4. B(C   4,C   3)                1.5199 -0.008796  0.0119    1.5318   
     5. B(C   5,P   2)                1.8496 -0.007328  0.0099    1.8595   
     6. B(C   6,C   5)                1.5199 -0.008814  0.0119    1.5319   
     7. B(H   7,C   0)                1.0947 -0.004746  0.0070    1.1017   
     8. B(H   8,C   0)                1.0951 -0.004950  0.0074    1.1024   
     9. B(H   9,C   0)                1.0955 -0.004227  0.0063    1.1018   
    10. B(H  10,C   1)                1.0950 -0.005115  0.0076    1.1026   
    11. B(H  11,C   1)                1.0953 -0.006930  0.0103    1.1056   
    12. B(H  12,C   3)                1.0950 -0.005103  0.0076    1.1025   
    13. B(H  13,C   3)                1.0953 -0.006913  0.0103    1.1055   
    14. B(H  14,C   4)                1.0951 -0.004956  0.0074    1.1024   
    15. B(H  15,C   4)                1.0947 -0.004759  0.0071    1.1017   
    16. B(H  16,C   4)                1.0955 -0.004229  0.0063    1.1018   
    17. B(H  17,C   5)                1.0950 -0.005096  0.0076    1.1025   
    18. B(H  18,C   5)                1.0953 -0.006921  0.0103    1.1056   
    19. B(H  19,C   6)                1.0947 -0.004744  0.0070    1.1017   
    20. B(H  20,C   6)                1.0951 -0.004958  0.0074    1.1024   
    21. B(H  21,C   6)                1.0955 -0.004227  0.0063    1.1018   
    22. A(H   7,C   0,H   8)          107.57  0.001406   -0.20    107.36   
    23. A(H   8,C   0,H   9)          107.78  0.000640   -0.01    107.77   
    24. A(C   1,C   0,H   8)          109.97 -0.002812    0.58    110.55   
    25. A(C   1,C   0,H   9)          111.51  0.000564   -0.12    111.39   
    26. A(C   1,C   0,H   7)          111.85 -0.000457    0.04    111.89   
    27. A(H   7,C   0,H   9)          107.99  0.000788   -0.30    107.69   
    28. A(P   2,C   1,H  10)          108.75  0.003114   -0.77    107.99   
    29. A(C   0,C   1,H  10)          108.33 -0.001879    0.48    108.81   
    30. A(H  10,C   1,H  11)          107.20  0.001011   -0.38    106.82   
    31. A(C   0,C   1,P   2)          112.47 -0.002176    0.40    112.87   
    32. A(P   2,C   1,H  11)          110.25  0.001212   -0.17    110.08   
    33. A(C   0,C   1,H  11)          109.68 -0.001142    0.40    110.08   
    34. A(C   1,P   2,C   5)          100.12  0.000239   -0.34     99.78   
    35. A(C   1,P   2,C   3)          100.12  0.001238   -0.34     99.78   
    36. A(C   3,P   2,C   5)          100.12  0.001196   -0.34     99.78   
    37. A(P   2,C   3,C   4)          112.47 -0.002059    0.40    112.88   
    38. A(H  12,C   3,H  13)          107.20  0.000606   -0.37    106.83   
    39. A(C   4,C   3,H  13)          109.68 -0.000914    0.41    110.08   
    40. A(P   2,C   3,H  13)          110.25  0.001112   -0.18    110.07   
    41. A(C   4,C   3,H  12)          108.33 -0.001873    0.48    108.81   
    42. A(P   2,C   3,H  12)          108.75  0.003241   -0.78    107.97   
    43. A(H  15,C   4,H  16)          107.99  0.001506   -0.32    107.67   
    44. A(C   3,C   4,H  16)          111.51  0.000544   -0.12    111.39   
    45. A(H  14,C   4,H  15)          107.57  0.001492   -0.21    107.36   
    46. A(C   3,C   4,H  15)          111.85 -0.000137    0.05    111.90   
    47. A(H  14,C   4,H  16)          107.78 -0.000117   -0.00    107.77   
    48. A(C   3,C   4,H  14)          109.97 -0.003179    0.58    110.55   
    49. A(P   2,C   5,H  18)          110.25  0.001245   -0.19    110.06   
    50. A(C   6,C   5,H  17)          108.33 -0.001982    0.50    108.83   
    51. A(P   2,C   5,H  17)          108.75  0.003381   -0.78    107.97   
    52. A(P   2,C   5,C   6)          112.47 -0.002112    0.39    112.86   
    53. A(H  17,C   5,H  18)          107.20  0.000881   -0.38    106.82   
    54. A(C   6,C   5,H  18)          109.68 -0.001281    0.41    110.09   
    55. A(H  19,C   6,H  21)          107.99  0.001483   -0.32    107.68   
    56. A(C   5,C   6,H  21)          111.51  0.000534   -0.12    111.40   
    57. A(H  19,C   6,H  20)          107.57  0.001446   -0.20    107.37   
    58. A(C   5,C   6,H  20)          109.97 -0.003209    0.59    110.56   
    59. A(H  20,C   6,H  21)          107.78 -0.000139    0.00    107.78   
    60. A(C   5,C   6,H  19)          111.85 -0.000012    0.03    111.88   
    61. D(H  10,C   1,C   0,H   9)    -62.37 -0.000049   -0.02    -62.39   
    62. D(P   2,C   1,C   0,H   8)    177.36  0.000531   -0.12    177.24   
    63. D(P   2,C   1,C   0,H   7)    -63.19  0.000129    0.04    -63.15   
    64. D(P   2,C   1,C   0,H   9)     57.86  0.001220   -0.41     57.45   
    65. D(H  10,C   1,C   0,H   8)     57.13 -0.000738    0.27     57.40   
    66. D(H  10,C   1,C   0,H   7)    176.58 -0.001140    0.42    177.01   
    67. D(C   3,P   2,C   1,C   0)     75.88 -0.000413    0.30     76.19   
    68. D(C   5,P   2,C   1,C   0)    178.19  0.001158   -0.20    177.99   
    69. D(C   5,P   2,C   1,H  10)    -61.82 -0.000471    0.14    -61.68   
    70. D(C   3,P   2,C   1,H  10)   -164.13 -0.002041    0.64   -163.49   
    71. D(C   3,P   2,C   1,H  11)    -46.87  0.001711   -0.37    -47.24   
    72. D(H  12,C   3,P   2,C   1)    -61.82 -0.000969    0.52    -61.30   
    73. D(C   4,C   3,P   2,C   5)     75.88 -0.000295    0.69     76.58   
    74. D(H  12,C   3,P   2,C   5)   -164.13 -0.001757    1.02   -163.11   
    75. D(C   4,C   3,P   2,C   1)    178.19  0.000493    0.19    178.38   
    76. D(H  13,C   3,P   2,C   1)     55.44  0.002313   -0.49     54.95   
    77. D(H  15,C   4,C   3,H  13)     59.88 -0.000120    0.23     60.11   
    78. D(H  15,C   4,C   3,H  12)    176.58 -0.000960    0.27    176.86   
    79. D(H  15,C   4,C   3,P   2)    -63.19  0.000545   -0.12    -63.31   
    80. D(H  14,C   4,C   3,H  13)    -59.57  0.000212    0.07    -59.50   
    81. D(H  14,C   4,C   3,H  12)     57.13 -0.000628    0.12     57.25   
    82. D(H  14,C   4,C   3,P   2)    177.36  0.000878   -0.28    177.08   
    83. D(H  17,C   5,P   2,C   3)    -61.82 -0.000405    0.03    -61.79   
    84. D(H  17,C   5,P   2,C   1)   -164.13 -0.002010    0.54   -163.59   
    85. D(C   6,C   5,P   2,C   3)    178.19  0.001132   -0.32    177.87   
    86. D(H  18,C   5,P   2,C   1)    -46.87  0.001762   -0.49    -47.35   
    87. D(C   6,C   5,P   2,C   1)     75.88 -0.000473    0.19     76.07   
    88. D(H  20,C   6,C   5,P   2)    177.36  0.000941   -0.26    177.10   
    89. D(H  19,C   6,C   5,H  18)     59.88 -0.000187    0.22     60.11   
    90. D(H  19,C   6,C   5,H  17)    176.58 -0.000962    0.29    176.87   
    91. D(H  19,C   6,C   5,P   2)    -63.19  0.000611   -0.11    -63.29   
    92. D(H  20,C   6,C   5,H  18)    -59.57  0.000142    0.07    -59.50   
    93. D(H  20,C   6,C   5,H  17)     57.13 -0.000633    0.13     57.26   
    ----------------------------------------------------------------------------

Geometry step timings:
Preparation and reading OPT file:      0.001 s (16.667 %)
Internal coordinates            :      0.000 s ( 0.000 %)
B/P matrices and projection     :      0.001 s (16.667 %)
[...]
      px      :     0.004404
      py      :     0.004874

 17 H s       :     0.947184  s :     0.947184
      pz      :     0.005824  p :     0.022710
      px      :     0.011071
      py      :     0.005814

 18 H s       :     0.959919  s :     0.959919
      pz      :     0.012621  p :     0.022233
      px      :     0.004465
      py      :     0.005147

 19 H s       :     0.965282  s :     0.965282
      pz      :     0.006219  p :     0.022969
      px      :     0.011314
      py      :     0.005436

 20 H s       :     0.963370  s :     0.963370
      pz      :     0.007660  p :     0.022847
      px      :     0.005007
      py      :     0.010180

 21 H s       :     0.957631  s :     0.957631
      pz      :     0.012836  p :     0.022822
      px      :     0.004665
      py      :     0.005321



                     *******************************
                     * LOEWDIN POPULATION ANALYSIS *
                     *******************************

----------------------
LOEWDIN ATOMIC CHARGES
----------------------
   0 C :   -0.065731
   1 C :   -0.181653
   2 P :    0.444407
   3 C :   -0.181629
   4 C :   -0.065732
   5 C :   -0.181634
   6 C :   -0.065698
   7 H :    0.018612
   8 H :    0.023794
   9 H :    0.023426
  10 H :    0.020351
  11 H :    0.013027
  12 H :    0.020361
  13 H :    0.013018
  14 H :    0.023772
  15 H :    0.018624
  16 H :    0.023441
  17 H :    0.020358
  18 H :    0.013003
  19 H :    0.018633
  20 H :    0.023797
  21 H :    0.023454

-------------------------------
LOEWDIN REDUCED ORBITAL CHARGES
-------------------------------
  0 C s       :     2.842442  s :     2.842442
      pz      :     1.060233  p :     3.150080
      px      :     1.058430
      py      :     1.031417
      dz2     :     0.014552  d :     0.073209
      dxz     :     0.016061
      dyz     :     0.011455
      dx2y2   :     0.007898
      dxy     :     0.023244

  1 C s       :     2.898765  s :     2.898765
      pz      :     1.077902  p :     3.209240
      px      :     1.080383
      py      :     1.050955
      dz2     :     0.016862  d :     0.073649
      dxz     :     0.013911
      dyz     :     0.012698
      dx2y2   :     0.008470
      dxy     :     0.021708

  2 P s       :     5.336273  s :     5.336273
      pz      :     3.355193  p :     9.005876
      px      :     2.836203
      py      :     2.814479
      dz2     :     0.023952  d :     0.213444
      dxz     :     0.038518
      dyz     :     0.052314
      dx2y2   :     0.037222
      dxy     :     0.061439

  3 C s       :     2.898702  s :     2.898702
      pz      :     1.066920  p :     3.209258
      px      :     1.063448
      py      :     1.078890
      dz2     :     0.022919  d :     0.073669
      dxz     :     0.013828
      dyz     :     0.005971
      dx2y2   :     0.015480
      dxy     :     0.015471

  4 C s       :     2.842454  s :     2.842454
      pz      :     1.056243  p :     3.150058
      px      :     1.034401
      py      :     1.059414
      dz2     :     0.023333  d :     0.073220
      dxz     :     0.011198
      dyz     :     0.005058
      dx2y2   :     0.014615
      dxy     :     0.019016

  5 C s       :     2.898730  s :     2.898730
      pz      :     1.080255  p :     3.209239
      px      :     1.057965
      py      :     1.071019
      dz2     :     0.018226  d :     0.073665
      dxz     :     0.008812
      dyz     :     0.015223
      dx2y2   :     0.013438
      dxy     :     0.017966

  6 C s       :     2.842425  s :     2.842425
      pz      :     1.067116  p :     3.150062
      px      :     1.041488
      py      :     1.041457
      dz2     :     0.015256  d :     0.073212
      dxz     :     0.008794
      dyz     :     0.016330
      dx2y2   :     0.014813
      dxy     :     0.018018

  7 H s       :     0.917388  s :     0.917388
      pz      :     0.012708  p :     0.064001
      px      :     0.026721
      py      :     0.024572

  8 H s       :     0.912316  s :     0.912316
      pz      :     0.021674  p :     0.063890
      px      :     0.025083
      py      :     0.017133

  9 H s       :     0.912412  s :     0.912412
      pz      :     0.034747  p :     0.064162
      px      :     0.016877
      py      :     0.012538

 10 H s       :     0.911466  s :     0.911466
      pz      :     0.013800  p :     0.068184
      px      :     0.030379
      py      :     0.024004

 11 H s       :     0.918718  s :     0.918718
      pz      :     0.037338  p :     0.068254
      px      :     0.017514
      py      :     0.013402

 12 H s       :     0.911454  s :     0.911454
      pz      :     0.014152  p :     0.068185
      px      :     0.015603
      py      :     0.038430

 13 H s       :     0.918716  s :     0.918716
      pz      :     0.039969  p :     0.068266
      px      :     0.014975
      py      :     0.013323

 14 H s       :     0.912344  s :     0.912344
      pz      :     0.013110  p :     0.063883
      px      :     0.028867
      py      :     0.021906

 15 H s       :     0.917402  s :     0.917402
      pz      :     0.014094  p :     0.063974
      px      :     0.014371
      py      :     0.035509

 16 H s       :     0.912402  s :     0.912402
      pz      :     0.039420  p :     0.064158
      px      :     0.012590
      py      :     0.012148

 17 H s       :     0.911474  s :     0.911474
      pz      :     0.015808  p :     0.068168
      px      :     0.033628
      py      :     0.018732

 18 H s       :     0.918732  s :     0.918732
      pz      :     0.039079  p :     0.068266
      px      :     0.013203
      py      :     0.015983

 19 H s       :     0.917369  s :     0.917369
      pz      :     0.015644  p :     0.063998
      px      :     0.032967
      py      :     0.015388

 20 H s       :     0.912316  s :     0.912316
      pz      :     0.020601  p :     0.063887
      px      :     0.013959
      py      :     0.029326

 21 H s       :     0.912387  s :     0.912387
      pz      :     0.036589  p :     0.064159
      px      :     0.012818
      py      :     0.014751



                      *****************************
                      * MAYER POPULATION ANALYSIS *
                      *****************************

  NA   - Mulliken gross atomic population
  ZA   - Total nuclear charge
  QA   - Mulliken gross atomic charge
  VA   - Mayer's total valence
  BVA  - Mayer's bonded valence
  FA   - Mayer's free valence

  ATOM       NA         ZA         QA         VA         BVA        FA
  0 C      5.9751     6.0000     0.0249     3.9896     3.9896    -0.0000
  1 C      6.1660     6.0000    -0.1660     3.9722     3.9722    -0.0000
  2 P     14.8562    15.0000     0.1438     3.0350     3.0350    -0.0000
  3 C      6.1659     6.0000    -0.1659     3.9724     3.9724     0.0000
  4 C      5.9747     6.0000     0.0253     3.9894     3.9894     0.0000
  5 C      6.1659     6.0000    -0.1659     3.9722     3.9722    -0.0000
  6 C      5.9749     6.0000     0.0251     3.9896     3.9896     0.0000
  7 H      0.9883     1.0000     0.0117     0.9932     0.9932    -0.0000
  8 H      0.9862     1.0000     0.0138     0.9835     0.9835    -0.0000
  9 H      0.9805     1.0000     0.0195     0.9910     0.9910     0.0000
 10 H      0.9698     1.0000     0.0302     0.9806     0.9806    -0.0000
 11 H      0.9822     1.0000     0.0178     0.9802     0.9802     0.0000
 12 H      0.9700     1.0000     0.0300     0.9807     0.9807     0.0000
 13 H      0.9822     1.0000     0.0178     0.9803     0.9803     0.0000
 14 H      0.9862     1.0000     0.0138     0.9834     0.9834     0.0000
 15 H      0.9884     1.0000     0.0116     0.9931     0.9931     0.0000
 16 H      0.9805     1.0000     0.0195     0.9910     0.9910     0.0000
 17 H      0.9699     1.0000     0.0301     0.9805     0.9805     0.0000
 18 H      0.9822     1.0000     0.0178     0.9802     0.9802    -0.0000
 19 H      0.9883     1.0000     0.0117     0.9932     0.9932     0.0000
 20 H      0.9862     1.0000     0.0138     0.9835     0.9835    -0.0000
 21 H      0.9805     1.0000     0.0195     0.9910     0.9910     0.0000

  Mayer bond orders larger than 0.100000
B(  0-C ,  1-C ) :   1.0849 B(  0-C ,  7-H ) :   0.9706 B(  0-C ,  8-H ) :   0.9645 
B(  0-C ,  9-H ) :   0.9687 B(  1-C ,  2-P ) :   0.9673 B(  1-C , 10-H ) :   0.9453 
B(  1-C , 11-H ) :   0.9326 B(  2-P ,  3-C ) :   0.9674 B(  2-P ,  5-C ) :   0.9674 
B(  3-C ,  4-C ) :   1.0848 B(  3-C , 12-H ) :   0.9452 B(  3-C , 13-H ) :   0.9325 
B(  4-C , 14-H ) :   0.9645 B(  4-C , 15-H ) :   0.9706 B(  4-C , 16-H ) :   0.9688 
B(  5-C ,  6-C ) :   1.0848 B(  5-C , 17-H ) :   0.9453 B(  5-C , 18-H ) :   0.9326 
B(  6-C , 19-H ) :   0.9706 B(  6-C , 20-H ) :   0.9645 B(  6-C , 21-H ) :   0.9688 


-------
TIMINGS
-------

Total SCF time: 0 days 0 hours 0 min 2 sec 

Total time                  ....       2.529 sec
Sum of individual times     ....       2.490 sec  ( 98.5%)

SCF preparation             ....       0.074 sec  (  2.9%)
Fock matrix formation       ....       2.294 sec  ( 90.7%)
  Startup                   ....       0.009 sec  (  0.4% of F)
  Exchange formation        ....       1.460 sec  ( 63.6% of F)
  Split-RI-J                ....       0.217 sec  (  9.5% of F)
  XC integration            ....       0.574 sec  ( 25.0% of F)
    Basis function eval.    ....       0.163 sec  ( 28.4% of XC)
    Density eval.           ....       0.115 sec  ( 20.0% of XC)
    XC-Functional eval.     ....       0.028 sec  (  4.9% of XC)
    XC-Potential eval.      ....       0.128 sec  ( 22.3% of XC)
Diagonalization             ....       0.000 sec  (  0.0%)
Density matrix formation    ....       0.015 sec  (  0.6%)
Total Energy calculation    ....       0.007 sec  (  0.3%)
Population analysis         ....       0.042 sec  (  1.7%)
Orbital Transformation      ....       0.010 sec  (  0.4%)
Orbital Orthonormalization  ....       0.000 sec  (  0.0%)
DIIS solution               ....       0.014 sec  (  0.6%)
SOSCF solution              ....       0.034 sec  (  1.3%)
Finished LeanSCF after   2.6 sec

Maximum memory used throughout the entire LEANSCF-calculation: 18.2 MB


-------------------------------------------------------------------------------
                          DFT DISPERSION CORRECTION                            
                                                                               
                              DFTD3 V3.1  Rev 1                                
                          USING Becke-Johnson damping                          
-------------------------------------------------------------------------------
The B3LYP functional is recognized
Active option DFTDOPT                   ...         4   

molecular C6(AA) [au] = 4105.551358 


            DFT-D V3
 parameters
 s6 scaling factor         :     1.0000 
 a1 scaling factor         :     0.3981 
 s8 scaling factor         :     1.9889 
 a2 scaling factor         :     4.4211 
 ad hoc parameters k1-k3   :    16.0000     1.3333    -4.0000 

 Edisp/kcal,au: -21.726409010306  -0.034623232940 
 E6   /kcal   : -10.178624688 
 E8   /kcal   : -11.547784323 
 % E8         :  53.150911029 

-------------------------   ----------------
Dispersion correction           -0.034623233
-------------------------   ----------------


-------------------------   --------------------
FINAL SINGLE POINT ENERGY      -578.563196375828
-------------------------   --------------------

                                *** OPTIMIZATION RUN DONE ***



           ************************************************************
           *        Program running with 6 parallel MPI-processes     *
           *              working on a common directory               *
           ************************************************************

------------------------------------------------------------------------------
                              ORCA PROPERTY CALCULATIONS
------------------------------------------------------------------------------

GBWName                                 ... data/geom_opt/27365/27365.gbw
Number of atoms                         ...     22
Number of basis functions               ...    177
Max core memory                         ...   1024 MB

Electric properties:
Dipole moment                           ... YES
Quadrupole moment                       ...  NO
Static polarizability (Dipole/Dipole)   ...  NO
Static polarizability (Dipole/Quad.)    ...  NO
Static polarizability (Quad./Quad.)     ...  NO
Static polarizability (Velocity)        ...  NO

Atomic electric properties:
Dipole moment                           ...  NO
Quadrupole moment                       ...  NO
Static polarizability                   ...  NO

Choice of electric origin               ... Center of mass
Position of electric origin             ...    -0.081459     0.054587     0.311633

General magnetic properties:
Magnetizability                         ...  NO

EPR properties:
g-Tensor (aka g-matrix)                 ...  NO
Zero-Field splitting spin-orbit         ...  NO
Zero-field splitting spin-spin          ...  NO
Hyperfine couplings                     ...  NO (   0 nuclei)
Quadrupole couplings                    ...  NO (   0 nuclei)
Contact density                         ...  NO (   0 nuclei)

NMR properties:
Chemical shifts                         ...  NO (   0 nuclei)
Spin-rotation constants                 ...  NO (   0 nuclei)
Spin-spin couplings                     ...  NO (   0 nuclei,    0 pairs)

Choice of magnetic origin               ... GIAO
Position of magnetic origin             ...     0.000000     0.000000     0.000000

Properties with geometric perturbations:
SCF Hessian                             ...  NO
IR spectrum                             ...  NO
VCD spectrum                            ...  NO
X-ray spectroscopy properties:
SCF XES/XAS/RIXS spectra                ...  NO


-------------
DIPOLE MOMENT
-------------

Method             : SCF
Type of density    : Electron Density
Multiplicity       :   1
Irrep              :   0
Energy             :  -578.5285731428880354 Eh
Relativity type    : 
Basis              : AO
                                X                 Y                 Z
Electronic contribution:     -0.773389684       0.519850101       2.958502640
Nuclear contribution   :      0.883377764      -0.592261759      -3.379588435
                        -----------------------------------------
Total Dipole Moment    :      0.109988080      -0.072411658      -0.421085795
                        -----------------------------------------
Magnitude (a.u.)       :      0.441196184
Magnitude (Debye)      :      1.121431578



--------------------
Rotational spectrum 
--------------------
 
Rotational constants in cm-1:             0.060973             0.060840             0.033490 
Rotational constants in MHz :          1827.919120          1823.936724          1004.017657 

Dipole components along the rotational axes: 
x,y,z [a.u.] :     0.000808    -0.000311    -0.441195 
x,y,z [Debye]:     0.002053    -0.000790    -1.121429 

 

Dipole moment calculation done in   0.0 sec 

Maximum memory used throughout the entire PROP-calculation: 8.6 MB

--------------------------------
SUGGESTED CITATIONS FOR THIS RUN
--------------------------------

Below you find a list of papers that are relevant to this ORCA run
We neither can nor want to force you to cite these papers, but we appreciate if you do
You receive ORCA, which is the product of decades of hard work by many enthusiastic individuals, for free
The only thing we kindly ask in return is that you cite our papers,
We deeply appreciate it, if you show your appreciation for ORCA by not just citing the generic ORCA reference.

Please note that relegating all ORCA citations to the supporting information does *not* help us.
SI sections are not indexed - citations you put there will not count into any citation statistics
But we need these citations in order to attract the funding resources that allow us to do what we are doing

Therefore, if you are a happy ORCA user, please consider citing a few of the papers listed below in the main body of your paper

In addition to the list printed below, the program has created the file data/geom_opt/27365/27365.bibtex that contains the list in bibtex format
You can import this file easily into all common literature databanks and citation aid programs


List of essential papers. We consider these as the minimum necessary citations

  1. Neese,F.
     Software update: the ORCA program system, version 5.0
     WIRES Comput. Molec. Sci., 2022 12(1)e1606
     doi.org/10.1002/wcms.1606

List of papers to cite with high priority. The work reported in these papers was absolutely
necessary for this run to complete.
Our perspective: the developers of density functionals and basis sets usually get cited in chemistry papers
Good! But without the algorithms to do something with them, the functionals or basis sets would not do anything.
Hence, in our opinion, the algorithm design and method developments papers are equally worthy of getting cited

  1. Neese,F.
     An improvement of the resolution of the identity approximation for the formation of the Coulomb matrix
     J. Comp. Chem., 2003 24(14)1740-1747
     doi.org/10.1002/jcc.10318
  2. Neese,F.
     The SHARK Integral Generation and Digestion System
     J. Comp. Chem., 2022  1-16
     doi.org/10.1002/jcc.26942
  3. Grimme,S.; Antony,J.; Ehrlich,S.; Krieg,H.
     A consistent and accurate ab initio parametrization of density functional dispersion correction (DFT-D) for the 94 elements H-Pu
     J. Chem. Phys., 2010 132 154104-XXXX
     doi.org/10.1063/1.3382344
  4. Grimme,S.; Ehrlich,S.; Goerigk,L.
     Effect of the damping function in dispersion corrected density functional theory
     J. Comput. Chem., 2011 32(7)1456-1465
     doi.org/10.1002/jcc.21759

List of suggested additional citations. These are papers that are important in the 'surrounding' of 
of this run, or papers that preceded the highly important papers. If you like your results we are grateful for a citation.

  1. Neese,F.
     The ORCA program system
     WIRES Comput. Molec. Sci., 2012 2(1)73-78
     doi.org/10.1002/wcms.81
  2. Neese,F.
     Software update: the ORCA program system, version 4.0
     WIRES Comput. Molec. Sci., 2018 8(1)1-6
     doi.org/10.1002/wcms.1327
  3. Neese,F.; Wennmohs,F.; Becker,U.; Riplinger,C.
     The ORCA quantum chemistry program package
     J. Chem. Phys., 2020 152 Art. No. L224108
     doi.org/10.1063/5.0004608

List of optional additional citations

  1. Neese,F.
     Approximate second-order SCF convergence for spin unrestricted wavefunctions
     Chem. Phys. Lett., 2000 325(1-3)93-98
     doi.org/10.1016/s0009-2614(00)00662-x

Timings for individual modules:

Sum of individual times          ...       53.027 sec (=   0.884 min)
Startup calculation              ...        3.806 sec (=   0.063 min)   7.2 %
SCF iterations                   ...       28.318 sec (=   0.472 min)  53.4 %
Property calculations            ...        0.128 sec (=   0.002 min)   0.2 %
SCF Gradient evaluation          ...       20.731 sec (=   0.346 min)  39.1 %
Geometry relaxation              ...        0.044 sec (=   0.001 min)   0.1 %
                             ****ORCA TERMINATED NORMALLY****
TOTAL RUN TIME: 0 days 0 hours 0 minutes 54 seconds 221 msec
