
                                 *****************
                                 * O   R   C   A *
                                 *****************

                                            #,                                       
                                            ###                                      
                                            ####                                     
                                            #####                                    
                                            ######                                   
                                           ########,                                 
                                     ,,################,,,,,                         
                               ,,#################################,,                 
                          ,,##########################################,,             
                       ,#########################################, ''#####,          
                    ,#############################################,,   '####,        
                  ,##################################################,,,,####,       
                ,###########''''           ''''###############################       
              ,#####''   ,,,,##########,,,,          '''####'''          '####       
            ,##' ,,,,###########################,,,                        '##       
           ' ,,###''''                  '''############,,,                           
         ,,##''                                '''############,,,,        ,,,,,,###''
      ,#''                                            '''#######################'''  
     '                                                          ''''####''''         
             ,#######,   #######,   ,#######,      ##                                
            ,#'     '#,  ##    ##  ,#'     '#,    #''#        ,####,   ,####,        
            ##       ##  ##   ,#'  ##            #'  '#       #'       #'  '#        
            ##       ##  #######   ##           ,######,      #####,   #    #        
            '#,     ,#'  ##    ##  '#,     ,#' ,#      #,     #,   #   #,  ,#        
             '#######'   ##     ##  '#######'  #'      '#     '####' # '####'        



                #########################################################
                #                        -***-                          #
                #          Department of theory and spectroscopy        #
                #                                                       #
                #                      Frank Neese                      #
                #                                                       #
                #     Directorship, Architecture, Infrastructure        #
                #                    SHARK, DRIVERS                     #
                #        Core code/Algorithms in most modules           #
                #                                                       #
                #        Max Planck Institute fuer Kohlenforschung      #
                #                Kaiser Wilhelm Platz 1                 #
                #                 D-45470 Muelheim/Ruhr                 #
                #                      Germany                          #
                #                                                       #
                #                  All rights reserved                  #
                #                        -***-                          #
                #########################################################


                         Program Version 6.0.0  -   RELEASE   -


 With contributions from (in alphabetic order):
   Daniel Aravena         : Magnetic Suceptibility
   Michael Atanasov       : Ab Initio Ligand Field Theory (pilot matlab implementation)
   Alexander A. Auer      : GIAO ZORA, VPT2 properties, NMR spectrum
   Ute Becker             : All parallelization in ORCA, NUMFREQ, NUMCALC
   Giovanni Bistoni       : ED, misc. LED, open-shell LED, HFLD
   Martin Brehm           : Molecular dynamics
   Dmytro Bykov           : pre 5.0 version of the SCF Hessian
   Marcos Casanova-Páez   : Triplet and SCS-CIS(D). UHF-(DLPNO)-IP/EA/STEOM-CCSD. UHF-CVS-IP/STEOM-CCSD
   Vijay G. Chilkuri      : MRCI spin determinant printing, contributions to CSF-ICE
   Pauline Colinet        : FMM embedding
   Dipayan Datta          : RHF DLPNO-CCSD density
   Achintya Kumar Dutta   : EOM-CC, STEOM-CC
   Nicolas Foglia         : Exact transition moments, OPA infrastructure, MCD improvements
   Dmitry Ganyushin       : Spin-Orbit,Spin-Spin,Magnetic field MRCI
   Miquel Garcia          : C-PCM and meta-GGA Hessian, CCSD/C-PCM, Gaussian charge scheme
   Tiago L. C. Gouveia    : GS-ROHF, GS-ROCIS
   Yang Guo               : DLPNO-NEVPT2, F12-NEVPT2, CIM, IAO-localization
   Andreas Hansen         : Spin unrestricted coupled pair/coupled cluster methods
   Ingolf Harden          : AUTO-CI MPn and infrastructure 
   Benjamin Helmich-Paris : MC-RPA, TRAH-(SCF,CASSCF), AVAS, COSX integrals, SCF dyn. polar.
   Lee Huntington         : MR-EOM, pCC
   Robert Izsak           : Overlap fitted RIJCOSX, COSX-SCS-MP3, EOM
   Riya Kayal             : Wick's Theorem for AUTO-CI, AUTO-CI UHF-CCSDT
   Emily Kempfer          : AUTO-CI, RHF CISDT and CCSDT
   Christian Kollmar      : KDIIS, OOCD, Brueckner-CCSD(T), CCSD density, CASPT2, CASPT2-K, improved NEVPT2
   Axel Koslowski         : Symmetry handling
   Simone Kossmann        : Meta GGA functionals, TD-DFT gradient, OOMP2, (MP2 Hessian; deprecated post 5.0)
   Lucas Lang             : DCDCAS
   Marvin Lechner         : AUTO-CI (C++ implementation), FIC-MRCC
   Spencer Leger          : CASSCF response
   Dagmar Lenk            : GEPOL surface, SMD, ORCA-2-JSON
   Dimitrios Liakos       : Extrapolation schemes; Compound Job, initial MDCI parallelization
   Dimitrios Manganas     : Further ROCIS development; embedding schemes. LFT, Crystal Embedding
   Dimitrios Pantazis     : SARC Basis sets
   Anastasios Papadopoulos: AUTO-CI, single reference methods and gradients
   Taras Petrenko         : pre 6.0 DFT Hessian and TD-DFT gradient, (ASA, deprecated), ECA, 1-Electron XAS/XES, NRVS
   Peter Pinski           : DLPNO-MP2, DLPNO-MP2 Gradient
   Christoph Reimann      : Effective Core Potentials
   Marius Retegan         : Local ZFS, SOC
   Christoph Riplinger    : Optimizer, TS searches, QM/MM, DLPNO-CCSD(T), (RO)-DLPNO pert. Triples
   Michael Roemelt        : Original ROCIS implementation
   Masaaki Saitow         : Open-shell DLPNO-CCSD energy and density
   Barbara Sandhoefer     : DKH picture change effects
   Kantharuban Sivalingam : CASSCF convergence/infrastructure, NEVPT2 and variants, FIC-MRCI
   Bernardo de Souza      : ESD, SOC TD-DFT
   Georgi Stoychev        : AutoAux, RI-MP2 NMR, DLPNO-MP2 response, X2C
   Van Anh Tran           : RI-MP2 g-tensors
   Willem Van den Heuvel  : Paramagnetic NMR
   Zikuan Wang            : NOTCH, Electric field optimization 
   Frank Wennmohs         : Technical directorship and infrastructure
   Hang Xu                : AUTO-CI-Response properties 


 We gratefully acknowledge several colleagues who have allowed us to
 interface, adapt or use parts of their codes:
   Stefan Grimme, W. Hujo, H. Kruse, P. Pracht,  : VdW corrections, initial TS optimization,
                  C. Bannwarth, S. Ehlert,         DFT functionals, gCP, sTDA/sTD-DF
                  L. Wittmann, M. Mueller
   Ed Valeev, F. Pavosevic, A. Kumar             : LibInt (2-el integral package), F12 methods
   Garnet Chan, S. Sharma, J. Yang, R. Olivares  : DMRG
   Ulf Ekstrom                                   : XCFun DFT Library
   Mihaly Kallay                                 : mrcc  (arbitrary order and MRCC methods)
   Frank Weinhold                                : gennbo (NPA and NBO analysis)
   Simon Mueller                                 : openCOSMO-RS
   Christopher J. Cramer and Donald G. Truhlar   : smd solvation model
   Lars Goerigk                                  : TD-DFT with DH, B97 family of functionals
   V. Asgeirsson, H. Jonsson                     : NEB implementation
   FAccTs GmbH                                   : IRC, NEB, NEB-TS, DLPNO-Multilevel, CI-OPT
                                                   MM, QMMM, 2- and 3-layer-ONIOM, Crystal-QMMM,
                                                   LR-CPCM, SF, NACMEs, symmetry and pop. for TD-DFT,
                                                   nearIR, NL-DFT gradient (VV10), updates on ESD,
                                                   ML-optimized integration grids, MBIS, APM,
                                                   GOAT, DOCKER, SOLVATOR, interface openCOSMO-RS
   S Lehtola, MJT Oliveira, MAL Marques          : LibXC Library
   Liviu Ungur et al                             : ANISO software


 Your calculation uses the libint2 library for the computation of 2-el integrals
 For citations please refer to: http://libint.valeyev.net

 Your ORCA version has been built with support for libXC version: 6.2.2
 For citations please refer to: https://libxc.gitlab.io

 This ORCA versions uses:
   CBLAS   interface :  Fast vector & matrix operations
   LAPACKE interface :  Fast linear algebra routines
   Shared memory     :  Shared parallel matrices


Your calculation utilizes the atom-pairwise dispersion correction
with the zero-damping scheme (D30)


XCFun DFT library Copyright 2009-2010 Ulf Ekstrom and contributors.
See http://admol.org/xcfun for more information.
This is free software; see the source code for copying conditions.
There is ABSOLUTELY NO WARRANTY; not even for MERCHANTABILITY or FITNESS FOR A PARTICULAR PURPOSE.
For details see the documentation.
Scientific users of this library should cite U. Ekstrom, L. Visscher, R. Bast, A. J. Thorvaldsen and K. Ruud;
J.Chem.Theor.Comp. 2010, DOI: 10.1021/ct100117s
XCFun Version 0.99 

Warning: RI is on but no J-basis has been assigned. Assigning Def2/J (nothing to worry about!)
================================================================================

----- Orbital basis set information -----
Your calculation utilizes the basis: def2-TZVP
   F. Weigend and R. Ahlrichs, Phys. Chem. Chem. Phys. 7, 3297 (2005).

----- AuxJ basis set information -----
Your calculation utilizes the auxiliary basis: def2/J
   F. Weigend, Phys. Chem. Chem. Phys. 8, 1057 (2006).

================================================================================
                                        WARNINGS
                       Please study these warnings very carefully!
================================================================================

WARNING: Functional chosen is sensitive to the integration grid.
         DEFGRID3 seems to be a minimum grid for robust results!

================================================================================
                                       INPUT FILE
================================================================================
NAME = data/single_point_PO_M06-2x/627824/627824.inp
|  1> ! RIJCOSX M062X def2-TZVP D3ZERO NormalSCF
|  2> %pal
|  3> nprocs 6
|  4> end
|  5> 
|  6> * xyz 0 1
|  7>   C          -3.19691590914514     -3.31060748688529     -0.51718380534893
|  8>   C          -2.20061212889250     -2.76470213513199     -1.34463574348218
|  9>   C          -1.34320788786935     -1.76856256268140     -0.84970628913287
| 10>   C          -1.49081382169709     -1.31148139928764      0.47546883841039
| 11>   C          -2.47948900073423     -1.87162681491754      1.30975578681374
| 12>   C          -3.33227746952596     -2.86759486879739      0.81023703794957
| 13>   P          -0.45612706547032      0.00417675236309      1.21730060411862
| 14>   O          -0.34447767264266     -0.09591209704276      2.72870294339337
| 15>   C          -1.17389235338820      1.58827872366331      0.64494038570352
| 16>   C          -1.00237273469544      2.69797459120540      1.49736260389642
| 17>   C          -1.49955177727299      3.95367977597449      1.11696953939997
| 18>   C          -2.17208517789695      4.10366512767761     -0.10858507715788
| 19>   C          -2.35811863468946      2.99444170459983     -0.95135030547158
| 20>   C          -1.86456184375290      1.73462722049918     -0.57497945174530
| 21>   C           1.16889671914274     -0.12546923396711      0.37272764198299
| 22>   C           1.43734288942805      0.43704849337278     -0.89236922960751
| 23>   C           2.69885268486849      0.26983465905082     -1.47601067374347
| 24>   C           3.70338768302776     -0.44961638359076     -0.79627225096871
| 25>   C           3.44025495069929     -0.99409188639762      0.47876137914919
| 26>   C           2.17731573888103     -0.82930039382579      1.06173626015858
| 27>   C           5.02974466176390     -0.59663617916304     -1.46850867508946
| 28>   O           5.30523153563925     -0.14731706396633     -2.56915451691471
| 29>   O           5.92441481729840     -1.29746231701136     -0.72053322756728
| 30>   H          -3.86545547322513     -4.09371741956377     -0.90664960170754
| 31>   H          -2.08394966352246     -3.12318530358602     -2.37886871754412
| 32>   H          -0.54720617922492     -1.35989831505958     -1.49126774984928
| 33>   H          -2.55460881059517     -1.52327832435939      2.35157081967245
| 34>   H          -4.10368383568374     -3.30588006556636      1.46195216494570
| 35>   H          -0.48940507591632      2.55363814003669      2.46085389368119
| 36>   H          -1.36672141049089      4.82024647019672      1.78276388928888
| 37>   H          -2.56260199708024      5.08947515258163     -0.40451974813890
| 38>   H          -2.89910973059756      3.10873926629947     -1.90320852043368
| 39>   H          -2.03313033011409      0.86062101935055     -1.22289494374807
| 40>   H           0.66389310863598      1.02189163360328     -1.41339960141866
| 41>   H           2.93754942093699      0.69568586671803     -2.46164614409059
| 42>   H           4.23326832516238     -1.54121604805742      1.00712185652966
| 43>   H           1.95506090376668     -1.22888467295048      2.06323451511955
| 44>   H           6.74516354487276     -1.32758662538384     -1.25858488705307
| 45> **                         ****END OF INPUT****
================================================================================

                       ****************************
                       * Single Point Calculation *
                       ****************************

---------------------------------
CARTESIAN COORDINATES (ANGSTROEM)
---------------------------------
  C     -3.196916   -3.310607   -0.517184
  C     -2.200612   -2.764702   -1.344636
  C     -1.343208   -1.768563   -0.849706
  C     -1.490814   -1.311481    0.475469
  C     -2.479489   -1.871627    1.309756
  C     -3.332277   -2.867595    0.810237
  P     -0.456127    0.004177    1.217301
  O     -0.344478   -0.095912    2.728703
  C     -1.173892    1.588279    0.644940
  C     -1.002373    2.697975    1.497363
  C     -1.499552    3.953680    1.116970
  C     -2.172085    4.103665   -0.108585
  C     -2.358119    2.994442   -0.951350
  C     -1.864562    1.734627   -0.574979
  C      1.168897   -0.125469    0.372728
  C      1.437343    0.437048   -0.892369
  C      2.698853    0.269835   -1.476011
  C      3.703388   -0.449616   -0.796272
  C      3.440255   -0.994092    0.478761
  C      2.177316   -0.829300    1.061736
  C      5.029745   -0.596636   -1.468509
  O      5.305232   -0.147317   -2.569155
  O      5.924415   -1.297462   -0.720533
  H     -3.865455   -4.093717   -0.906650
  H     -2.083950   -3.123185   -2.378869
  H     -0.547206   -1.359898   -1.491268
  H     -2.554609   -1.523278    2.351571
  H     -4.103684   -3.305880    1.461952
  H     -0.489405    2.553638    2.460854
  H     -1.366721    4.820246    1.782764
  H     -2.562602    5.089475   -0.404520
  H     -2.899110    3.108739   -1.903209
  H     -2.033130    0.860621   -1.222895
  H      0.663893    1.021892   -1.413400
  H      2.937549    0.695686   -2.461646
  H      4.233268   -1.541216    1.007122
  H      1.955061   -1.228885    2.063235
  H      6.745164   -1.327587   -1.258585

----------------------------
CARTESIAN COORDINATES (A.U.)
----------------------------
  NO LB      ZA    FRAG     MASS         X           Y           Z
   0 C     6.0000    0    12.011   -6.041296   -6.256141   -0.977336
   1 C     6.0000    0    12.011   -4.158554   -5.224530   -2.540993
   2 C     6.0000    0    12.011   -2.538295   -3.342099   -1.605712
   3 C     6.0000    0    12.011   -2.817230   -2.478341    0.898506
   4 C     6.0000    0    12.011   -4.685555   -3.536862    2.475080
   5 C     6.0000    0    12.011   -6.297092   -5.418969    1.531126
   6 P    15.0000    0    30.974   -0.861955    0.007893    2.300365
   7 O     8.0000    0    15.999   -0.650968   -0.181248    5.156501
   8 C     6.0000    0    12.011   -2.218335    3.001412    1.218761
   9 C     6.0000    0    12.011   -1.894210    5.098433    2.829605
  10 C     6.0000    0    12.011   -2.833742    7.471372    2.110767
  11 C     6.0000    0    12.011   -4.104646    7.754803   -0.205196
  12 C     6.0000    0    12.011   -4.456198    5.658675   -1.797792
  13 C     6.0000    0    12.011   -3.523511    3.277970   -1.086554
  14 C     6.0000    0    12.011    2.208895   -0.237102    0.704353
  15 C     6.0000    0    12.011    2.716184    0.825902   -1.686333
  16 C     6.0000    0    12.011    5.100092    0.509914   -2.789256
  17 C     6.0000    0    12.011    6.998388   -0.849652   -1.504736
  18 C     6.0000    0    12.011    6.501140   -1.878561    0.904728
  19 C     6.0000    0    12.011    4.114530   -1.567151    2.006391
  20 C     6.0000    0    12.011    9.504840   -1.127479   -2.775079
  21 O     8.0000    0    15.999   10.025435   -0.278389   -4.854998
  22 O     8.0000    0    15.999   11.195522   -2.451848   -1.361610
  23 H     1.0000    0     1.008   -7.304652   -7.736005   -1.713319
  24 H     1.0000    0     1.008   -3.938094   -5.901965   -4.495410
  25 H     1.0000    0     1.008   -1.034070   -2.569835   -2.818088
  26 H     1.0000    0     1.008   -4.827511   -2.878579    4.443825
  27 H     1.0000    0     1.008   -7.754839   -6.247208    2.762689
  28 H     1.0000    0     1.008   -0.924842    4.825677    4.650340
  29 H     1.0000    0     1.008   -2.582729    9.108946    3.368936
  30 H     1.0000    0     1.008   -4.842616    9.617714   -0.764432
  31 H     1.0000    0     1.008   -5.478523    5.874666   -3.596543
  32 H     1.0000    0     1.008   -3.842060    1.626338   -2.310937
  33 H     1.0000    0     1.008    1.254576    1.931095   -2.670938
  34 H     1.0000    0     1.008    5.551164    1.314656   -4.651837
  35 H     1.0000    0     1.008    7.999718   -2.912476    1.903184
  36 H     1.0000    0     1.008    3.694530   -2.322255    3.898948
  37 H     1.0000    0     1.008   12.746512   -2.508775   -2.378381

--------------------------------
INTERNAL COORDINATES (ANGSTROEM)
--------------------------------
 C      0   0   0     0.000000000000     0.00000000     0.00000000
 C      1   0   0     1.405457429287     0.00000000     0.00000000
 C      2   1   0     1.404418472219   120.05288824     0.00000000
 C      3   2   1     1.409538867960   119.82755297   359.55303367
 C      4   3   2     1.409707845112   120.06527131     1.24558476
 C      5   4   3     1.403110657546   119.84250774   358.82232768
 P      4   3   2     1.830805130026   123.69645408   181.30114380
 O      7   4   3     1.518822042196   113.41593251   206.03258081
 C      7   4   3     1.830891117364   105.87452964    81.08354103
 C      9   7   4     1.409775704183   116.38017051   151.58453727
 C     10   9   7     1.403097072533   119.82934427   178.69258962
 C     11  10   9     1.405980404859   120.08508238     0.27081697
 C     12  11  10     1.405431705707   120.12049043     0.52209937
 C     13  12  11     1.404416554931   120.05027772   359.57954469
 C      7   4   3     1.835977633497   105.25279814   329.84010133
 C     15   7   4     1.410304801956   123.57024295    81.79379994
 C     16  15   7     1.400001702033   119.85719472   181.16891550
 C     17  16  15     1.410228594477   120.12232574   359.45977349
 C     18  17  16     1.411170849299   119.96842373   359.54605679
 C     19  18  17     1.400725312351   119.91893221     0.58442335
 C     18  17  16     1.494235411589   117.75157980   179.95506768
 O     21  18  17     1.220328625447   124.74480158   359.43442372
 O     21  18  17     1.360536376872   112.77146872   179.50301694
 H      1   2   3     1.100858720242   119.90183349   180.20470225
 H      2   1   3     1.100798872423   120.11760240   179.42131233
 H      3   2   1     1.101011487372   119.95353525   178.47755168
 H      5   4   3     1.101075937162   118.82275466   177.96062746
 H      6   5   4     1.100860709723   119.85045285   179.93425841
 H     10   9   7     1.101037826589   118.85603353   357.81886319
 H     11  10   9     1.100846882277   119.85236806   179.93846767
 H     12  11  10     1.100864260822   119.96922798   179.91649154
 H     13  12  11     1.100803960682   120.10703141   178.99830722
 H     14  13  12     1.100952614338   120.03992993   178.41160782
 H     16  15   7     1.100790039213   120.18274296     2.26149567
 H     17  16  15     1.099910297837   121.52551531   179.93212026
 H     19  18  17     1.098808379294   119.47241693   180.84560877
 H     20  19  18     1.100937583401   121.19302262   181.16128558
 H     23  21  18     0.981853113274   105.32080598   179.98555431

---------------------------
INTERNAL COORDINATES (A.U.)
---------------------------
 C      0   0   0     0.000000000000     0.00000000     0.00000000
 C      1   0   0     2.655929634238     0.00000000     0.00000000
 C      2   1   0     2.653966289913   120.05288824     0.00000000
 C      3   2   1     2.663642435562   119.82755297   359.55303367
 C      4   3   2     2.663961756103   120.06527131     1.24558476
 C      5   4   3     2.651494878349   119.84250774   358.82232768
 P      4   3   2     3.459720300327   123.69645408   181.30114380
 O      7   4   3     2.870157705913   113.41593251   206.03258081
 C      7   4   3     3.459882792846   105.87452964    81.08354103
 C      9   7   4     2.664089991162   116.38017051   151.58453727
 C     10   9   7     2.651469206394   119.82934427   178.69258962
 C     11  10   9     2.656917914843   120.08508238     0.27081697
 C     12  11  10     2.655881023715   120.12049043     0.52209937
 C     13  12  11     2.653962666765   120.05027772   359.57954469
 C      7   4   3     3.469494915314   105.25279814   329.84010133
 C     15   7   4     2.665089841051   123.57024295    81.79379994
 C     16  15   7     2.645619803865   119.85719472   181.16891550
 C     17  16  15     2.664945829787   120.12232574   359.45977349
 C     18  17  16     2.666726433348   119.96842373   359.54605679
 C     19  18  17     2.646987229194   119.91893221     0.58442335
 C     18  17  16     2.823695707510   117.75157980   179.95506768
 O     21  18  17     2.306086895480   124.74480158   359.43442372
 O     21  18  17     2.571041147525   112.77146872   179.50301694
 H      1   2   3     2.080321493397   119.90183349   180.20470225
 H      2   1   3     2.080208397409   120.11760240   179.42131233
 H      3   2   1     2.080610181435   119.95353525   178.47755168
 H      5   4   3     2.080731973888   118.82275466   177.96062746
 H      6   5   4     2.080325252970   119.85045285   179.93425841
 H     10   9   7     2.080659955342   118.85603353   357.81886319
 H     11  10   9     2.080299122884   119.85236806   179.93846767
 H     12  11  10     2.080331963575   119.96922798   179.91649154
 H     13  12  11     2.080218012825   120.10703141   178.99830722
 H     14  13  12     2.080498927523   120.03992993   178.41160782
 H     16  15   7     2.080191705062   120.18274296     2.26149567
 H     17  16  15     2.078529234792   121.52551531   179.93212026
 H     19  18  17     2.076446910524   119.47241693   180.84560877
 H     20  19  18     2.080470523169   121.19302262   181.16128558
 H     23  21  18     1.855433487825   105.32080598   179.98555431

---------------------
BASIS SET INFORMATION
---------------------
There are 4 groups of distinct atoms

 Group   1 Type C   : 11s6p2d1f contracted to 5s3p2d1f pattern {62111/411/11/1}
 Group   2 Type P   : 14s9p3d1f contracted to 5s5p2d1f pattern {73211/51111/21/1}
 Group   3 Type O   : 11s6p2d1f contracted to 5s3p2d1f pattern {62111/411/11/1}
 Group   4 Type H   : 5s1p contracted to 3s1p pattern {311/1}

Atom   0C    basis set group =>   1
Atom   1C    basis set group =>   1
Atom   2C    basis set group =>   1
Atom   3C    basis set group =>   1
Atom   4C    basis set group =>   1
Atom   5C    basis set group =>   1
Atom   6P    basis set group =>   2
Atom   7O    basis set group =>   3
Atom   8C    basis set group =>   1
Atom   9C    basis set group =>   1
Atom  10C    basis set group =>   1
Atom  11C    basis set group =>   1
Atom  12C    basis set group =>   1
Atom  13C    basis set group =>   1
Atom  14C    basis set group =>   1
Atom  15C    basis set group =>   1
Atom  16C    basis set group =>   1
Atom  17C    basis set group =>   1
Atom  18C    basis set group =>   1
Atom  19C    basis set group =>   1
Atom  20C    basis set group =>   1
Atom  21O    basis set group =>   3
Atom  22O    basis set group =>   3
Atom  23H    basis set group =>   4
Atom  24H    basis set group =>   4
Atom  25H    basis set group =>   4
Atom  26H    basis set group =>   4
Atom  27H    basis set group =>   4
Atom  28H    basis set group =>   4
Atom  29H    basis set group =>   4
Atom  30H    basis set group =>   4
Atom  31H    basis set group =>   4
Atom  32H    basis set group =>   4
Atom  33H    basis set group =>   4
Atom  34H    basis set group =>   4
Atom  35H    basis set group =>   4
Atom  36H    basis set group =>   4
Atom  37H    basis set group =>   4
---------------------------------
AUXILIARY/J BASIS SET INFORMATION
---------------------------------
There are 4 groups of distinct atoms

 Group   1 Type C   : 12s5p4d2f1g contracted to 6s4p3d1f1g pattern {711111/2111/211/2/1}
 Group   2 Type P   : 14s5p5d2f1g contracted to 8s4p3d1f1g pattern {71111111/2111/311/2/1}
 Group   3 Type O   : 12s5p4d2f1g contracted to 6s4p3d1f1g pattern {711111/2111/211/2/1}
 Group   4 Type H   : 5s2p1d contracted to 3s1p1d pattern {311/2/1}

Atom   0C    basis set group =>   1
Atom   1C    basis set group =>   1
Atom   2C    basis set group =>   1
Atom   3C    basis set group =>   1
Atom   4C    basis set group =>   1
Atom   5C    basis set group =>   1
Atom   6P    basis set group =>   2
Atom   7O    basis set group =>   3
Atom   8C    basis set group =>   1
Atom   9C    basis set group =>   1
Atom  10C    basis set group =>   1
Atom  11C    basis set group =>   1
Atom  12C    basis set group =>   1
Atom  13C    basis set group =>   1
Atom  14C    basis set group =>   1
Atom  15C    basis set group =>   1
Atom  16C    basis set group =>   1
Atom  17C    basis set group =>   1
Atom  18C    basis set group =>   1
Atom  19C    basis set group =>   1
Atom  20C    basis set group =>   1
Atom  21O    basis set group =>   3
Atom  22O    basis set group =>   3
Atom  23H    basis set group =>   4
Atom  24H    basis set group =>   4
Atom  25H    basis set group =>   4
Atom  26H    basis set group =>   4
Atom  27H    basis set group =>   4
Atom  28H    basis set group =>   4
Atom  29H    basis set group =>   4
Atom  30H    basis set group =>   4
Atom  31H    basis set group =>   4
Atom  32H    basis set group =>   4
Atom  33H    basis set group =>   4
Atom  34H    basis set group =>   4
Atom  35H    basis set group =>   4
Atom  36H    basis set group =>   4
Atom  37H    basis set group =>   4


           ************************************************************
           *        Program running with 6 parallel MPI-processes     *
           *              working on a common directory               *
           ************************************************************
------------------------------------------------------------------------------
                             ORCA STARTUP CALCULATIONS
                           -- RI-GTO INTEGRALS CHOSEN --
------------------------------------------------------------------------------
------------------------------------------------------------------------------
                   ___                                                        
                  /   \      - P O W E R E D   B Y -                         
                 /     \                                                     
                 |  |  |   _    _      __       _____    __    __             
                 |  |  |  | |  | |    /  \     |  _  \  |  |  /  |          
                  \  \/   | |  | |   /    \    | | | |  |  | /  /          
                 / \  \   | |__| |  /  /\  \   | |_| |  |  |/  /          
                |  |  |   |  __  | /  /__\  \  |    /   |      \           
                |  |  |   | |  | | |   __   |  |    \   |  |\   \          
                \     /   | |  | | |  |  |  |  | |\  \  |  | \   \       
                 \___/    |_|  |_| |__|  |__|  |_| \__\ |__|  \__/        
                                                                              
                      - O R C A' S   B I G   F R I E N D -                    
                                      &                                       
                       - I N T E G R A L  F E E D E R -                       
                                                                              
 v1 FN, 2020, v2 2021, v3 2022-2024                                           
------------------------------------------------------------------------------


----------------------
SHARK INTEGRAL PACKAGE
----------------------

Number of atoms                             ...     38
Number of basis functions                   ...    809
Number of shells                            ...    315
Maximum angular momentum                    ...      3
Integral batch strategy                     ... SHARK/LIBINT Hybrid
RI-J (if used) integral strategy            ... SPLIT-RIJ (Revised 2003 algorithm where possible)
Printlevel                                  ...      1
Contraction scheme used                     ... SEGMENTED contraction
Prescreening option                         ... SCHWARTZ
   Thresh                                   ... 1.000e-10
   Tcut                                     ... 1.000e-11
   Tpresel                                  ... 1.000e-11 
Coulomb Range Separation                    ... NOT USED
Exchange Range Separation                   ... NOT USED
Multipole approximations                    ... NOT USED
Finite Nucleus Model                        ... NOT USED
CABS basis                                  ... NOT available
Auxiliary Coulomb fitting basis             ... AVAILABLE
   # of basis functions in Aux-J            ...   1294
   # of shells in Aux-J                     ...    422
   Maximum angular momentum in Aux-J        ...      4
Auxiliary J/K fitting basis                 ... NOT available
Auxiliary Correlation fitting basis         ... NOT available
Auxiliary 'external' fitting basis          ... NOT available

Checking pre-screening integrals            ... done (  0.0 sec) Dimension = 315
Check shell pair data                       ... done (  0.0 sec)
Shell pair information
Shell pair cut-off parameter TPreSel        ...   1.0e-11
Total number of shell pairs                 ...     49770
Shell pairs after pre-screening             ...     33291
Total number of primitive shell pairs       ...    155968
Primitive shell pairs kept                  ...     68010
          la=0 lb=0:   8268 shell pairs
          la=1 lb=0:   9660 shell pairs
          la=1 lb=1:   2852 shell pairs
          la=2 lb=0:   4686 shell pairs
          la=2 lb=1:   2807 shell pairs
          la=2 lb=2:    710 shell pairs
          la=3 lb=0:   2195 shell pairs
          la=3 lb=1:   1328 shell pairs
          la=3 lb=2:    632 shell pairs
          la=3 lb=3:    153 shell pairs

Calculating one electron integrals          ... done (  0.1 sec)
Calculating RI/J V-Matrix + Cholesky decomp.... done (  0.1 sec)
Calculating Nuclear repulsion               ... done (  0.0 sec) ENN=   1917.973009495073 Eh

Diagonalization of the overlap matrix:
Smallest eigenvalue                        ... 7.284e-06
Time for diagonalization                   ...    0.139 sec
Threshold for overlap eigenvalues          ... 1.000e-07
Number of eigenvalues below threshold      ... 0
Time for construction of square roots      ...    0.063 sec
Total time needed                          ...    0.209 sec

-------------------
DFT GRID GENERATION
-------------------

General Integration Accuracy     IntAcc      ... 4.388
Radial Grid Type                 RadialGrid  ... OptM3 with GC (2021)
Angular Grid (max. ang.)         AngularGrid ... 4 (Lebedev-302)
Angular grid pruning method      GridPruning ... 4 (adaptive)
Weight generation scheme         WeightScheme... mBecke (2022)
Basis function cutoff            BFCut       ... 1.0000e-10
Integration weight cutoff        WCut        ... 1.0000e-14
Partially contracted basis set               ... off
Rotationally invariant grid construction     ... off
Angular grids for H and He will be reduced by one unit

Total number of grid points                  ...   186819
Total number of batches                      ...     2938
Average number of points per batch           ...       63
Average number of grid points per atom       ...     4916

--------------------
COSX GRID GENERATION
--------------------

GRIDX 1
-------
General Integration Accuracy     IntAcc      ... 3.816
Radial Grid Type                 RadialGrid  ... OptM3 with GC (2021)
Angular Grid (max. ang.)         AngularGrid ... 1 (Lebedev-50)
Angular grid pruning method      GridPruning ... 4 (adaptive)
Weight generation scheme         WeightScheme... mBecke (2022)
Basis function cutoff            BFCut       ... 1.0000e-10
Integration weight cutoff        WCut        ... 1.0000e-14
Partially contracted basis set               ... on
Rotationally invariant grid construction     ... off
Angular grids for H and He will be reduced by one unit

Total number of grid points                  ...    24690
Total number of batches                      ...      212
Average number of points per batch           ...      116
Average number of grid points per atom       ...      650
UseSFitting                                  ... on

GRIDX 2
-------
General Integration Accuracy     IntAcc      ... 4.020
Radial Grid Type                 RadialGrid  ... OptM3 with GC (2021)
Angular Grid (max. ang.)         AngularGrid ... 2 (Lebedev-110)
Angular grid pruning method      GridPruning ... 4 (adaptive)
Weight generation scheme         WeightScheme... mBecke (2022)
Basis function cutoff            BFCut       ... 1.0000e-10
Integration weight cutoff        WCut        ... 1.0000e-14
Partially contracted basis set               ... on
Rotationally invariant grid construction     ... off
Angular grids for H and He will be reduced by one unit

Total number of grid points                  ...    51874
Total number of batches                      ...      425
Average number of points per batch           ...      122
Average number of grid points per atom       ...     1365
UseSFitting                                  ... on

GRIDX 3
-------
General Integration Accuracy     IntAcc      ... 4.338
Radial Grid Type                 RadialGrid  ... OptM3 with GC (2021)
Angular Grid (max. ang.)         AngularGrid ... 3 (Lebedev-194)
Angular grid pruning method      GridPruning ... 4 (adaptive)
Weight generation scheme         WeightScheme... mBecke (2022)
Basis function cutoff            BFCut       ... 1.0000e-10
Integration weight cutoff        WCut        ... 1.0000e-14
Partially contracted basis set               ... on
Rotationally invariant grid construction     ... off
Angular grids for H and He will be reduced by one unit

Total number of grid points                  ...   113992
Total number of batches                      ...      912
Average number of points per batch           ...      124
Average number of grid points per atom       ...     3000
UseSFitting                                  ... on
Initializing property integral containers    ... done (  0.0 sec)

SHARK setup successfully completed in   4.7 seconds

Maximum memory used throughout the entire STARTUP-calculation: 77.3 MB


           ************************************************************
           *        Program running with 6 parallel MPI-processes     *
           *              working on a common directory               *
           ************************************************************
-------------------------------------------------------------------------------
                                 ORCA GUESS
                   Start orbitals & Density for SCF / CASSCF
-------------------------------------------------------------------------------

------------
SCF SETTINGS
------------
Hamiltonian:
 Density Functional     Method          .... DFT(GTOs)
 Exchange Functional    Exchange        .... M062X
 Correlation Functional Correlation     .... M062X
 Gradients option       PostSCFGGA      .... off
 Hybrid DFT is turned on
   Fraction HF Exchange ScalHFX         ....  0.540000
   Scaling of DF-GGA-X  ScalDFX         ....  0.460000
   Scaling of DF-GGA-C  ScalDFC         ....  1.000000
   Scaling of DF-LDA-C  ScalLDAC        ....  1.000000
   Perturbative correction              ....  0.000000
 RI-approximation to the Coulomb term is turned on
   Number of AuxJ basis functions       .... 1294
   RIJ-COSX (HFX calculated with COS-X)).... on


General Settings:
 Integral files         IntName         .... data/single_point_PO_M06-2x/627824/627824
 Hartree-Fock type      HFTyp           .... RHF
 Total Charge           Charge          ....    0
 Multiplicity           Mult            ....    1
 Number of Electrons    NEL             ....  168
 Basis Dimension        Dim             ....  809
 Nuclear Repulsion      ENuc            ....   1917.9730094951 Eh

Convergence Acceleration:
 AO-DIIS                CNVDIIS         .... on
   Start iteration      DIISMaxIt       ....    12
   Startup error        DIISStart       ....  0.200000
   # of expansion vecs  DIISMaxEq       ....     5
   Bias factor          DIISBfac        ....   1.050
   Max. coefficient     DIISMaxC        ....  10.000
 MO-DIIS                CNVKDIIS        .... off
 Trust-Rad. Augm. Hess. CNVTRAH         .... auto
   Auto Start mean grad. ratio tolernc. ....  1.125000
   Auto Start start iteration           ....    50
   Auto Start num. interpolation iter.  ....    10
   Max. Number of Micro iterations      ....    24
   Max. Number of Macro iterations      .... Maxiter - #DIIS iter
   Number of Davidson start vectors     ....     2
   Converg. threshold    (grad. norm)   ....   5.000e-05
   Grad. Scal. Fac. for Micro threshold ....   0.100
   Minimum threshold for Micro iter.    ....   1.000e-02
   NR start threshold (gradient norm)   ....   1.000e-04
   Initial trust radius                 ....   0.400
   Minimum AH scaling param. (alpha)    ....   1.000
   Maximum AH scaling param. (alpha)    .... 1000.000
   Quad. conv. algorithm                .... NR
   White noise on init. David. guess    .... on
   Maximum white noise                  ....   0.010
   Pseudo random numbers                .... off
   Inactive MOs                         .... canonical
   Orbital update algorithm             .... Taylor
   Preconditioner                       .... Diag
   Full preconditioner red. dimension   ....   250
 SOSCF                  CNVSOSCF        .... on
   Start iteration      SOSCFMaxIt      ....   150
   Startup grad/error   SOSCFStart      ....  0.003300
   Hessian update       SOSCFHessUp     .... L-BFGS
 Level Shifting         CNVShift        .... on
   Level shift para.    LevelShift      ....    0.2500
   Turn off err/grad.   ShiftErr        ....    0.0010
 Zerner damping         CNVZerner       .... off
 Static damping         CNVDamp         .... on
   Fraction old density DampFac         ....    0.7000
   Max. Damping (<1)    DampMax         ....    0.9800
   Min. Damping (>=0)   DampMin         ....    0.0000
   Turn off err/grad.   DampErr         ....    0.1000

SCF Procedure:
 Maximum # iterations   MaxIter         ....   125
 SCF integral mode      SCFMode         .... Direct
   Integral package                     .... SHARK and LIBINT hybrid scheme
 Reset frequency        DirectResetFreq ....    20
 Integral Threshold     Thresh          ....  1.000e-10 Eh
 Primitive CutOff       TCut            ....  1.000e-11 Eh

Convergence Tolerance:
 Convergence Check Mode ConvCheckMode   .... Total+1el-Energy
 Convergence forced     ConvForced      .... 0
 Energy Change          TolE            ....  1.000e-06 Eh
 1-El. energy change                    ....  1.000e-03 Eh
 Orbital Gradient       TolG            ....  5.000e-05
 Orbital Rotation angle TolX            ....  5.000e-05
 DIIS Error             TolErr          ....  1.000e-05

------------------------------
INITIAL GUESS: MODEL POTENTIAL
------------------------------
Loading Hartree-Fock densities                     ... done
Calculating cut-offs                               ... done
Initializing the effective Hamiltonian             ... done
Setting up the integral package (SHARK)            ... done
Starting the Coulomb interaction                   ... done (   0.6 sec)
Making the grid                                    ... done (   0.3 sec)
Mapping shells                                     ... done
Starting the XC term evaluation                    ... done (   0.5 sec)
  promolecular density results
     # of electrons  =    167.979065262
     EX              =   -148.491144606
     EC              =     -5.690689479
     EX+EC           =   -154.181834085
Transforming the Hamiltonian                       ... done (   0.1 sec)
Diagonalizing the Hamiltonian                      ... done (   0.1 sec)
Back transforming the eigenvectors                 ... done (   0.0 sec)
Now organizing SCF variables                       ... done
                      ------------------
                      INITIAL GUESS DONE (   1.7 sec)
                      ------------------
             **** ENERGY FILE WAS UPDATED (data/single_point_PO_M06-2x/627824/627824.en.tmp) ****
Finished Guess after   2.0 sec
Maximum memory used throughout the entire GUESS-calculation: 60.2 MB


           ************************************************************
           *        Program running with 6 parallel MPI-processes     *
           *              working on a common directory               *
           ************************************************************

-------------------------------------------------------------------------------------------
                                      ORCA LEAN-SCF
                              memory conserving SCF solver
-------------------------------------------------------------------------------------------

----------------------------------------D-I-I-S--------------------------------------------
Iteration    Energy (Eh)           Delta-E    RMSDP     MaxDP     DIISErr   Damp  Time(sec)
-------------------------------------------------------------------------------------------
               ***  Starting incremental Fock matrix formation  ***
    1    -1299.4731852520990287     0.00e+00  1.44e-03  8.74e-02  3.62e-01  0.700  19.5
    2    -1299.7493077133431143    -2.76e-01  1.19e-03  8.33e-02  1.56e-01  0.700  10.5
                               ***Turning on AO-DIIS***
    3    -1299.8703334622650800    -1.21e-01  6.66e-04  2.25e-02  4.60e-02  0.700  10.6
    4    -1299.9438958943383113    -7.36e-02  1.49e-03  5.44e-02  3.19e-02  0.000   9.7
    5    -1300.1042211992585180    -1.60e-01  1.58e-04  1.82e-02  7.87e-03  0.000  11.1
                              *** Initializing SOSCF ***
---------------------------------------S-O-S-C-F--------------------------------------
Iteration    Energy (Eh)           Delta-E    RMSDP     MaxDP     MaxGrad    Time(sec)
--------------------------------------------------------------------------------------
    6    -1300.1047215217204212    -5.00e-04  5.16e-05  6.79e-03  1.09e-03     9.0
               *** Restarting incremental Fock matrix formation ***
    7    -1300.1047221261792401    -6.04e-07  1.18e-04  5.94e-03  2.45e-04    18.6
    8    -1300.1047277245988880    -5.60e-06  5.59e-05  3.39e-03  2.95e-04    14.2
    9    -1300.1047323358952781    -4.61e-06  4.86e-05  2.49e-03  4.65e-05    13.5
   10    -1300.1047326028833595    -2.67e-07  1.01e-05  5.02e-04  4.57e-05    12.2
                 **** Energy Check signals convergence ****

               *****************************************************
               *                     SUCCESS                       *
               *           SCF CONVERGED AFTER  10 CYCLES          *
               *****************************************************

Recomputing exchange energy using gridx3       ... done (   28.055 sec)
Old exchange energy                            :    -81.573291406 Eh
New exchange energy                            :    -81.573203653 Eh
Exchange energy change after final integration :      0.000087753 Eh
Total energy after final integration           :  -1300.104644850 Eh
             **** ENERGY FILE WAS UPDATED (data/single_point_PO_M06-2x/627824/627824.en.tmp) ****

----------------
TOTAL SCF ENERGY
----------------

Total Energy       :      -1300.10464484991212 Eh          -35377.64595 eV

Components:
Nuclear Repulsion  :       1917.97300949507326 Eh           52190.69891 eV
Electronic Energy  :      -3218.07774209795662 Eh          -87568.34725 eV
One Electron Energy:      -5585.94003937180605 Eh         -152001.15606 eV
Two Electron Energy:       2367.86229727384944 Eh           64432.80881 eV

Virial components:
Potential Energy   :      -2593.67860127067252 Eh          -70577.58284 eV
Kinetic Energy     :       1293.57395642076040 Eh           35199.93688 eV
Virial Ratio       :          2.00504856208393

DFT components:
N(Alpha)           :       84.000060260292 electrons
N(Beta)            :       84.000060260292 electrons
N(Total)           :      168.000120520585 electrons
E(XC)              :      -75.723019171382 Eh       

---------------
SCF CONVERGENCE
---------------

  Last Energy change         ...    2.6699e-07  Tolerance :   1.0000e-06
  Last MAX-Density change    ...    5.0159e-04  Tolerance :   1.0000e-05
  Last RMS-Density change    ...    1.0093e-05  Tolerance :   1.0000e-06
  Last DIIS Error            ...    1.0877e-03  Tolerance :   1.0000e-05
  Last Orbital Gradient      ...    4.5706e-05  Tolerance :   5.0000e-05
  Last Orbital Rotation      ...    7.6269e-05  Tolerance :   5.0000e-05


----------------
ORBITAL ENERGIES
----------------

  NO   OCC          E(Eh)            E(eV) 
   0   2.0000     -78.104380     -2125.3282 
   1   2.0000     -19.685335      -535.6652 
   2   2.0000     -19.629487      -534.1455 
   3   2.0000     -19.573718      -532.6280 
   4   2.0000     -10.693167      -290.9759 
   5   2.0000     -10.580249      -287.9032 
   6   2.0000     -10.573595      -287.7221 
   7   2.0000     -10.572707      -287.6980 
   8   2.0000     -10.571684      -287.6701 
   9   2.0000     -10.570945      -287.6500 
  10   2.0000     -10.568710      -287.5892 
  11   2.0000     -10.568119      -287.5731 
  12   2.0000     -10.567982      -287.5694 
  13   2.0000     -10.565614      -287.5050 
  14   2.0000     -10.565251      -287.4951 
  15   2.0000     -10.564757      -287.4817 
  16   2.0000     -10.564500      -287.4747 
  17   2.0000     -10.563350      -287.4434 
  18   2.0000     -10.563060      -287.4355 
  19   2.0000     -10.563015      -287.4342 
  20   2.0000     -10.562882      -287.4306 
  21   2.0000     -10.561171      -287.3841 
  22   2.0000     -10.560912      -287.3770 
  23   2.0000      -6.910668      -188.0488 
  24   2.0000      -5.027827      -136.8141 
  25   2.0000      -5.027751      -136.8121 
  26   2.0000      -5.026070      -136.7663 
  27   2.0000      -1.240627       -33.7592 
  28   2.0000      -1.145292       -31.1650 
  29   2.0000      -1.069561       -29.1042 
  30   2.0000      -0.980294       -26.6751 
  31   2.0000      -0.970294       -26.4030 
  32   2.0000      -0.967238       -26.3199 
  33   2.0000      -0.887093       -24.1390 
  34   2.0000      -0.863540       -23.4981 
  35   2.0000      -0.860949       -23.4276 
  36   2.0000      -0.854242       -23.2451 
  37   2.0000      -0.853438       -23.2232 
  38   2.0000      -0.850085       -23.1320 
  39   2.0000      -0.770082       -20.9550 
  40   2.0000      -0.727317       -19.7913 
  41   2.0000      -0.712104       -19.3773 
  42   2.0000      -0.701450       -19.0874 
  43   2.0000      -0.698935       -19.0190 
  44   2.0000      -0.689469       -18.7614 
  45   2.0000      -0.676114       -18.3980 
  46   2.0000      -0.644287       -17.5319 
  47   2.0000      -0.615695       -16.7539 
  48   2.0000      -0.603768       -16.4294 
  49   2.0000      -0.594291       -16.1715 
  50   2.0000      -0.585892       -15.9429 
  51   2.0000      -0.550402       -14.9772 
  52   2.0000      -0.545355       -14.8399 
  53   2.0000      -0.540317       -14.7028 
  54   2.0000      -0.536314       -14.5938 
  55   2.0000      -0.532600       -14.4928 
  56   2.0000      -0.527451       -14.3527 
  57   2.0000      -0.525548       -14.3009 
  58   2.0000      -0.517755       -14.0888 
  59   2.0000      -0.505680       -13.7603 
  60   2.0000      -0.499994       -13.6055 
  61   2.0000      -0.498503       -13.5650 
  62   2.0000      -0.494656       -13.4603 
  63   2.0000      -0.488103       -13.2820 
  64   2.0000      -0.465380       -12.6636 
  65   2.0000      -0.454680       -12.3725 
  66   2.0000      -0.453305       -12.3351 
  67   2.0000      -0.447593       -12.1796 
  68   2.0000      -0.432887       -11.7795 
  69   2.0000      -0.421444       -11.4681 
  70   2.0000      -0.418259       -11.3814 
  71   2.0000      -0.414854       -11.2887 
  72   2.0000      -0.412121       -11.2144 
  73   2.0000      -0.411474       -11.1968 
  74   2.0000      -0.407943       -11.1007 
  75   2.0000      -0.371360       -10.1052 
  76   2.0000      -0.347663        -9.4604 
  77   2.0000      -0.346351        -9.4247 
  78   2.0000      -0.330451        -8.9920 
  79   2.0000      -0.327929        -8.9234 
  80   2.0000      -0.324644        -8.8340 
  81   2.0000      -0.321395        -8.7456 
  82   2.0000      -0.320232        -8.7139 
  83   2.0000      -0.316921        -8.6239 
  84   0.0000      -0.045325        -1.2334 
  85   0.0000      -0.017193        -0.4679 
  86   0.0000      -0.007306        -0.1988 
  87   0.0000      -0.004387        -0.1194 
  88   0.0000       0.005301         0.1442 
  89   0.0000       0.007133         0.1941 
  90   0.0000       0.060139         1.6365 
  91   0.0000       0.062895         1.7115 
  92   0.0000       0.069641         1.8950 
  93   0.0000       0.079449         2.1619 
  94   0.0000       0.087730         2.3873 
*Only the first 10 virtual orbitals were printed.

                    ********************************
                    * MULLIKEN POPULATION ANALYSIS *
                    ********************************

-----------------------
MULLIKEN ATOMIC CHARGES
-----------------------
   0 C :   -0.133710
   1 C :   -0.150115
   2 C :   -0.202686
   3 C :   -0.062868
   4 C :   -0.150692
   5 C :   -0.135733
   6 P :    0.637403
   7 O :   -0.595550
   8 C :   -0.072009
   9 C :   -0.148657
  10 C :   -0.135142
  11 C :   -0.134445
  12 C :   -0.148163
  13 C :   -0.200254
  14 C :   -0.078441
  15 C :   -0.181413
  16 C :   -0.175128
  17 C :   -0.004034
  18 C :   -0.157639
  19 C :   -0.136867
  20 C :    0.353742
  21 O :   -0.342913
  22 O :   -0.417539
  23 H :    0.151102
  24 H :    0.150866
  25 H :    0.194516
  26 H :    0.187184
  27 H :    0.151473
  28 H :    0.186875
  29 H :    0.151780
  30 H :    0.150837
  31 H :    0.150493
  32 H :    0.197621
  33 H :    0.202081
  34 H :    0.185071
  35 H :    0.177863
  36 H :    0.190161
  37 H :    0.344926
Sum of atomic charges:   -0.0000000

--------------------------------
MULLIKEN REDUCED ORBITAL CHARGES
--------------------------------
  0 C s       :     3.227927  s :     3.227927
      pz      :     0.904627  p :     2.837936
      px      :     0.955072
      py      :     0.978237
      dz2     :     0.014469  d :     0.061575
      dxz     :     0.013459
      dyz     :     0.016572
      dx2y2   :     0.007486
      dxy     :     0.009588
      f0      :     0.001068  f :     0.006272
      f+1     :     0.001336
      f-1     :     0.000873
      f+2     :     0.000704
      f-2     :     0.000977
      f+3     :     0.000786
      f-3     :     0.000527

  1 C s       :     3.228061  s :     3.228061
      pz      :     1.003532  p :     2.855482
      px      :     0.916316
      py      :     0.935634
      dz2     :     0.012145  d :     0.060266
      dxz     :     0.009817
      dyz     :     0.010892
      dx2y2   :     0.019734
      dxy     :     0.007678
      f0      :     0.000580  f :     0.006307
      f+1     :     0.000956
      f-1     :     0.000888
      f+2     :     0.000792
      f-2     :     0.001031
      f+3     :     0.001032
      f-3     :     0.001027

  2 C s       :     3.207729  s :     3.207729
      pz      :     0.902241  p :     2.921998
      px      :     1.021621
      py      :     0.998136
      dz2     :     0.013357  d :     0.066474
      dxz     :     0.018412
      dyz     :     0.013856
      dx2y2   :     0.013075
      dxy     :     0.007773
      f0      :     0.001036  f :     0.006485
      f+1     :     0.001079
      f-1     :     0.001049
      f+2     :     0.000627
      f-2     :     0.001031
      f+3     :     0.000694
      f-3     :     0.000968

  3 C s       :     3.228242  s :     3.228242
      pz      :     0.863526  p :     2.753865
      px      :     0.948691
      py      :     0.941648
      dz2     :     0.017510  d :     0.073698
      dxz     :     0.016915
      dyz     :     0.016462
      dx2y2   :     0.011785
      dxy     :     0.011026
      f0      :     0.001111  f :     0.007064
      f+1     :     0.001464
      f-1     :     0.001038
      f+2     :     0.000803
      f-2     :     0.001079
      f+3     :     0.000856
      f-3     :     0.000714

  4 C s       :     3.211766  s :     3.211766
      pz      :     1.020028  p :     2.867906
      px      :     0.916606
      py      :     0.931272
      dz2     :     0.013928  d :     0.064490
      dxz     :     0.009895
      dyz     :     0.012318
      dx2y2   :     0.020607
      dxy     :     0.007742
      f0      :     0.000606  f :     0.006530
      f+1     :     0.000992
      f-1     :     0.000944
      f+2     :     0.000805
      f-2     :     0.000977
      f+3     :     0.001104
      f-3     :     0.001101

  5 C s       :     3.226699  s :     3.226699
      pz      :     0.924968  p :     2.843170
      px      :     0.973950
      py      :     0.944252
      dz2     :     0.013144  d :     0.059596
      dxz     :     0.015224
      dyz     :     0.011097
      dx2y2   :     0.011796
      dxy     :     0.008334
      f0      :     0.001007  f :     0.006268
      f+1     :     0.001090
      f-1     :     0.001036
      f+2     :     0.000527
      f-2     :     0.001006
      f+3     :     0.000664
      f-3     :     0.000940

  6 P s       :     5.293894  s :     5.293894
      pz      :     2.616483  p :     8.297950
      px      :     2.836744
      py      :     2.844723
      dz2     :     0.098253  d :     0.706057
      dxz     :     0.221688
      dyz     :     0.205787
      dx2y2   :     0.086273
      dxy     :     0.094056
      f0      :     0.008164  f :     0.064696
      f+1     :     0.017427
      f-1     :     0.018232
      f+2     :     0.006495
      f-2     :     0.005534
      f+3     :     0.003761
      f-3     :     0.005082

  7 O s       :     3.883115  s :     3.883115
      pz      :     1.365010  p :     4.686506
      px      :     1.659922
      py      :     1.661574
      dz2     :     0.009831  d :     0.024667
      dxz     :     0.007235
      dyz     :     0.007251
      dx2y2   :     0.000183
      dxy     :     0.000167
      f0      :     0.000529  f :     0.001262
      f+1     :     0.000350
      f-1     :     0.000350
      f+2     :     0.000015
      f-2     :     0.000015
      f+3     :     0.000001
      f-3     :     0.000001

  8 C s       :     3.231948  s :     3.231948
      pz      :     0.880263  p :     2.759084
      px      :     0.955297
      py      :     0.923524
      dz2     :     0.021104  d :     0.073900
      dxz     :     0.011489
      dyz     :     0.015022
      dx2y2   :     0.010287
      dxy     :     0.015999
      f0      :     0.001107  f :     0.007077
      f+1     :     0.000789
      f-1     :     0.001293
      f+2     :     0.001106
      f-2     :     0.001307
      f+3     :     0.000782
      f-3     :     0.000694

  9 C s       :     3.210944  s :     3.210944
      pz      :     0.997740  p :     2.866947
      px      :     0.964196
      py      :     0.905011
      dz2     :     0.011805  d :     0.064245
      dxz     :     0.008814
      dyz     :     0.015897
      dx2y2   :     0.010999
      dxy     :     0.016731
      f0      :     0.000500  f :     0.006520
      f+1     :     0.000687
      f-1     :     0.001278
      f+2     :     0.000891
      f-2     :     0.001003
      f+3     :     0.000987
      f-3     :     0.001176

 10 C s       :     3.224782  s :     3.224782
      pz      :     0.938730  p :     2.844645
      px      :     0.939548
      py      :     0.966367
      dz2     :     0.013785  d :     0.059450
      dxz     :     0.008021
      dyz     :     0.014969
      dx2y2   :     0.012438
      dxy     :     0.010237
      f0      :     0.001054  f :     0.006265
      f+1     :     0.000752
      f-1     :     0.000898
      f+2     :     0.001127
      f-2     :     0.000806
      f+3     :     0.000633
      f-3     :     0.000995

 11 C s       :     3.229854  s :     3.229854
      pz      :     0.904684  p :     2.836857
      px      :     0.946531
      py      :     0.985642
      dz2     :     0.017031  d :     0.061454
      dxz     :     0.011974
      dyz     :     0.012976
      dx2y2   :     0.009134
      dxy     :     0.010339
      f0      :     0.001059  f :     0.006279
      f+1     :     0.000681
      f-1     :     0.001201
      f+2     :     0.000965
      f-2     :     0.001119
      f+3     :     0.000759
      f-3     :     0.000496

 12 C s       :     3.227069  s :     3.227069
      pz      :     0.997949  p :     2.854851
      px      :     0.967178
      py      :     0.889723
      dz2     :     0.010592  d :     0.059942
      dxz     :     0.008080
      dyz     :     0.014017
      dx2y2   :     0.009485
      dxy     :     0.017768
      f0      :     0.000483  f :     0.006300
      f+1     :     0.000747
      f-1     :     0.001135
      f+2     :     0.000954
      f-2     :     0.000986
      f+3     :     0.000907
      f-3     :     0.001088

 13 C s       :     3.205065  s :     3.205065
      pz      :     0.920924  p :     2.922443
      px      :     0.948157
      py      :     1.053361
      dz2     :     0.013522  d :     0.066268
      dxz     :     0.008997
      dyz     :     0.019873
      dx2y2   :     0.013691
      dxy     :     0.010185
      f0      :     0.001087  f :     0.006479
      f+1     :     0.000726
      f-1     :     0.000888
      f+2     :     0.001148
      f-2     :     0.000948
      f+3     :     0.000671
      f-3     :     0.001010

 14 C s       :     3.239169  s :     3.239169
      pz      :     0.878609  p :     2.757147
      px      :     0.936956
      py      :     0.941582
      dz2     :     0.018770  d :     0.075126
      dxz     :     0.018757
      dyz     :     0.011639
      dx2y2   :     0.016274
      dxy     :     0.009686
      f0      :     0.001043  f :     0.007000
      f+1     :     0.001246
      f-1     :     0.001001
      f+2     :     0.001182
      f-2     :     0.000949
      f+3     :     0.000879
      f-3     :     0.000700

 15 C s       :     3.187072  s :     3.187072
      pz      :     0.890577  p :     2.922722
      px      :     1.056871
      py      :     0.975273
      dz2     :     0.015053  d :     0.065126
      dxz     :     0.015971
      dyz     :     0.012183
      dx2y2   :     0.007190
      dxy     :     0.014730
      f0      :     0.001029  f :     0.006492
      f+1     :     0.001274
      f-1     :     0.000661
      f+2     :     0.000909
      f-2     :     0.001110
      f+3     :     0.000564
      f-3     :     0.000946

 16 C s       :     3.230395  s :     3.230395
      pz      :     1.031084  p :     2.875488
      px      :     0.916255
      py      :     0.928149
      dz2     :     0.010870  d :     0.062819
      dxz     :     0.015351
      dyz     :     0.007176
      dx2y2   :     0.012685
      dxy     :     0.016737
      f0      :     0.000341  f :     0.006425
      f+1     :     0.001367
      f-1     :     0.000722
      f+2     :     0.000954
      f-2     :     0.000905
      f+3     :     0.001055
      f-3     :     0.001081

 17 C s       :     3.195444  s :     3.195444
      pz      :     0.905300  p :     2.730523
      px      :     0.859655
      py      :     0.965569
      dz2     :     0.014174  d :     0.069624
      dxz     :     0.018272
      dyz     :     0.010894
      dx2y2   :     0.016699
      dxy     :     0.009584
      f0      :     0.001102  f :     0.008443
      f+1     :     0.001715
      f-1     :     0.000995
      f+2     :     0.001479
      f-2     :     0.001069
      f+3     :     0.001140
      f-3     :     0.000943

 18 C s       :     3.240754  s :     3.240754
      pz      :     0.922502  p :     2.847441
      px      :     0.979707
      py      :     0.945232
      dz2     :     0.016721  d :     0.063053
      dxz     :     0.011258
      dyz     :     0.012519
      dx2y2   :     0.008141
      dxy     :     0.014414
      f0      :     0.001035  f :     0.006391
      f+1     :     0.001273
      f-1     :     0.000683
      f+2     :     0.000888
      f-2     :     0.001030
      f+3     :     0.000547
      f-3     :     0.000935

 19 C s       :     3.207591  s :     3.207591
      pz      :     1.002265  p :     2.860405
      px      :     0.905776
      py      :     0.952364
      dz2     :     0.012746  d :     0.062317
      dxz     :     0.014897
      dyz     :     0.007582
      dx2y2   :     0.011515
      dxy     :     0.015576
      f0      :     0.000371  f :     0.006554
      f+1     :     0.001416
      f-1     :     0.000723
      f+2     :     0.000941
      f-2     :     0.000873
      f+3     :     0.001117
      f-3     :     0.001112

 20 C s       :     3.011370  s :     3.011370
      pz      :     0.754596  p :     2.321556
      px      :     0.848468
      py      :     0.718492
      dz2     :     0.062611  d :     0.291215
      dxz     :     0.096708
      dyz     :     0.054677
      dx2y2   :     0.042838
      dxy     :     0.034380
      f0      :     0.003329  f :     0.022117
      f+1     :     0.005570
      f-1     :     0.003306
      f+2     :     0.003641
      f-2     :     0.002606
      f+3     :     0.001939
      f-3     :     0.001727

 21 O s       :     3.832730  s :     3.832730
      pz      :     1.329018  p :     4.477935
      px      :     1.708059
      py      :     1.440857
      dz2     :     0.011165  d :     0.030282
      dxz     :     0.006560
      dyz     :     0.008937
      dx2y2   :     0.001659
      dxy     :     0.001961
      f0      :     0.000632  f :     0.001967
      f+1     :     0.000368
      f-1     :     0.000460
      f+2     :     0.000201
      f-2     :     0.000222
      f+3     :     0.000051
      f-3     :     0.000034

 22 O s       :     3.799622  s :     3.799622
      pz      :     1.596364  p :     4.586640
      px      :     1.308714
      py      :     1.681563
      dz2     :     0.004494  d :     0.029602
      dxz     :     0.011829
      dyz     :     0.005711
      dx2y2   :     0.004420
      dxy     :     0.003148
      f0      :     0.000158  f :     0.001675
      f+1     :     0.000075
      f-1     :     0.000127
      f+2     :     0.000445
      f-2     :     0.000274
      f+3     :     0.000338
      f-3     :     0.000258

 23 H s       :     0.829213  s :     0.829213
      pz      :     0.004083  p :     0.019685
      px      :     0.007004
      py      :     0.008599

 24 H s       :     0.829381  s :     0.829381
      pz      :     0.012148  p :     0.019753
      px      :     0.003229
      py      :     0.004376

 25 H s       :     0.785307  s :     0.785307
      pz      :     0.006326  p :     0.020176
      px      :     0.009090
      py      :     0.004760

 26 H s       :     0.792295  s :     0.792295
      pz      :     0.013062  p :     0.020521
      px      :     0.003042
      py      :     0.004417

 27 H s       :     0.828753  s :     0.828753
      pz      :     0.006499  p :     0.019774
      px      :     0.008354
      py      :     0.004921

 28 H s       :     0.792643  s :     0.792643
      pz      :     0.011621  p :     0.020482
      px      :     0.005741
      py      :     0.003119

 29 H s       :     0.828450  s :     0.828450
      pz      :     0.006795  p :     0.019770
      px      :     0.003672
      py      :     0.009303

 30 H s       :     0.829487  s :     0.829487
      pz      :     0.003639  p :     0.019677
      px      :     0.004788
      py      :     0.011249

 31 H s       :     0.829770  s :     0.829770
      pz      :     0.010816  p :     0.019737
      px      :     0.006109
      py      :     0.002812

 32 H s       :     0.782159  s :     0.782159
      pz      :     0.006501  p :     0.020220
      px      :     0.003718
      py      :     0.010000

 33 H s       :     0.777576  s :     0.777576
      pz      :     0.005193  p :     0.020342
      px      :     0.008495
      py      :     0.006655

 34 H s       :     0.794535  s :     0.794535
      pz      :     0.012026  p :     0.020394
      px      :     0.003601
      py      :     0.004768

 35 H s       :     0.801867  s :     0.801867
      pz      :     0.005161  p :     0.020270
      px      :     0.009073
      py      :     0.006037

 36 H s       :     0.789156  s :     0.789156
      pz      :     0.012605  p :     0.020684
      px      :     0.003511
      py      :     0.004567

 37 H s       :     0.611934  s :     0.611934
      pz      :     0.013553  p :     0.043140
      px      :     0.017150
      py      :     0.012437



                     *******************************
                     * LOEWDIN POPULATION ANALYSIS *
                     *******************************

----------------------
LOEWDIN ATOMIC CHARGES
----------------------
   0 C :   -0.129667
   1 C :   -0.139437
   2 C :   -0.138648
   3 C :   -0.230250
   4 C :   -0.113040
   5 C :   -0.133594
   6 P :    0.687168
   7 O :   -0.304631
   8 C :   -0.230860
   9 C :   -0.113304
  10 C :   -0.133549
  11 C :   -0.129432
  12 C :   -0.139428
  13 C :   -0.138124
  14 C :   -0.212908
  15 C :   -0.131722
  16 C :   -0.075158
  17 C :   -0.120417
  18 C :   -0.080648
  19 C :   -0.108058
  20 C :   -0.433439
  21 O :    0.081507
  22 O :    0.078839
  23 H :    0.149484
  24 H :    0.149640
  25 H :    0.155255
  26 H :    0.161317
  27 H :    0.150367
  28 H :    0.161113
  29 H :    0.150367
  30 H :    0.149497
  31 H :    0.149509
  32 H :    0.155740
  33 H :    0.157990
  34 H :    0.164046
  35 H :    0.160454
  36 H :    0.163440
  37 H :    0.210581

-------------------------------
LOEWDIN REDUCED ORBITAL CHARGES
-------------------------------
  0 C s       :     2.779589  s :     2.779589
      pz      :     1.042402  p :     2.935819
      px      :     0.959671
      py      :     0.933745
      dz2     :     0.105875  d :     0.373826
      dxz     :     0.100818
      dyz     :     0.082586
      dx2y2   :     0.029085
      dxy     :     0.055462
      f0      :     0.006837  f :     0.040433
      f+1     :     0.010269
      f-1     :     0.006466
      f+2     :     0.005489
      f-2     :     0.005025
      f+3     :     0.003373
      f-3     :     0.002973

  1 C s       :     2.778063  s :     2.778063
      pz      :     0.985496  p :     2.947726
      px      :     0.992534
      py      :     0.969696
      dz2     :     0.097638  d :     0.373148
      dxz     :     0.061895
      dyz     :     0.065718
      dx2y2   :     0.075906
      dxy     :     0.071992
      f0      :     0.003732  f :     0.040500
      f+1     :     0.007869
      f-1     :     0.005692
      f+2     :     0.006428
      f-2     :     0.006267
      f+3     :     0.004523
      f-3     :     0.005988

  2 C s       :     2.775925  s :     2.775925
      pz      :     1.015567  p :     2.939375
      px      :     0.957772
      py      :     0.966036
      dz2     :     0.082128  d :     0.382458
      dxz     :     0.104789
      dyz     :     0.096293
      dx2y2   :     0.051867
      dxy     :     0.047382
      f0      :     0.007215  f :     0.040890
      f+1     :     0.008258
      f-1     :     0.007957
      f+2     :     0.003480
      f-2     :     0.005128
      f+3     :     0.003837
      f-3     :     0.005015

  3 C s       :     2.770621  s :     2.770621
      pz      :     1.048593  p :     2.984327
      px      :     0.977415
      py      :     0.958319
      dz2     :     0.114044  d :     0.431587
      dxz     :     0.109729
      dyz     :     0.096082
      dx2y2   :     0.045030
      dxy     :     0.066702
      f0      :     0.006816  f :     0.043716
      f+1     :     0.010917
      f-1     :     0.007286
      f+2     :     0.005918
      f-2     :     0.005539
      f+3     :     0.003609
      f-3     :     0.003631

  4 C s       :     2.776035  s :     2.776035
      pz      :     0.992774  p :     2.916486
      px      :     0.970880
      py      :     0.952833
      dz2     :     0.099924  d :     0.379462
      dxz     :     0.061889
      dyz     :     0.066903
      dx2y2   :     0.077180
      dxy     :     0.073566
      f0      :     0.003815  f :     0.041057
      f+1     :     0.007827
      f-1     :     0.005821
      f+2     :     0.006682
      f-2     :     0.006400
      f+3     :     0.004635
      f-3     :     0.005878

  5 C s       :     2.778065  s :     2.778065
      pz      :     1.024982  p :     2.943329
      px      :     0.953502
      py      :     0.964845
      dz2     :     0.081602  d :     0.371763
      dxz     :     0.100909
      dyz     :     0.095971
      dx2y2   :     0.046387
      dxy     :     0.046893
      f0      :     0.007106  f :     0.040438
      f+1     :     0.008265
      f-1     :     0.007980
      f+2     :     0.003284
      f-2     :     0.005239
      f+3     :     0.003726
      f-3     :     0.004838

  6 P s       :     4.643217  s :     4.643217
      pz      :     2.721018  p :     8.264490
      px      :     2.769423
      py      :     2.774049
      dz2     :     0.244282  d :     1.184968
      dxz     :     0.324134
      dyz     :     0.295556
      dx2y2   :     0.155736
      dxy     :     0.165260
      f0      :     0.040104  f :     0.220157
      f+1     :     0.053829
      f-1     :     0.054890
      f+2     :     0.020955
      f-2     :     0.019529
      f+3     :     0.013127
      f-3     :     0.017723

  7 O s       :     3.539419  s :     3.539419
      pz      :     1.523993  p :     4.721395
      px      :     1.597915
      py      :     1.599487
      dz2     :     0.024782  d :     0.041703
      dxz     :     0.008221
      dyz     :     0.008183
      dx2y2   :     0.000228
      dxy     :     0.000289
      f0      :     0.001152  f :     0.002114
      f+1     :     0.000459
      f-1     :     0.000434
      f+2     :     0.000027
      f-2     :     0.000038
      f+3     :     0.000001
      f-3     :     0.000002

  8 C s       :     2.770751  s :     2.770751
      pz      :     1.029519  p :     2.984686
      px      :     0.927498
      py      :     1.027669
      dz2     :     0.111972  d :     0.431717
      dxz     :     0.067655
      dyz     :     0.115678
      dx2y2   :     0.064845
      dxy     :     0.071568
      f0      :     0.006117  f :     0.043706
      f+1     :     0.005071
      f-1     :     0.010613
      f+2     :     0.005707
      f-2     :     0.007943
      f+3     :     0.003911
      f-3     :     0.004343

  9 C s       :     2.776031  s :     2.776031
      pz      :     0.976414  p :     2.916748
      px      :     0.893865
      py      :     1.046470
      dz2     :     0.079286  d :     0.379474
      dxz     :     0.043934
      dyz     :     0.097163
      dx2y2   :     0.081201
      dxy     :     0.077890
      f0      :     0.003878  f :     0.041052
      f+1     :     0.002688
      f-1     :     0.010028
      f+2     :     0.005193
      f-2     :     0.007507
      f+3     :     0.004751
      f-3     :     0.007007

 10 C s       :     2.778078  s :     2.778078
      pz      :     1.002936  p :     2.943304
      px      :     0.926678
      py      :     1.013690
      dz2     :     0.071017  d :     0.371731
      dxz     :     0.050042
      dyz     :     0.132716
      dx2y2   :     0.063740
      dxy     :     0.054216
      f0      :     0.007084  f :     0.040436
      f+1     :     0.005245
      f-1     :     0.007601
      f+2     :     0.004497
      f-2     :     0.006080
      f+3     :     0.004230
      f-3     :     0.005699

 11 C s       :     2.779626  s :     2.779626
      pz      :     1.023485  p :     2.935603
      px      :     0.910990
      py      :     1.001129
      dz2     :     0.103945  d :     0.373775
      dxz     :     0.061503
      dyz     :     0.101920
      dx2y2   :     0.051524
      dxy     :     0.054883
      f0      :     0.006047  f :     0.040427
      f+1     :     0.004870
      f-1     :     0.009803
      f+2     :     0.005257
      f-2     :     0.007312
      f+3     :     0.003697
      f-3     :     0.003440

 12 C s       :     2.778053  s :     2.778053
      pz      :     0.974582  p :     2.947735
      px      :     0.915683
      py      :     1.057470
      dz2     :     0.076396  d :     0.373143
      dxz     :     0.044888
      dyz     :     0.094805
      dx2y2   :     0.080840
      dxy     :     0.076214
      f0      :     0.003772  f :     0.040497
      f+1     :     0.002860
      f-1     :     0.009727
      f+2     :     0.005131
      f-2     :     0.007240
      f+3     :     0.004653
      f-3     :     0.007115

 13 C s       :     2.776021  s :     2.776021
      pz      :     0.994592  p :     2.938969
      px      :     0.925002
      py      :     1.019374
      dz2     :     0.072382  d :     0.382247
      dxz     :     0.050209
      dyz     :     0.134104
      dx2y2   :     0.067104
      dxy     :     0.058447
      f0      :     0.007283  f :     0.040888
      f+1     :     0.005196
      f-1     :     0.007476
      f+2     :     0.004423
      f-2     :     0.006202
      f+3     :     0.004408
      f-3     :     0.005900

 14 C s       :     2.773369  s :     2.773369
      pz      :     1.026135  p :     2.964518
      px      :     1.019784
      py      :     0.918598
      dz2     :     0.099966  d :     0.431340
      dxz     :     0.124318
      dyz     :     0.074397
      dx2y2   :     0.078544
      dxy     :     0.054114
      f0      :     0.005973  f :     0.043681
      f+1     :     0.010307
      f-1     :     0.006598
      f+2     :     0.005614
      f-2     :     0.006211
      f+3     :     0.004479
      f-3     :     0.004498

 15 C s       :     2.774057  s :     2.774057
      pz      :     1.005525  p :     2.938390
      px      :     1.016331
      py      :     0.916535
      dz2     :     0.084026  d :     0.378429
      dxz     :     0.125933
      dyz     :     0.057038
      dx2y2   :     0.042106
      dxy     :     0.069326
      f0      :     0.006267  f :     0.040846
      f+1     :     0.009985
      f-1     :     0.005164
      f+2     :     0.005814
      f-2     :     0.004728
      f+3     :     0.003557
      f-3     :     0.005332

 16 C s       :     2.769928  s :     2.769928
      pz      :     0.973835  p :     2.896325
      px      :     1.024636
      py      :     0.897853
      dz2     :     0.080102  d :     0.368354
      dxz     :     0.091793
      dyz     :     0.039563
      dx2y2   :     0.076536
      dxy     :     0.080360
      f0      :     0.002436  f :     0.040552
      f+1     :     0.010537
      f-1     :     0.003429
      f+2     :     0.006425
      f-2     :     0.006088
      f+3     :     0.004969
      f-3     :     0.006669

 17 C s       :     2.718341  s :     2.718341
      pz      :     1.000495  p :     2.878382
      px      :     0.959146
      py      :     0.918741
      dz2     :     0.108221  d :     0.471718
      dxz     :     0.137430
[...]
      dxz     :     0.284310
      dyz     :     0.181655
      dx2y2   :     0.128053
      dxy     :     0.121314
      f0      :     0.021847  f :     0.146578
      f+1     :     0.037017
      f-1     :     0.022597
      f+2     :     0.021047
      f-2     :     0.019017
      f+3     :     0.012413
      f-3     :     0.012640

 21 O s       :     3.411204  s :     3.411204
      pz      :     1.457681  p :     4.436196
      px      :     1.589924
      py      :     1.388591
      dz2     :     0.023740  d :     0.065319
      dxz     :     0.016411
      dyz     :     0.018590
      dx2y2   :     0.003045
      dxy     :     0.003533
      f0      :     0.001460  f :     0.005774
      f+1     :     0.001251
      f-1     :     0.001662
      f+2     :     0.000624
      f-2     :     0.000636
      f+3     :     0.000066
      f-3     :     0.000074

 22 O s       :     3.344285  s :     3.344285
      pz      :     1.588532  p :     4.506712
      px      :     1.301491
      py      :     1.616689
      dz2     :     0.008567  d :     0.065477
      dxz     :     0.023512
      dyz     :     0.010152
      dx2y2   :     0.013156
      dxy     :     0.010089
      f0      :     0.000519  f :     0.004687
      f+1     :     0.000708
      f-1     :     0.000430
      f+2     :     0.001184
      f-2     :     0.000823
      f+3     :     0.000485
      f-3     :     0.000539

 23 H s       :     0.794702  s :     0.794702
      pz      :     0.013072  p :     0.055814
      px      :     0.019582
      py      :     0.023160

 24 H s       :     0.794358  s :     0.794358
      pz      :     0.031553  p :     0.056002
      px      :     0.010964
      py      :     0.013485

 25 H s       :     0.786981  s :     0.786981
      pz      :     0.018441  p :     0.057764
      px      :     0.024580
      py      :     0.014744

 26 H s       :     0.780642  s :     0.780642
      pz      :     0.034273  p :     0.058040
      px      :     0.010282
      py      :     0.013485

 27 H s       :     0.793676  s :     0.793676
      pz      :     0.018638  p :     0.055957
      px      :     0.022643
      py      :     0.014676

 28 H s       :     0.780894  s :     0.780894
      pz      :     0.030834  p :     0.057993
      px      :     0.016761
      py      :     0.010398

 29 H s       :     0.793668  s :     0.793668
      pz      :     0.019244  p :     0.055965
      px      :     0.011700
      py      :     0.025020

 30 H s       :     0.794688  s :     0.794688
      pz      :     0.011978  p :     0.055815
      px      :     0.014273
      py      :     0.029564

 31 H s       :     0.794506  s :     0.794506
      pz      :     0.028479  p :     0.055985
      px      :     0.017366
      py      :     0.010140

 32 H s       :     0.786354  s :     0.786354
      pz      :     0.018860  p :     0.057906
      px      :     0.012226
      py      :     0.026820

 33 H s       :     0.784095  s :     0.784095
      pz      :     0.015723  p :     0.057916
      px      :     0.023263
      py      :     0.018930

 34 H s       :     0.777935  s :     0.777935
      pz      :     0.031784  p :     0.058019
      px      :     0.011694
      py      :     0.014541

 35 H s       :     0.781886  s :     0.781886
      pz      :     0.015834  p :     0.057660
      px      :     0.024392
      py      :     0.017434

 36 H s       :     0.778335  s :     0.778335
      pz      :     0.033000  p :     0.058225
      px      :     0.011182
      py      :     0.014043

 37 H s       :     0.646259  s :     0.646259
      pz      :     0.049648  p :     0.143160
      px      :     0.059655
      py      :     0.033857



                      *****************************
                      * MAYER POPULATION ANALYSIS *
                      *****************************

  NA   - Mulliken gross atomic population
  ZA   - Total nuclear charge
  QA   - Mulliken gross atomic charge
  VA   - Mayer's total valence
  BVA  - Mayer's bonded valence
  FA   - Mayer's free valence

  ATOM       NA         ZA         QA         VA         BVA        FA
  0 C      6.1337     6.0000    -0.1337     3.9381     3.9381     0.0000
  1 C      6.1501     6.0000    -0.1501     4.0049     4.0049    -0.0000
  2 C      6.2027     6.0000    -0.2027     3.8783     3.8783    -0.0000
  3 C      6.0629     6.0000    -0.0629     3.7439     3.7439    -0.0000
  4 C      6.1507     6.0000    -0.1507     3.9639     3.9639    -0.0000
  5 C      6.1357     6.0000    -0.1357     3.9218     3.9218     0.0000
  6 P     14.3626    15.0000     0.6374     4.9592     4.9592    -0.0000
  7 O      8.5955     8.0000    -0.5955     1.9877     1.9877     0.0000
  8 C      6.0720     6.0000    -0.0720     3.7507     3.7507    -0.0000
  9 C      6.1487     6.0000    -0.1487     3.9637     3.9637    -0.0000
 10 C      6.1351     6.0000    -0.1351     3.9232     3.9232    -0.0000
 11 C      6.1344     6.0000    -0.1344     3.9390     3.9390    -0.0000
 12 C      6.1482     6.0000    -0.1482     4.0012     4.0012    -0.0000
 13 C      6.2003     6.0000    -0.2003     3.8774     3.8774    -0.0000
 14 C      6.0784     6.0000    -0.0784     3.7806     3.7806     0.0000
 15 C      6.1814     6.0000    -0.1814     3.8383     3.8383     0.0000
 16 C      6.1751     6.0000    -0.1751     4.0503     4.0503    -0.0000
 17 C      6.0040     6.0000    -0.0040     3.8139     3.8139    -0.0000
 18 C      6.1576     6.0000    -0.1576     3.9369     3.9369    -0.0000
 19 C      6.1369     6.0000    -0.1369     3.9314     3.9314     0.0000
 20 C      5.6463     6.0000     0.3537     4.2513     4.2513    -0.0000
 21 O      8.3429     8.0000    -0.3429     2.1348     2.1348    -0.0000
 22 O      8.4175     8.0000    -0.4175     2.0544     2.0544    -0.0000
 23 H      0.8489     1.0000     0.1511     0.9627     0.9627     0.0000
 24 H      0.8491     1.0000     0.1509     0.9650     0.9650     0.0000
 25 H      0.8055     1.0000     0.1945     0.9458     0.9458    -0.0000
 26 H      0.8128     1.0000     0.1872     0.9720     0.9720     0.0000
 27 H      0.8485     1.0000     0.1515     0.9652     0.9652     0.0000
 28 H      0.8131     1.0000     0.1869     0.9720     0.9720    -0.0000
 29 H      0.8482     1.0000     0.1518     0.9651     0.9651    -0.0000
 30 H      0.8492     1.0000     0.1508     0.9629     0.9629     0.0000
 31 H      0.8495     1.0000     0.1505     0.9653     0.9653    -0.0000
 32 H      0.8024     1.0000     0.1976     0.9443     0.9443    -0.0000
 33 H      0.7979     1.0000     0.2021     0.9458     0.9458     0.0000
 34 H      0.8149     1.0000     0.1851     0.9713     0.9713    -0.0000
 35 H      0.8221     1.0000     0.1779     0.9677     0.9677     0.0000
 36 H      0.8098     1.0000     0.1902     0.9736     0.9736     0.0000
 37 H      0.6551     1.0000     0.3449     0.9124     0.9124    -0.0000

  Mayer bond orders larger than 0.100000
B(  0-C ,  1-C ) :   1.4436 B(  0-C ,  5-C ) :   1.4311 B(  0-C , 23-H ) :   0.9460 
B(  1-C ,  2-C ) :   1.4881 B(  1-C , 24-H ) :   0.9422 B(  2-C ,  3-C ) :   1.3144 
B(  2-C , 25-H ) :   0.9165 B(  3-C ,  4-C ) :   1.4347 B(  3-C ,  6-P ) :   0.9202 
B(  4-C ,  5-C ) :   1.4396 B(  4-C , 26-H ) :   0.9092 B(  5-C , 27-H ) :   0.9470 
B(  6-P ,  7-O ) :   1.9456 B(  6-P ,  8-C ) :   0.9215 B(  6-P , 14-C ) :   0.9149 
B(  8-C ,  9-C ) :   1.4341 B(  8-C , 13-C ) :   1.3192 B(  9-C , 10-C ) :   1.4414 
B(  9-C , 28-H ) :   0.9089 B( 10-C , 11-C ) :   1.4314 B( 10-C , 29-H ) :   0.9461 
B( 11-C , 12-C ) :   1.4441 B( 11-C , 30-H ) :   0.9461 B( 12-C , 13-C ) :   1.4850 
B( 12-C , 31-H ) :   0.9422 B( 13-C , 32-H ) :   0.9148 B( 14-C , 15-C ) :   1.3112 
B( 14-C , 19-C ) :   1.4297 B( 15-C , 16-C ) :   1.4944 B( 15-C , 33-H ) :   0.9121 
B( 16-C , 17-C ) :   1.4344 B( 16-C , 34-H ) :   0.9129 B( 17-C , 18-C ) :   1.3937 
B( 17-C , 20-C ) :   1.0000 B( 18-C , 19-C ) :   1.4376 B( 18-C , 35-H ) :   0.9247 
B( 19-C , 36-H ) :   0.9120 B( 20-C , 21-O ) :   2.0391 B( 20-C , 22-O ) :   1.1985 
B( 22-O , 37-H ) :   0.8546 

-------
TIMINGS
-------

Total SCF time: 0 days 0 hours 2 min 37 sec 

Total time                  ....     157.965 sec
Sum of individual times     ....     158.045 sec  (100.1%)

SCF preparation             ....       0.359 sec  (  0.2%)
Fock matrix formation       ....     152.395 sec  ( 96.5%)
  Startup                   ....       0.165 sec  (  0.1% of F)
  Split-RI-J                ....      11.765 sec  (  7.7% of F)
  Chain of spheres X        ....     108.695 sec  ( 71.3% of F)
  XC integration            ....      31.342 sec  ( 20.6% of F)
    Basis function eval.    ....       4.476 sec  ( 14.3% of XC)
    Density eval.           ....      13.128 sec  ( 41.9% of XC)
    XC-Functional eval.     ....       0.493 sec  (  1.6% of XC)
    XC-Potential eval.      ....      11.382 sec  ( 36.3% of XC)
Diagonalization             ....       0.000 sec  (  0.0%)
Density matrix formation    ....       0.451 sec  (  0.3%)
Total Energy calculation    ....       0.158 sec  (  0.1%)
Population analysis         ....       0.247 sec  (  0.2%)
Orbital Transformation      ....       0.642 sec  (  0.4%)
Orbital Orthonormalization  ....       0.000 sec  (  0.0%)
DIIS solution               ....       2.605 sec  (  1.6%)
SOSCF solution              ....       1.188 sec  (  0.8%)
Finished LeanSCF after 158.0 sec

Maximum memory used throughout the entire LEANSCF-calculation: 115.5 MB


-------------------------------------------------------------------------------
                          DFT DISPERSION CORRECTION                            
                                                                               
                              DFTD3 V3.1  Rev 1                                
                              USING zero damping                               
-------------------------------------------------------------------------------
The M062X functional is recognized
Active option DFTDOPT                   ...         3   

molecular C6(AA) [au] = 20718.737355 


            DFT-D V3
 parameters
 s6 scaling factor         :     1.0000 
 rs6 scaling factor        :     1.6190 
 s8 scaling factor         :     0.0000 
 rs8 scaling factor        :     1.0000 
 Damping factor alpha6     :    14.0000 
 Damping factor alpha8     :    16.0000 
 ad hoc parameters k1-k3   :    16.0000     1.3333    -4.0000 

 Edisp/kcal,au: -1.615057264941  -0.002573757305 
 E6   /kcal   :  -1.615057265 
 E8   /kcal   :  -0.000000000 
 % E8         :   0.000000000 

-------------------------   ----------------
Dispersion correction           -0.002573757
-------------------------   ----------------


-------------------------   --------------------
FINAL SINGLE POINT ENERGY     -1300.107218607217
-------------------------   --------------------



           ************************************************************
           *        Program running with 6 parallel MPI-processes     *
           *              working on a common directory               *
           ************************************************************

------------------------------------------------------------------------------
                              ORCA PROPERTY CALCULATIONS
------------------------------------------------------------------------------

GBWName                                 ... data/single_point_PO_M06-2x/627824/627824.gbw
Number of atoms                         ...     38
Number of basis functions               ...    809
Max core memory                         ...   1024 MB

Electric properties:
Dipole moment                           ... YES
Quadrupole moment                       ...  NO
Static polarizability (Dipole/Dipole)   ...  NO
Static polarizability (Dipole/Quad.)    ...  NO
Static polarizability (Quad./Quad.)     ...  NO
Static polarizability (Velocity)        ...  NO

Atomic electric properties:
Dipole moment                           ...  NO
Quadrupole moment                       ...  NO
Static polarizability                   ...  NO

Choice of electric origin               ... Center of mass
Position of electric origin             ...     0.589015    -0.077279     0.069447

General magnetic properties:
Magnetizability                         ...  NO

EPR properties:
g-Tensor (aka g-matrix)                 ...  NO
Zero-Field splitting spin-orbit         ...  NO
Zero-field splitting spin-spin          ...  NO
Hyperfine couplings                     ...  NO (   0 nuclei)
Quadrupole couplings                    ...  NO (   0 nuclei)
Contact density                         ...  NO (   0 nuclei)

NMR properties:
Chemical shifts                         ...  NO (   0 nuclei)
Spin-rotation constants                 ...  NO (   0 nuclei)
Spin-spin couplings                     ...  NO (   0 nuclei,    0 pairs)

Choice of magnetic origin               ... GIAO
Position of magnetic origin             ...     0.000000     0.000000     0.000000

Properties with geometric perturbations:
SCF Hessian                             ...  NO
IR spectrum                             ...  NO
VCD spectrum                            ...  NO
X-ray spectroscopy properties:
SCF XES/XAS/RIXS spectra                ...  NO


-------------
DIPOLE MOMENT
-------------

Method             : SCF
Type of density    : Electron Density
Multiplicity       :   1
Irrep              :   0
Energy             : -1300.1046448499121198 Eh
Relativity type    : 
Basis              : AO
                                X                 Y                 Z
Electronic contribution:      8.537722909      -1.204685261       2.784915035
Nuclear contribution   :     -9.154944352       1.120920457      -3.752417266
                        -----------------------------------------
Total Dipole Moment    :     -0.617221443      -0.083764804      -0.967502231
                        -----------------------------------------
Magnitude (a.u.)       :      1.150669118
Magnitude (Debye)      :      2.924768464



--------------------
Rotational spectrum 
--------------------
 
Rotational constants in cm-1:             0.010190             0.005361             0.004278 
Rotational constants in MHz :           305.480289           160.722820           128.246847 

Dipole components along the rotational axes: 
x,y,z [a.u.] :     0.375431    -0.202960    -1.068596 
x,y,z [Debye]:     0.954270    -0.515884    -2.716156 

 

Dipole moment calculation done in   0.1 sec 

Maximum memory used throughout the entire PROP-calculation: 63.4 MB

--------------------------------
SUGGESTED CITATIONS FOR THIS RUN
--------------------------------

Below you find a list of papers that are relevant to this ORCA run
We neither can nor want to force you to cite these papers, but we appreciate if you do
You receive ORCA, which is the product of decades of hard work by many enthusiastic individuals, for free
The only thing we kindly ask in return is that you cite our papers,
We deeply appreciate it, if you show your appreciation for ORCA by not just citing the generic ORCA reference.

Please note that relegating all ORCA citations to the supporting information does *not* help us.
SI sections are not indexed - citations you put there will not count into any citation statistics
But we need these citations in order to attract the funding resources that allow us to do what we are doing

Therefore, if you are a happy ORCA user, please consider citing a few of the papers listed below in the main body of your paper

In addition to the list printed below, the program has created the file data/single_point_PO_M06-2x/627824/627824.bibtex that contains the list in bibtex format
You can import this file easily into all common literature databanks and citation aid programs


List of essential papers. We consider these as the minimum necessary citations

  1. Neese,F.
     Software update: the ORCA program system, version 5.0
     WIRES Comput. Molec. Sci., 2022 12(1)e1606
     doi.org/10.1002/wcms.1606

List of papers to cite with high priority. The work reported in these papers was absolutely
necessary for this run to complete.
Our perspective: the developers of density functionals and basis sets usually get cited in chemistry papers
Good! But without the algorithms to do something with them, the functionals or basis sets would not do anything.
Hence, in our opinion, the algorithm design and method developments papers are equally worthy of getting cited

  1. Neese,F.
     An improvement of the resolution of the identity approximation for the formation of the Coulomb matrix
     J. Comp. Chem., 2003 24(14)1740-1747
     doi.org/10.1002/jcc.10318
  2. Neese,F.; Wennmohs,F.; Hansen,A.; Becker,U.
     Efficient, approximate and parallel Hartree-Fock and hybrid DFT calculations. A 'chain-of-spheres' algorithm for the Hartree-Fock exchange
     Chem. Phys., 2009 356(1-3)98-109
     doi.org/10.1016/j.chemphys.2008.10.036
  3. Helmich-Paris,B.; de Souza,B.; Neese,F.; Izsák,R.
     An improved chain of spheres for exchange algorithm
     J. Chem. Phys., 2021 155 104109
     doi.org/doi: 10.1063/5.0058766.
  4. Neese,F.
     The SHARK Integral Generation and Digestion System
     J. Comp. Chem., 2022  1-16
     doi.org/10.1002/jcc.26942
  5. Grimme,S.; Antony,J.; Ehrlich,S.; Krieg,H.
     A consistent and accurate ab initio parametrization of density functional dispersion correction (DFT-D) for the 94 elements H-Pu
     J. Chem. Phys., 2010 132 154104-XXXX
     doi.org/10.1063/1.3382344

List of suggested additional citations. These are papers that are important in the 'surrounding' of 
of this run, or papers that preceded the highly important papers. If you like your results we are grateful for a citation.

  1. Izsak,R.; Neese,F.
     An overlap fitted chain of spheres exchange method
     J. Chem. Phys., 2011 135 144105
     doi.org/10.1063/1.3646921
  2. Izsak,R.; Hansen,A.; Neese,F.
     The resolution of identity and chain of spheres approximations for the LPNO-CCSD singles Fock term
     Molec. Phys., 2012 110 2413-2417
     doi.org/10.1080/00268976.2012.687466
  3. Neese,F.
     The ORCA program system
     WIRES Comput. Molec. Sci., 2012 2(1)73-78
     doi.org/10.1002/wcms.81
  4. Izsak,R.; Neese,F.; Klopper,W.
     Robust fitting techniques in the chain of spheres approximation to the Fock exchange: The role of the complementary space
     J. Chem. Phys., 2013 139 
     doi.org/10.1063/1.4819264
  5. Neese,F.
     Software update: the ORCA program system, version 4.0
     WIRES Comput. Molec. Sci., 2018 8(1)1-6
     doi.org/10.1002/wcms.1327
  6. Neese,F.; Wennmohs,F.; Becker,U.; Riplinger,C.
     The ORCA quantum chemistry program package
     J. Chem. Phys., 2020 152 Art. No. L224108
     doi.org/10.1063/5.0004608

List of optional additional citations

  1. Neese,F.
     Approximate second-order SCF convergence for spin unrestricted wavefunctions
     Chem. Phys. Lett., 2000 325(1-3)93-98
     doi.org/10.1016/s0009-2614(00)00662-x

Timings for individual modules:

Sum of individual times          ...      165.465 sec (=   2.758 min)
Startup calculation              ...        4.850 sec (=   0.081 min)   2.9 %
SCF iterations                   ...      160.256 sec (=   2.671 min)  96.9 %
Property calculations            ...        0.359 sec (=   0.006 min)   0.2 %
                             ****ORCA TERMINATED NORMALLY****
TOTAL RUN TIME: 0 days 0 hours 2 minutes 45 seconds 759 msec
