
                                 *****************
                                 * O   R   C   A *
                                 *****************

                                            #,                                       
                                            ###                                      
                                            ####                                     
                                            #####                                    
                                            ######                                   
                                           ########,                                 
                                     ,,################,,,,,                         
                               ,,#################################,,                 
                          ,,##########################################,,             
                       ,#########################################, ''#####,          
                    ,#############################################,,   '####,        
                  ,##################################################,,,,####,       
                ,###########''''           ''''###############################       
              ,#####''   ,,,,##########,,,,          '''####'''          '####       
            ,##' ,,,,###########################,,,                        '##       
           ' ,,###''''                  '''############,,,                           
         ,,##''                                '''############,,,,        ,,,,,,###''
      ,#''                                            '''#######################'''  
     '                                                          ''''####''''         
             ,#######,   #######,   ,#######,      ##                                
            ,#'     '#,  ##    ##  ,#'     '#,    #''#        ,####,   ,####,        
            ##       ##  ##   ,#'  ##            #'  '#       #'       #'  '#        
            ##       ##  #######   ##           ,######,      #####,   #    #        
            '#,     ,#'  ##    ##  '#,     ,#' ,#      #,     #,   #   #,  ,#        
             '#######'   ##     ##  '#######'  #'      '#     '####' # '####'        



                #########################################################
                #                        -***-                          #
                #          Department of theory and spectroscopy        #
                #                                                       #
                #                      Frank Neese                      #
                #                                                       #
                #     Directorship, Architecture, Infrastructure        #
                #                    SHARK, DRIVERS                     #
                #        Core code/Algorithms in most modules           #
                #                                                       #
                #        Max Planck Institute fuer Kohlenforschung      #
                #                Kaiser Wilhelm Platz 1                 #
                #                 D-45470 Muelheim/Ruhr                 #
                #                      Germany                          #
                #                                                       #
                #                  All rights reserved                  #
                #                        -***-                          #
                #########################################################


                         Program Version 6.0.0  -   RELEASE   -


 With contributions from (in alphabetic order):
   Daniel Aravena         : Magnetic Suceptibility
   Michael Atanasov       : Ab Initio Ligand Field Theory (pilot matlab implementation)
   Alexander A. Auer      : GIAO ZORA, VPT2 properties, NMR spectrum
   Ute Becker             : All parallelization in ORCA, NUMFREQ, NUMCALC
   Giovanni Bistoni       : ED, misc. LED, open-shell LED, HFLD
   Martin Brehm           : Molecular dynamics
   Dmytro Bykov           : pre 5.0 version of the SCF Hessian
   Marcos Casanova-Páez   : Triplet and SCS-CIS(D). UHF-(DLPNO)-IP/EA/STEOM-CCSD. UHF-CVS-IP/STEOM-CCSD
   Vijay G. Chilkuri      : MRCI spin determinant printing, contributions to CSF-ICE
   Pauline Colinet        : FMM embedding
   Dipayan Datta          : RHF DLPNO-CCSD density
   Achintya Kumar Dutta   : EOM-CC, STEOM-CC
   Nicolas Foglia         : Exact transition moments, OPA infrastructure, MCD improvements
   Dmitry Ganyushin       : Spin-Orbit,Spin-Spin,Magnetic field MRCI
   Miquel Garcia          : C-PCM and meta-GGA Hessian, CCSD/C-PCM, Gaussian charge scheme
   Tiago L. C. Gouveia    : GS-ROHF, GS-ROCIS
   Yang Guo               : DLPNO-NEVPT2, F12-NEVPT2, CIM, IAO-localization
   Andreas Hansen         : Spin unrestricted coupled pair/coupled cluster methods
   Ingolf Harden          : AUTO-CI MPn and infrastructure 
   Benjamin Helmich-Paris : MC-RPA, TRAH-(SCF,CASSCF), AVAS, COSX integrals, SCF dyn. polar.
   Lee Huntington         : MR-EOM, pCC
   Robert Izsak           : Overlap fitted RIJCOSX, COSX-SCS-MP3, EOM
   Riya Kayal             : Wick's Theorem for AUTO-CI, AUTO-CI UHF-CCSDT
   Emily Kempfer          : AUTO-CI, RHF CISDT and CCSDT
   Christian Kollmar      : KDIIS, OOCD, Brueckner-CCSD(T), CCSD density, CASPT2, CASPT2-K, improved NEVPT2
   Axel Koslowski         : Symmetry handling
   Simone Kossmann        : Meta GGA functionals, TD-DFT gradient, OOMP2, (MP2 Hessian; deprecated post 5.0)
   Lucas Lang             : DCDCAS
   Marvin Lechner         : AUTO-CI (C++ implementation), FIC-MRCC
   Spencer Leger          : CASSCF response
   Dagmar Lenk            : GEPOL surface, SMD, ORCA-2-JSON
   Dimitrios Liakos       : Extrapolation schemes; Compound Job, initial MDCI parallelization
   Dimitrios Manganas     : Further ROCIS development; embedding schemes. LFT, Crystal Embedding
   Dimitrios Pantazis     : SARC Basis sets
   Anastasios Papadopoulos: AUTO-CI, single reference methods and gradients
   Taras Petrenko         : pre 6.0 DFT Hessian and TD-DFT gradient, (ASA, deprecated), ECA, 1-Electron XAS/XES, NRVS
   Peter Pinski           : DLPNO-MP2, DLPNO-MP2 Gradient
   Christoph Reimann      : Effective Core Potentials
   Marius Retegan         : Local ZFS, SOC
   Christoph Riplinger    : Optimizer, TS searches, QM/MM, DLPNO-CCSD(T), (RO)-DLPNO pert. Triples
   Michael Roemelt        : Original ROCIS implementation
   Masaaki Saitow         : Open-shell DLPNO-CCSD energy and density
   Barbara Sandhoefer     : DKH picture change effects
   Kantharuban Sivalingam : CASSCF convergence/infrastructure, NEVPT2 and variants, FIC-MRCI
   Bernardo de Souza      : ESD, SOC TD-DFT
   Georgi Stoychev        : AutoAux, RI-MP2 NMR, DLPNO-MP2 response, X2C
   Van Anh Tran           : RI-MP2 g-tensors
   Willem Van den Heuvel  : Paramagnetic NMR
   Zikuan Wang            : NOTCH, Electric field optimization 
   Frank Wennmohs         : Technical directorship and infrastructure
   Hang Xu                : AUTO-CI-Response properties 


 We gratefully acknowledge several colleagues who have allowed us to
 interface, adapt or use parts of their codes:
   Stefan Grimme, W. Hujo, H. Kruse, P. Pracht,  : VdW corrections, initial TS optimization,
                  C. Bannwarth, S. Ehlert,         DFT functionals, gCP, sTDA/sTD-DF
                  L. Wittmann, M. Mueller
   Ed Valeev, F. Pavosevic, A. Kumar             : LibInt (2-el integral package), F12 methods
   Garnet Chan, S. Sharma, J. Yang, R. Olivares  : DMRG
   Ulf Ekstrom                                   : XCFun DFT Library
   Mihaly Kallay                                 : mrcc  (arbitrary order and MRCC methods)
   Frank Weinhold                                : gennbo (NPA and NBO analysis)
   Simon Mueller                                 : openCOSMO-RS
   Christopher J. Cramer and Donald G. Truhlar   : smd solvation model
   Lars Goerigk                                  : TD-DFT with DH, B97 family of functionals
   V. Asgeirsson, H. Jonsson                     : NEB implementation
   FAccTs GmbH                                   : IRC, NEB, NEB-TS, DLPNO-Multilevel, CI-OPT
                                                   MM, QMMM, 2- and 3-layer-ONIOM, Crystal-QMMM,
                                                   LR-CPCM, SF, NACMEs, symmetry and pop. for TD-DFT,
                                                   nearIR, NL-DFT gradient (VV10), updates on ESD,
                                                   ML-optimized integration grids, MBIS, APM,
                                                   GOAT, DOCKER, SOLVATOR, interface openCOSMO-RS
   S Lehtola, MJT Oliveira, MAL Marques          : LibXC Library
   Liviu Ungur et al                             : ANISO software


 Your calculation uses the libint2 library for the computation of 2-el integrals
 For citations please refer to: http://libint.valeyev.net

 Your ORCA version has been built with support for libXC version: 6.2.2
 For citations please refer to: https://libxc.gitlab.io

 This ORCA versions uses:
   CBLAS   interface :  Fast vector & matrix operations
   LAPACKE interface :  Fast linear algebra routines
   Shared memory     :  Shared parallel matrices


Your calculation utilizes the atom-pairwise dispersion correction
with the Becke-Johnson damping scheme (D3BJ)


Warning: RI is on but no J-basis has been assigned. Assigning Def2/J (nothing to worry about!)
================================================================================

----- Orbital basis set information -----
Your calculation utilizes the basis: def2-SVP
   F. Weigend and R. Ahlrichs, Phys. Chem. Chem. Phys. 7, 3297 (2005).

----- AuxJ basis set information -----
Your calculation utilizes the auxiliary basis: def2/J
   F. Weigend, Phys. Chem. Chem. Phys. 8, 1057 (2006).

================================================================================
                                        WARNINGS
                       Please study these warnings very carefully!
================================================================================


WARNING: Geometry Optimization
  ===> : Switching off AutoStart
         For restart on a previous wavefunction, please use MOREAD

================================================================================
                                       INPUT FILE
================================================================================
NAME = data/geom_opt_PO_BP86/87021/87021.inp
|  1> ! RI BP86 def2-SVP D3BJ TIGHTSCF Opt
|  2> %pal
|  3> nprocs 6
|  4> end
|  5> 
|  6> * xyz 0 1
|  7> C     -2.349430   -3.813781    0.889988
|  8> C     -1.405473   -3.995163   -0.118065
|  9> C     -0.720100   -2.896262   -0.635960
| 10> C     -0.968399   -1.601937   -0.150508
| 11> C     -1.925528   -1.433211    0.861043
| 12> C     -2.610709   -2.534757    1.377853
| 13> P     -0.025479   -0.218202   -0.854162
| 14> O      0.157391   -0.448939   -2.345737
| 15> C     -0.967684    1.281194   -0.511183
| 16> C     -0.708224    2.101132    0.596666
| 17> C     -1.478876    3.242222    0.828735
| 18> C     -2.514820    3.576220   -0.041665
| 19> C     -2.781042    2.772941   -1.148024
| 20> C     -2.011649    1.633279   -1.381776
| 21> C      1.551939   -0.151631    0.020652
| 22> C      1.693593   -0.720634    1.300982
| 23> C      2.927833   -0.729040    1.956489
| 24> C      4.048446   -0.176373    1.344999
| 25> C      3.932345    0.398255    0.081831
| 26> C      2.690203    0.426760   -0.570317
| 27> C      2.658982    1.086599   -1.888825
| 28> O      3.487089    0.968638   -2.770303
| 29> O      1.641437    1.957210   -1.958456
| 30> H     -2.887079   -4.669391    1.290715
| 31> H     -1.206402   -4.991013   -0.506050
| 32> H      0.009604   -3.043375   -1.431308
| 33> H     -2.151951   -0.446589    1.256872
| 34> H     -3.353807   -2.394458    2.159177
| 35> H      0.097744    1.866266    1.286398
| 36> H     -1.267400    3.875283    1.687007
| 37> H     -3.111216    4.466909    0.138833
| 38> H     -3.584460    3.035114   -1.831720
| 39> H     -2.219121    1.011838   -2.251958
| 40> H      0.845179   -1.180321    1.802953
| 41> H      3.015748   -1.181558    2.941972
| 42> H      5.011561   -0.193660    1.849241
| 43> H      4.809670    0.831421   -0.395732
| 44> H      1.670085    2.289011   -2.880657
| 45> **                         ****END OF INPUT****
================================================================================

                       *****************************
                       * Geometry Optimization Run *
                       *****************************

Geometry optimization settings:
Update method            Update   .... BFGS
Choice of coordinates    CoordSys .... (2022) Redundant Internals
Initial Hessian          InHess   .... Almloef's Model
Max. no of cycles        MaxIter  .... 114

Convergence Tolerances:
Energy Change            TolE     ....  5.0000e-06 Eh
Max. Gradient            TolMAXG  ....  3.0000e-04 Eh/bohr
RMS Gradient             TolRMSG  ....  1.0000e-04 Eh/bohr
Max. Displacement        TolMAXD  ....  4.0000e-03 bohr
RMS Displacement         TolRMSD  ....  2.0000e-03 bohr
Strict Convergence                .... False

------------------------------------------------------------------------------
                        ORCA OPTIMIZATION COORDINATE SETUP
------------------------------------------------------------------------------

The optimization will be done in redundant internal coordinates (2022)
Making redundant internal coordinates   ...  (2022 redundants) done
Evaluating the initial hessian          ...  (Almloef) done
Evaluating the coordinates              ...  done
Calculating the B-matrix                .... done
Calculating the G-matrix                .... done
Diagonalizing the G-matrix              .... done
Small eigenvalue found = 4.868e-03
Small eigenvalue found = 5.865e-03
Small eigenvalue found = 8.093e-03
Small eigenvalue found = 1.386e-02
Small eigenvalue found = 2.099e-02
The first mode is                       ....   89
The number of degrees of freedom        ....  108

    -----------------------------------------------------------------
                    Redundant Internal Coordinates


    -----------------------------------------------------------------
         Definition                    Initial Value    Approx d2E/dq
    -----------------------------------------------------------------
      1. B(C   1,C   0)                  1.3929         0.618212   
      2. B(C   2,C   1)                  1.3948         0.613821   
      3. B(C   3,C   2)                  1.4045         0.592407   
      4. B(C   4,C   3)                  1.4028         0.596135   
      5. B(C   5,C   4)                  1.3964         0.610249   
      6. B(C   5,C   0)                  1.3936         0.616539   
      7. B(P   6,C   3)                  1.8163         0.438628   
      8. B(O   7,P   6)                  1.5204         1.165192   
      9. B(C   8,P   6)                  1.8038         0.459298   
     10. B(C   9,C   8)                  1.4025         0.596800   
     11. B(C  10,C   9)                  1.3964         0.610347   
     12. B(C  11,C  10)                  1.3937         0.616417   
     13. B(C  12,C  11)                  1.3929         0.618183   
     14. B(C  13,C  12)                  1.3948         0.613902   
     15. B(C  13,C   8)                  1.4042         0.593054   
     16. B(C  14,P   6)                  1.8050         0.457243   
     17. B(C  15,C  14)                  1.4082         0.584352   
     18. B(C  16,C  15)                  1.3975         0.607735   
     19. B(C  17,C  16)                  1.3911         0.622297   
     20. B(C  18,C  17)                  1.3926         0.618910   
     21. B(C  19,C  18)                  1.4032         0.595178   
     22. B(C  19,C  14)                  1.4069         0.587142   
     23. B(C  20,C  19)                  1.4747         0.457677   
     24. B(O  21,C  20)                  1.2152         1.063600   
     25. B(O  22,C  20)                  1.3410         0.670030   
     26. B(H  23,C   0)                  1.0871         0.363999   
     27. B(H  24,C   1)                  1.0871         0.363900   
     28. B(H  25,C   2)                  1.0894         0.360958   
     29. B(H  26,C   4)                  1.0869         0.364212   
     30. B(H  27,C   5)                  1.0874         0.363613   
     31. B(H  28,C   9)                  1.0865         0.364763   
     32. B(H  29,C  10)                  1.0873         0.363752   
     33. B(H  30,C  11)                  1.0870         0.364075   
     34. B(H  31,C  12)                  1.0870         0.364037   
     35. B(H  32,C  13)                  1.0892         0.361103   
     36. B(H  33,C  15)                  1.0877         0.363154   
     37. B(H  34,C  16)                  1.0880         0.362796   
     38. B(H  35,C  17)                  1.0873         0.363734   
     39. B(H  36,C  18)                  1.0888         0.361744   
     40. B(H  37,O  22)                  0.9805         0.482248   
     41. A(C   5,C   0,H  23)          120.0388         0.353218   
     42. A(C   1,C   0,C   5)          119.9947         0.433404   
     43. A(C   1,C   0,H  23)          119.9650         0.353380   
     44. A(C   0,C   1,C   2)          119.9419         0.433060   
     45. A(C   2,C   1,H  24)          119.9468         0.352938   
     46. A(C   0,C   1,H  24)          120.1102         0.353364   
     47. A(C   1,C   2,C   3)          120.7198         0.429755   
     48. A(C   1,C   2,H  25)          119.5931         0.352453   
     49. A(C   3,C   2,H  25)          119.6852         0.350344   
     50. A(C   4,C   3,P   6)          122.8161         0.432116   
     51. A(C   2,C   3,P   6)          118.4506         0.431629   
     52. A(C   2,C   3,C   4)          118.7320         0.427508   
     53. A(C   5,C   4,H  26)          118.6238         0.352640   
     54. A(C   3,C   4,C   5)          120.4500         0.429789   
     55. A(C   3,C   4,H  26)          120.9259         0.351248   
     56. A(C   0,C   5,C   4)          120.1603         0.432395   
     57. A(C   4,C   5,H  27)          119.9655         0.352542   
     58. A(C   0,C   5,H  27)          119.8735         0.353155   
     59. A(C   8,P   6,C  14)          109.4924         0.443249   
     60. A(O   7,P   6,C  14)          112.0844         0.523378   
     61. A(C   3,P   6,C  14)          107.0990         0.439576   
     62. A(C   3,P   6,C   8)          106.7650         0.439932   
     63. A(C   3,P   6,O   7)          109.0807         0.519311   
     64. A(O   7,P   6,C   8)          112.0572         0.523819   
     65. A(P   6,C   8,C   9)          122.6528         0.435798   
     66. A(C   9,C   8,C  13)          118.7310         0.427677   
     67. A(P   6,C   8,C  13)          118.6129         0.435304   
     68. A(C   8,C   9,C  10)          120.4598         0.429887   
     69. A(C  10,C   9,H  28)          118.7210         0.352740   
     70. A(C   8,C   9,H  28)          120.8181         0.351404   
     71. A(C  11,C  10,H  29)          119.8707         0.353166   
     72. A(C   9,C  10,C  11)          120.1510         0.432392   
     73. A(C   9,C  10,H  29)          119.9774         0.352575   
     74. A(C  10,C  11,C  12)          119.9949         0.433385   
     75. A(C  12,C  11,H  30)          119.9714         0.353390   
     76. A(C  10,C  11,H  30)          120.0325         0.353219   
     77. A(C  11,C  12,H  31)          120.1152         0.353384   
     78. A(C  13,C  12,H  31)          119.9573         0.352968   
     79. A(C  11,C  12,C  13)          119.9269         0.433066   
     80. A(C   8,C  13,H  32)          119.5948         0.350433   
     81. A(C  12,C  13,H  32)          119.6687         0.352485   
     82. A(C   8,C  13,C  12)          120.7357         0.429850   
     83. A(P   6,C  14,C  19)          121.2401         0.434169   
     84. A(C  15,C  14,C  19)          117.8155         0.425302   
     85. A(P   6,C  14,C  15)          120.9077         0.433798   
     86. A(C  16,C  15,H  33)          118.0253         0.352221   
     87. A(C  14,C  15,H  33)          120.7898         0.349894   
     88. A(C  14,C  15,C  16)          121.1792         0.427936   
     89. A(C  17,C  16,H  34)          119.8887         0.353576   
     90. A(C  15,C  16,H  34)          119.9158         0.352162   
     91. A(C  15,C  16,C  17)          120.1898         0.432797   
     92. A(C  16,C  17,H  35)          120.2252         0.353731   
     93. A(C  16,C  17,C  18)          119.7029         0.434217   
     94. A(C  18,C  17,H  35)          120.0718         0.353404   
     95. A(C  19,C  18,H  36)          120.0905         0.350749   
     96. A(C  17,C  18,H  36)          119.6603         0.353076   
     97. A(C  17,C  18,C  19)          120.2482         0.430753   
     98. A(C  14,C  19,C  20)          122.8445         0.407208   
     99. A(C  14,C  19,C  18)          120.8377         0.426702   
    100. A(C  18,C  19,C  20)          116.3177         0.408188   
    101. A(O  21,C  20,O  22)          122.8512         0.479305   
    102. A(C  19,C  20,O  22)          110.6696         0.414165   
    103. A(C  19,C  20,O  21)          126.2055         0.450015   
    104. A(C  20,O  22,H  37)          104.2629         0.370264   
    105. D(H  24,C   1,C   0,C   5)   -179.4683         0.026437   
    106. D(C   2,C   1,C   0,C   5)      0.1593         0.026437   
    107. D(C   2,C   1,C   0,H  23)    179.7204         0.026437   
    108. D(H  24,C   1,C   0,H  23)      0.0928         0.026437   
    109. D(H  25,C   2,C   1,C   0)   -179.3783         0.026041   
    110. D(H  25,C   2,C   1,H  24)      0.2499         0.026041   
    111. D(C   3,C   2,C   1,H  24)    179.7425         0.026041   
    112. D(C   3,C   2,C   1,C   0)      0.1143         0.026041   
    113. D(P   6,C   3,C   2,H  25)     -1.2838         0.024161   
    114. D(P   6,C   3,C   2,C   1)    179.2241         0.024161   
    115. D(C   4,C   3,C   2,H  25)    179.1251         0.024161   
    116. D(C   4,C   3,C   2,C   1)     -0.3671         0.024161   
    117. D(H  26,C   4,C   3,C   2)   -179.4758         0.024482   
    118. D(C   5,C   4,C   3,P   6)   -179.2204         0.024482   
    119. D(C   5,C   4,C   3,C   2)      0.3519         0.024482   
    120. D(H  26,C   4,C   3,P   6)      0.9519         0.024482   
    121. D(H  27,C   5,C   4,H  26)      0.0678         0.025721   
    122. D(C   0,C   5,C   4,H  26)    179.7461         0.025721   
    123. D(C   0,C   5,C   4,C   3)     -0.0855         0.025721   
    124. D(H  27,C   5,C   0,H  23)     -0.0559         0.026286   
    125. D(H  27,C   5,C   4,C   3)   -179.7638         0.025721   
    126. D(C   4,C   5,C   0,C   1)     -0.1737         0.026286   
    127. D(C   4,C   5,C   0,H  23)   -179.7345         0.026286   
    128. D(H  27,C   5,C   0,C   1)    179.5049         0.026286   
    129. D(C  14,P   6,C   3,C   2)    -83.6419         0.004119   
    130. D(C   8,P   6,C   3,C   4)    -21.2803         0.004119   
    131. D(C   8,P   6,C   3,C   2)    159.1462         0.004119   
    132. D(O   7,P   6,C   3,C   4)   -142.5594         0.004119   
    133. D(O   7,P   6,C   3,C   2)     37.8672         0.004119   
    134. D(C   9,C   8,P   6,O   7)   -144.9509         0.004381   
    135. D(C   9,C   8,P   6,C   3)     95.6799         0.004381   
    136. D(C  13,C   8,P   6,O   7)     35.7133         0.004381   
    137. D(C  13,C   8,P   6,C   3)    -83.6559         0.004381   
    138. D(C   9,C   8,P   6,C  14)    -19.9388         0.004381   
    139. D(H  28,C   9,C   8,C  13)   -179.3704         0.024540   
    140. D(H  28,C   9,C   8,P   6)      1.2946         0.024540   
    141. D(C  10,C   9,C   8,C  13)      0.2366         0.024540   
    142. D(C  10,C   9,C   8,P   6)   -179.0984         0.024540   
    143. D(H  29,C  10,C   9,H  28)     -0.0510         0.025730   
    144. D(H  29,C  10,C   9,C   8)   -179.6661         0.025730   
    145. D(C  11,C  10,C   9,H  28)    179.6014         0.025730   
    146. D(C  11,C  10,C   9,C   8)     -0.0137         0.025730   
    147. D(H  30,C  11,C  10,H  29)     -0.1264         0.026275   
    148. D(H  30,C  11,C  10,C   9)   -179.7791         0.026275   
    149. D(C  12,C  11,C  10,H  29)    179.4813         0.026275   
    150. D(C  12,C  11,C  10,C   9)     -0.1715         0.026275   
    151. D(H  31,C  12,C  11,H  30)      0.0013         0.026434   
    152. D(H  31,C  12,C  11,C  10)   -179.6066         0.026434   
    153. D(C  13,C  12,C  11,H  30)    179.7366         0.026434   
    154. D(C  13,C  12,C  11,C  10)      0.1287         0.026434   
    155. D(H  32,C  13,C  12,H  31)      0.1500         0.026048   
    156. D(H  32,C  13,C  12,C  11)   -179.5857         0.026048   
    157. D(C   8,C  13,C  12,H  31)    179.8351         0.026048   
    158. D(C   8,C  13,C  12,C  11)      0.0994         0.026048   
    159. D(H  32,C  13,C   8,C   9)    179.4054         0.024217   
    160. D(H  32,C  13,C   8,P   6)     -1.2324         0.024217   
    161. D(C  12,C  13,C   8,C   9)     -0.2800         0.024217   
    162. D(C  12,C  13,C   8,P   6)    179.0823         0.024217   
    163. D(C  19,C  14,P   6,O   7)     35.8716         0.004354   
    164. D(C  19,C  14,P   6,C   3)    155.4696         0.004354   
    165. D(C  15,C  14,P   6,C   8)     93.1288         0.004354   
    166. D(C  15,C  14,P   6,O   7)   -141.8748         0.004354   
    167. D(C  15,C  14,P   6,C   3)    -22.2768         0.004354   
    168. D(H  33,C  15,C  14,C  19)    179.9713         0.023477   
    169. D(H  33,C  15,C  14,P   6)     -2.2072         0.023477   
    170. D(C  16,C  15,C  14,C  19)     -0.9204         0.023477   
    171. D(C  16,C  15,C  14,P   6)    176.9011         0.023477   
    172. D(H  34,C  16,C  15,H  33)     -0.3628         0.025498   
    173. D(H  34,C  16,C  15,C  14)   -179.4951         0.025498   
    174. D(C  17,C  16,C  15,H  33)    178.7757         0.025498   
    175. D(C  17,C  16,C  15,C  14)     -0.3566         0.025498   
    176. D(H  35,C  17,C  16,H  34)     -0.0989         0.026809   
    177. D(H  35,C  17,C  16,C  15)   -179.2377         0.026809   
    178. D(C  18,C  17,C  16,H  34)    179.8073         0.026809   
    179. D(C  18,C  17,C  16,C  15)      0.6686         0.026809   
    180. D(H  36,C  18,C  17,H  35)     -0.1493         0.026500   
    181. D(H  36,C  18,C  17,C  16)    179.9442         0.026500   
    182. D(C  19,C  18,C  17,H  35)   -179.7768         0.026500   
    183. D(C  19,C  18,C  17,C  16)      0.3168         0.026500   
    184. D(C  20,C  19,C  18,C  17)    178.4803         0.024399   
    185. D(C  14,C  19,C  18,H  36)    178.7361         0.024399   
    186. D(C  14,C  19,C  18,C  17)     -1.6381         0.024399   
    187. D(C  20,C  19,C  14,C  15)   -178.2188         0.023712   
    188. D(C  20,C  19,C  14,P   6)      3.9674         0.023712   
    189. D(C  18,C  19,C  14,C  15)      1.9075         0.023712   
    190. D(C  20,C  19,C  18,H  36)     -1.1456         0.024399   
    191. D(C  18,C  19,C  14,P   6)   -175.9063         0.023712   
    192. D(O  22,C  20,C  19,C  18)   -131.2111         0.014271   
    193. D(O  22,C  20,C  19,C  14)     48.9098         0.014271   
    194. D(O  21,C  20,C  19,C  18)     42.8836         0.014271   
    195. D(O  21,C  20,C  19,C  14)   -136.9954         0.014271   
    196. D(H  37,O  22,C  20,O  21)      9.5229         0.033350   
    197. D(H  37,O  22,C  20,C  19)   -176.1484         0.033350   
    -----------------------------------------------------------------

Number of atoms                         .... 38
Number of degrees of freedom            .... 197


         *************************************************************
         *                GEOMETRY OPTIMIZATION CYCLE   1            *
         *************************************************************
---------------------------------
CARTESIAN COORDINATES (ANGSTROEM)
---------------------------------
  C     -2.349430   -3.813781    0.889988
  C     -1.405473   -3.995163   -0.118065
  C     -0.720100   -2.896262   -0.635960
  C     -0.968399   -1.601937   -0.150508
  C     -1.925528   -1.433211    0.861043
  C     -2.610709   -2.534757    1.377853
  P     -0.025479   -0.218202   -0.854162
  O      0.157391   -0.448939   -2.345737
  C     -0.967684    1.281194   -0.511183
  C     -0.708224    2.101132    0.596666
  C     -1.478876    3.242222    0.828735
  C     -2.514820    3.576220   -0.041665
  C     -2.781042    2.772941   -1.148024
  C     -2.011649    1.633279   -1.381776
  C      1.551939   -0.151631    0.020652
  C      1.693593   -0.720634    1.300982
  C      2.927833   -0.729040    1.956489
  C      4.048446   -0.176373    1.344999
  C      3.932345    0.398255    0.081831
  C      2.690203    0.426760   -0.570317
  C      2.658982    1.086599   -1.888825
  O      3.487089    0.968638   -2.770303
  O      1.641437    1.957210   -1.958456
  H     -2.887079   -4.669391    1.290715
  H     -1.206402   -4.991013   -0.506050
  H      0.009604   -3.043375   -1.431308
  H     -2.151951   -0.446589    1.256872
  H     -3.353807   -2.394458    2.159177
  H      0.097744    1.866266    1.286398
  H     -1.267400    3.875283    1.687007
  H     -3.111216    4.466909    0.138833
  H     -3.584460    3.035114   -1.831720
  H     -2.219121    1.011838   -2.251958
  H      0.845179   -1.180321    1.802953
  H      3.015748   -1.181558    2.941972
  H      5.011561   -0.193660    1.849241
  H      4.809670    0.831421   -0.395732
  H      1.670085    2.289011   -2.880657

----------------------------
CARTESIAN COORDINATES (A.U.)
----------------------------
  NO LB      ZA    FRAG     MASS         X           Y           Z
   0 C     6.0000    0    12.011   -4.439779   -7.207002    1.681834
   1 C     6.0000    0    12.011   -2.655959   -7.549764   -0.223111
   2 C     6.0000    0    12.011   -1.360792   -5.473142   -1.201790
   3 C     6.0000    0    12.011   -1.830009   -3.027222   -0.284419
   4 C     6.0000    0    12.011   -3.638721   -2.708376    1.627135
   5 C     6.0000    0    12.011   -4.933525   -4.789997    2.603765
   6 P    15.0000    0    30.974   -0.048148   -0.412342   -1.614132
   7 O     8.0000    0    15.999    0.297426   -0.848372   -4.432801
   8 C     6.0000    0    12.011   -1.828658    2.421106   -0.965996
   9 C     6.0000    0    12.011   -1.338349    3.970564    1.127535
  10 C     6.0000    0    12.011   -2.794671    6.126912    1.566082
  11 C     6.0000    0    12.011   -4.752321    6.758076   -0.078735
  12 C     6.0000    0    12.011   -5.255408    5.240099   -2.169451
  13 C     6.0000    0    12.011   -3.801466    3.086450   -2.611178
  14 C     6.0000    0    12.011    2.932740   -0.286541    0.039027
  15 C     6.0000    0    12.011    3.200427   -1.361801    2.458500
  16 C     6.0000    0    12.011    5.532803   -1.377686    3.697228
  17 C     6.0000    0    12.011    7.650454   -0.333297    2.541680
  18 C     6.0000    0    12.011    7.431055    0.752593    0.154638
  19 C     6.0000    0    12.011    5.083747    0.806460   -1.077743
  20 C     6.0000    0    12.011    5.024748    2.053375   -3.569362
  21 O     8.0000    0    15.999    6.589643    1.830461   -5.235114
  22 O     8.0000    0    15.999    3.101866    3.698591   -3.700945
  23 H     1.0000    0     1.008   -5.455789   -8.823870    2.439098
  24 H     1.0000    0     1.008   -2.279769   -9.431648   -0.956296
  25 H     1.0000    0     1.008    0.018149   -5.751145   -2.704780
  26 H     1.0000    0     1.008   -4.066598   -0.843931    2.375144
  27 H     1.0000    0     1.008   -6.337777   -4.524870    4.080253
  28 H     1.0000    0     1.008    0.184709    3.526732    2.430940
  29 H     1.0000    0     1.008   -2.395039    7.323224    3.187981
  30 H     1.0000    0     1.008   -5.879346    8.441235    0.262356
  31 H     1.0000    0     1.008   -6.773648    5.735534   -3.461449
  32 H     1.0000    0     1.008   -4.193531    1.912097   -4.255584
  33 H     1.0000    0     1.008    1.597157   -2.230483    3.407087
  34 H     1.0000    0     1.008    5.698938   -2.232821    5.559521
  35 H     1.0000    0     1.008    9.470478   -0.365964    3.494559
  36 H     1.0000    0     1.008    9.088959    1.571158   -0.747825
  37 H     1.0000    0     1.008    3.156003    4.325604   -5.443653

--------------------------------
INTERNAL COORDINATES (ANGSTROEM)
--------------------------------
 C      0   0   0     0.000000000000     0.00000000     0.00000000
 C      1   0   0     1.392883734768     0.00000000     0.00000000
 C      2   1   0     1.394824285692   119.94190042     0.00000000
 C      3   2   1     1.404490385631   120.71979949     0.11432510
 C      4   3   2     1.402782881033   118.73203017   359.63293910
 C      1   2   3     1.393621672708   119.99472991     0.15925255
 P      4   3   2     1.816301084166   118.45056432   179.22409787
 O      7   4   3     1.520354228689   109.08066198    37.86718756
 C      7   4   3     1.803766398756   106.76498695   159.14624093
 C      9   7   4     1.402478956079   122.65281134    95.67988522
 C     10   9   7     1.396369189708   120.45976892   180.90155915
 C     11  10   9     1.393675283249   120.15101130     0.00000000
 C     12  11  10     1.392896816712   119.99486908   359.82851808
 C     13  12  11     1.394788536014   119.92689929     0.12870533
 C      7   4   3     1.804987196453   107.09903768   276.35808993
 C     15   7   4     1.408217021139   120.90769458   337.72322881
 C     16  15   7     1.397536570357   121.17917820   176.90105110
 C     17  16  15     1.391091056961   120.18984909   359.64343556
 C     18  17  16     1.392576811816   119.70289908     0.66860397
 C     19  18  17     1.403219974592   120.24815653     0.31677911
 C     20  19  18     1.474728993011   116.31773261   178.48028041
 O     21  20  19     1.215187008429   126.20549175    42.88360981
 O     21  20  19     1.340973458539   110.66961266   228.78887369
 H      1   2   3     1.087068097145   119.96503373   179.72036973
 H      2   1   3     1.087142514009   120.11023258   180.37239883
 H      3   2   1     1.089352378016   119.59310627   180.62170954
 H      5   4   3     1.086908893631   120.92589128   180.52420646
 H      6   1   2     1.087357181418   119.87347162   179.50489520
 H     10   9   7     1.086497439852   120.81812946     1.29460902
 H     11  10   9     1.087253031397   119.97735026   180.33392200
 H     12  11  10     1.087011780774   120.03254122   180.22087541
 H     13  12  11     1.087039734816   120.11522892   180.39341262
 H     14  13  12     1.089242975827   119.66872956   180.41429786
 H     16  15   7     1.087700941530   120.78975805   357.79275150
 H     17  16  15     1.087969820739   119.91580784   180.50494643
 H     18  17  16     1.087266912105   120.22520700   180.76233510
 H     19  18  17     1.088760009437   119.66032356   179.94424123
 H     23  21  20     0.980493394116   104.26288401   183.85163642

---------------------------
INTERNAL COORDINATES (A.U.)
---------------------------
 C      0   0   0     0.000000000000     0.00000000     0.00000000
 C      1   0   0     2.632168795105     0.00000000     0.00000000
 C      2   1   0     2.635835904899   119.94190042     0.00000000
 C      3   2   1     2.654102186568   120.71979949     0.11432510
 C      4   3   2     2.650875470505   118.73203017   359.63293910
 C      1   2   3     2.633563295716   119.99472991     0.15925255
 P      4   3   2     3.432311625817   118.45056432   179.22409787
 O      7   4   3     2.873053118772   109.08066198    37.86718756
 C      7   4   3     3.408624503219   106.76498695   159.14624093
 C      9   7   4     2.650301135577   122.65281134    95.67988522
 C     10   9   7     2.638755350393   120.45976892   180.90155915
 C     11  10   9     2.633664604956   120.15101130     0.00000000
 C     12  11  10     2.632193516396   119.99486908   359.82851808
 C     13  12  11     2.635768347800   119.92689929     0.12870533
 C      7   4   3     3.410931476531   107.09903768   276.35808993
 C     15   7   4     2.661144507079   120.90769458   337.72322881
 C     16  15   7     2.640961380114   121.17917820   176.90105110
 C     17  16  15     2.628781125004   120.18984909   359.64343556
 C     18  17  16     2.631588794782   119.70289908     0.66860397
 C     19  18  17     2.651701457626   120.24815653     0.31677911
 C     20  19  18     2.786833918543   116.31773261   178.48028041
 O     21  20  19     2.296370647429   126.20549175    42.88360981
 O     21  20  19     2.534072589497   110.66961266   228.78887369
 H      1   2   3     2.054260992527   119.96503373   179.72036973
 H      2   1   3     2.054401620020   120.11023258   180.37239883
 H      3   2   1     2.058577657786   119.59310627   180.62170954
 H      5   4   3     2.053960141486   120.92589128   180.52420646
 H      6   1   2     2.054807282632   119.87347162   179.50489520
 H     10   9   7     2.053182606526   120.81812946     1.29460902
 H     11  10   9     2.054610467615   119.97735026   180.33392200
 H     12  11  10     2.054154570009   120.03254122   180.22087541
 H     13  12  11     2.054207395493   120.11522892   180.39341262
 H     14  13  12     2.058370917611   119.66872956   180.41429786
 H     16  15   7     2.055456895101   120.78975805   357.79275150
 H     17  16  15     2.055965003167   119.91580784   180.50494643
 H     18  17  16     2.054636698352   120.22520700   180.76233510
 H     19  18  17     2.057458243402   119.66032356   179.94424123
 H     23  21  20     1.852863990999   104.26288401   183.85163642

---------------------
BASIS SET INFORMATION
---------------------
There are 4 groups of distinct atoms

 Group   1 Type C   : 7s4p1d contracted to 3s2p1d pattern {511/31/1}
 Group   2 Type P   : 10s7p1d contracted to 4s3p1d pattern {5311/511/1}
 Group   3 Type O   : 7s4p1d contracted to 3s2p1d pattern {511/31/1}
 Group   4 Type H   : 4s1p contracted to 2s1p pattern {31/1}

Atom   0C    basis set group =>   1
Atom   1C    basis set group =>   1
Atom   2C    basis set group =>   1
Atom   3C    basis set group =>   1
Atom   4C    basis set group =>   1
Atom   5C    basis set group =>   1
Atom   6P    basis set group =>   2
Atom   7O    basis set group =>   3
Atom   8C    basis set group =>   1
Atom   9C    basis set group =>   1
Atom  10C    basis set group =>   1
Atom  11C    basis set group =>   1
Atom  12C    basis set group =>   1
Atom  13C    basis set group =>   1
Atom  14C    basis set group =>   1
Atom  15C    basis set group =>   1
Atom  16C    basis set group =>   1
Atom  17C    basis set group =>   1
Atom  18C    basis set group =>   1
Atom  19C    basis set group =>   1
Atom  20C    basis set group =>   1
Atom  21O    basis set group =>   3
Atom  22O    basis set group =>   3
Atom  23H    basis set group =>   4
Atom  24H    basis set group =>   4
Atom  25H    basis set group =>   4
Atom  26H    basis set group =>   4
Atom  27H    basis set group =>   4
Atom  28H    basis set group =>   4
Atom  29H    basis set group =>   4
Atom  30H    basis set group =>   4
Atom  31H    basis set group =>   4
Atom  32H    basis set group =>   4
Atom  33H    basis set group =>   4
Atom  34H    basis set group =>   4
Atom  35H    basis set group =>   4
Atom  36H    basis set group =>   4
Atom  37H    basis set group =>   4
---------------------------------
AUXILIARY/J BASIS SET INFORMATION
---------------------------------
There are 4 groups of distinct atoms

 Group   1 Type C   : 12s5p4d2f1g contracted to 6s4p3d1f1g pattern {711111/2111/211/2/1}
 Group   2 Type P   : 14s5p5d2f1g contracted to 8s4p3d1f1g pattern {71111111/2111/311/2/1}
 Group   3 Type O   : 12s5p4d2f1g contracted to 6s4p3d1f1g pattern {711111/2111/211/2/1}
 Group   4 Type H   : 5s2p1d contracted to 3s1p1d pattern {311/2/1}

Atom   0C    basis set group =>   1
Atom   1C    basis set group =>   1
Atom   2C    basis set group =>   1
Atom   3C    basis set group =>   1
Atom   4C    basis set group =>   1
Atom   5C    basis set group =>   1
Atom   6P    basis set group =>   2
Atom   7O    basis set group =>   3
Atom   8C    basis set group =>   1
Atom   9C    basis set group =>   1
Atom  10C    basis set group =>   1
Atom  11C    basis set group =>   1
Atom  12C    basis set group =>   1
Atom  13C    basis set group =>   1
Atom  14C    basis set group =>   1
Atom  15C    basis set group =>   1
Atom  16C    basis set group =>   1
Atom  17C    basis set group =>   1
Atom  18C    basis set group =>   1
Atom  19C    basis set group =>   1
Atom  20C    basis set group =>   1
Atom  21O    basis set group =>   3
Atom  22O    basis set group =>   3
Atom  23H    basis set group =>   4
Atom  24H    basis set group =>   4
Atom  25H    basis set group =>   4
Atom  26H    basis set group =>   4
Atom  27H    basis set group =>   4
Atom  28H    basis set group =>   4
Atom  29H    basis set group =>   4
Atom  30H    basis set group =>   4
Atom  31H    basis set group =>   4
Atom  32H    basis set group =>   4
Atom  33H    basis set group =>   4
Atom  34H    basis set group =>   4
Atom  35H    basis set group =>   4
Atom  36H    basis set group =>   4
Atom  37H    basis set group =>   4


           ************************************************************
           *        Program running with 6 parallel MPI-processes     *
           *              working on a common directory               *
           ************************************************************
------------------------------------------------------------------------------
                             ORCA STARTUP CALCULATIONS
                           -- RI-GTO INTEGRALS CHOSEN --
------------------------------------------------------------------------------
------------------------------------------------------------------------------
                   ___                                                        
                  /   \      - P O W E R E D   B Y -                         
                 /     \                                                     
                 |  |  |   _    _      __       _____    __    __             
                 |  |  |  | |  | |    /  \     |  _  \  |  |  /  |          
                  \  \/   | |  | |   /    \    | | | |  |  | /  /          
                 / \  \   | |__| |  /  /\  \   | |_| |  |  |/  /          
                |  |  |   |  __  | /  /__\  \  |    /   |      \           
                |  |  |   | |  | | |   __   |  |    \   |  |\   \          
                \     /   | |  | | |  |  |  |  | |\  \  |  | \   \       
                 \___/    |_|  |_| |__|  |__|  |_| \__\ |__|  \__/        
                                                                              
                      - O R C A' S   B I G   F R I E N D -                    
                                      &                                       
                       - I N T E G R A L  F E E D E R -                       
                                                                              
 v1 FN, 2020, v2 2021, v3 2022-2024                                           
------------------------------------------------------------------------------


----------------------
SHARK INTEGRAL PACKAGE
----------------------

Number of atoms                             ...     38
Number of basis functions                   ...    401
Number of shells                            ...    185
Maximum angular momentum                    ...      2
Integral batch strategy                     ... SHARK/LIBINT Hybrid
RI-J (if used) integral strategy            ... SPLIT-RIJ (Revised 2003 algorithm where possible)
Printlevel                                  ...      1
Contraction scheme used                     ... SEGMENTED contraction
Prescreening option                         ... SCHWARTZ
   Thresh                                   ... 2.500e-11
   Tcut                                     ... 2.500e-12
   Tpresel                                  ... 2.500e-12 
Coulomb Range Separation                    ... NOT USED
Exchange Range Separation                   ... NOT USED
Multipole approximations                    ... NOT USED
Finite Nucleus Model                        ... NOT USED
CABS basis                                  ... NOT available
Auxiliary Coulomb fitting basis             ... AVAILABLE
   # of basis functions in Aux-J            ...   1294
   # of shells in Aux-J                     ...    422
   Maximum angular momentum in Aux-J        ...      4
Auxiliary J/K fitting basis                 ... NOT available
Auxiliary Correlation fitting basis         ... NOT available
Auxiliary 'external' fitting basis          ... NOT available

Checking pre-screening integrals            ... done (  0.0 sec) Dimension = 185
Check shell pair data                       ... done (  0.0 sec)
Shell pair information
Shell pair cut-off parameter TPreSel        ...   2.5e-12
Total number of shell pairs                 ...     17205
Shell pairs after pre-screening             ...     13096
Total number of primitive shell pairs       ...     64257
Primitive shell pairs kept                  ...     30802
          la=0 lb=0:   3911 shell pairs
          la=1 lb=0:   4858 shell pairs
          la=1 lb=1:   1552 shell pairs
          la=2 lb=0:   1600 shell pairs
          la=2 lb=1:   1017 shell pairs
          la=2 lb=2:    158 shell pairs

Calculating one electron integrals          ... done (  0.0 sec)
Calculating RI/J V-Matrix + Cholesky decomp.... done (  0.1 sec)
Calculating Nuclear repulsion               ... done (  0.0 sec) ENN=   2023.417272090062 Eh

Diagonalization of the overlap matrix:
Smallest eigenvalue                        ... 2.617e-04
Time for diagonalization                   ...    0.021 sec
Threshold for overlap eigenvalues          ... 1.000e-07
Number of eigenvalues below threshold      ... 0
Time for construction of square roots      ...    0.013 sec
Total time needed                          ...    0.036 sec

-------------------
DFT GRID GENERATION
-------------------

General Integration Accuracy     IntAcc      ... 4.388
Radial Grid Type                 RadialGrid  ... OptM3 with GC (2021)
Angular Grid (max. ang.)         AngularGrid ... 4 (Lebedev-302)
Angular grid pruning method      GridPruning ... 4 (adaptive)
Weight generation scheme         WeightScheme... mBecke (2022)
Basis function cutoff            BFCut       ... 1.0000e-11
Integration weight cutoff        WCut        ... 1.0000e-14
Partially contracted basis set               ... off
Rotationally invariant grid construction     ... off
Angular grids for H and He will be reduced by one unit

Total number of grid points                  ...   186541
Total number of batches                      ...     2938
Average number of points per batch           ...       63
Average number of grid points per atom       ...     4909
Initializing property integral containers    ... done (  0.0 sec)

SHARK setup successfully completed in   1.4 seconds

Maximum memory used throughout the entire STARTUP-calculation: 51.6 MB


           ************************************************************
           *        Program running with 6 parallel MPI-processes     *
           *              working on a common directory               *
           ************************************************************
-------------------------------------------------------------------------------
                                 ORCA GUESS
                   Start orbitals & Density for SCF / CASSCF
-------------------------------------------------------------------------------

------------
SCF SETTINGS
------------
Hamiltonian:
 Density Functional     Method          .... DFT(GTOs)
 Exchange Functional    Exchange        .... B88
   X-Alpha parameter    XAlpha          ....  0.666667
   Becke's b parameter  XBeta           ....  0.004200
 Correlation Functional Correlation     .... P86
 LDA part of GGA corr.  LDAOpt          .... PW91-LDA
 Gradients option       PostSCFGGA      .... off
   NL short-range parameter             ....  4.400000
 RI-approximation to the Coulomb term is turned on
   Number of AuxJ basis functions       .... 1294


General Settings:
 Integral files         IntName         .... data/geom_opt_PO_BP86/87021/87021
 Hartree-Fock type      HFTyp           .... RHF
 Total Charge           Charge          ....    0
 Multiplicity           Mult            ....    1
 Number of Electrons    NEL             ....  168
 Basis Dimension        Dim             ....  401
 Nuclear Repulsion      ENuc            ....   2023.4172720901 Eh

Convergence Acceleration:
 AO-DIIS                CNVDIIS         .... on
   Start iteration      DIISMaxIt       ....    12
   Startup error        DIISStart       ....  0.200000
   # of expansion vecs  DIISMaxEq       ....     5
   Bias factor          DIISBfac        ....   1.050
   Max. coefficient     DIISMaxC        ....  10.000
 MO-DIIS                CNVKDIIS        .... off
 Trust-Rad. Augm. Hess. CNVTRAH         .... auto
   Auto Start mean grad. ratio tolernc. ....  1.125000
   Auto Start start iteration           ....    50
   Auto Start num. interpolation iter.  ....    10
   Max. Number of Micro iterations      ....    24
   Max. Number of Macro iterations      .... Maxiter - #DIIS iter
   Number of Davidson start vectors     ....     2
   Converg. threshold    (grad. norm)   ....   1.000e-05
   Grad. Scal. Fac. for Micro threshold ....   0.100
   Minimum threshold for Micro iter.    ....   1.000e-02
   NR start threshold (gradient norm)   ....   1.000e-04
   Initial trust radius                 ....   0.400
   Minimum AH scaling param. (alpha)    ....   1.000
   Maximum AH scaling param. (alpha)    .... 1000.000
   Quad. conv. algorithm                .... NR
   White noise on init. David. guess    .... on
   Maximum white noise                  ....   0.010
   Pseudo random numbers                .... off
   Inactive MOs                         .... canonical
   Orbital update algorithm             .... Taylor
   Preconditioner                       .... Diag
   Full preconditioner red. dimension   ....   250
 SOSCF                  CNVSOSCF        .... on
   Start iteration      SOSCFMaxIt      ....   150
   Startup grad/error   SOSCFStart      ....  0.003300
   Hessian update       SOSCFHessUp     .... L-BFGS
 Level Shifting         CNVShift        .... on
   Level shift para.    LevelShift      ....    0.2500
   Turn off err/grad.   ShiftErr        ....    0.0010
 Zerner damping         CNVZerner       .... off
 Static damping         CNVDamp         .... on
   Fraction old density DampFac         ....    0.7000
   Max. Damping (<1)    DampMax         ....    0.9800
   Min. Damping (>=0)   DampMin         ....    0.0000
   Turn off err/grad.   DampErr         ....    0.1000

SCF Procedure:
 Maximum # iterations   MaxIter         ....   125
 SCF integral mode      SCFMode         .... Direct
   Integral package                     .... SHARK and LIBINT hybrid scheme
 Reset frequency        DirectResetFreq ....    20
 Integral Threshold     Thresh          ....  2.500e-11 Eh
 Primitive CutOff       TCut            ....  2.500e-12 Eh

Convergence Tolerance:
 Convergence Check Mode ConvCheckMode   .... Total+1el-Energy
 Convergence forced     ConvForced      .... 0
 Energy Change          TolE            ....  1.000e-08 Eh
 1-El. energy change                    ....  1.000e-05 Eh
 Orbital Gradient       TolG            ....  1.000e-05
 Orbital Rotation angle TolX            ....  1.000e-05
 DIIS Error             TolErr          ....  5.000e-07

------------------------------
INITIAL GUESS: MODEL POTENTIAL
------------------------------
Loading Hartree-Fock densities                     ... done
Calculating cut-offs                               ... done
Initializing the effective Hamiltonian             ... done
Setting up the integral package (SHARK)            ... done
Starting the Coulomb interaction                   ... done (   0.2 sec)
Making the grid                                    ... done (   0.3 sec)
Mapping shells                                     ... done
Starting the XC term evaluation                    ... done (   0.2 sec)
  promolecular density results
     # of electrons  =    167.997495625
     EX              =   -149.405706180
     EC              =     -6.264826505
     EX+EC           =   -155.670532685
Transforming the Hamiltonian                       ... done (   0.0 sec)
Diagonalizing the Hamiltonian                      ... done (   0.0 sec)
Back transforming the eigenvectors                 ... done (   0.0 sec)
Now organizing SCF variables                       ... done
                      ------------------
                      INITIAL GUESS DONE (   0.7 sec)
                      ------------------
             **** ENERGY FILE WAS UPDATED (data/geom_opt_PO_BP86/87021/87021.en.tmp) ****
Finished Guess after   0.8 sec
Maximum memory used throughout the entire GUESS-calculation: 29.7 MB


           ************************************************************
           *        Program running with 6 parallel MPI-processes     *
           *              working on a common directory               *
           ************************************************************

-------------------------------------------------------------------------------------------
                                      ORCA LEAN-SCF
                              memory conserving SCF solver
-------------------------------------------------------------------------------------------

----------------------------------------D-I-I-S--------------------------------------------
Iteration    Energy (Eh)           Delta-E    RMSDP     MaxDP     DIISErr   Damp  Time(sec)
-------------------------------------------------------------------------------------------
               ***  Starting incremental Fock matrix formation  ***
    1    -1298.8245192857818893     0.00e+00  3.28e-03  1.67e-01  3.36e-01  0.700   1.2
Warning: op=0 Small HOMO/LUMO gap (   0.098) - skipping pre-diagonalization
         Will do a full diagonalization
    2    -1299.0913688698794886    -2.67e-01  1.66e-03  4.48e-02  8.06e-02  0.700   1.1
                               ***Turning on AO-DIIS***
    3    -1299.1766593769173141    -8.53e-02  6.16e-04  1.67e-02  2.71e-02  0.700   1.1
    4    -1299.2314526621664754    -5.48e-02  1.02e-03  3.95e-02  1.14e-02  0.000   1.2
    5    -1299.3552946820270790    -1.24e-01  2.59e-04  7.63e-03  6.87e-03  0.000   1.1
                              *** Initializing SOSCF ***
---------------------------------------S-O-S-C-F--------------------------------------
Iteration    Energy (Eh)           Delta-E    RMSDP     MaxDP     MaxGrad    Time(sec)
--------------------------------------------------------------------------------------
    6    -1299.3561964106286268    -9.02e-04  9.69e-05  3.31e-03  2.36e-03     1.0
               *** Restarting incremental Fock matrix formation ***
    7    -1299.3562594443658327    -6.30e-05  1.02e-04  4.42e-03  7.29e-04     1.2
    8    -1299.3561876968853994     7.17e-05  6.52e-05  3.01e-03  2.62e-03     1.0
    9    -1299.3562764092628186    -8.87e-05  3.24e-05  1.36e-03  2.09e-04     1.0
   10    -1299.3562681702580903     8.24e-06  2.20e-05  8.62e-04  4.31e-04     0.9
   11    -1299.3562781106190869    -9.94e-06  1.11e-05  5.51e-04  8.10e-05     0.9
   12    -1299.3562770800920134     1.03e-06  7.10e-06  3.63e-04  1.59e-04     1.0
   13    -1299.3562784400357941    -1.36e-06  3.98e-06  2.69e-04  2.06e-05     0.9
   14    -1299.3562783234112885     1.17e-07  2.61e-06  1.68e-04  3.39e-05     0.9
   15    -1299.3562784571342945    -1.34e-07  1.91e-06  7.52e-05  1.19e-05     0.9
   16    -1299.3562784463304070     1.08e-08  1.30e-06  4.98e-05  1.93e-05     0.9
   17    -1299.3562784664557057    -2.01e-08  6.44e-07  2.16e-05  4.59e-06     0.9
   18    -1299.3562784844214093    -1.80e-08  4.50e-07  1.64e-05  1.07e-05     0.9
   19    -1299.3562784745383851     9.88e-09  1.09e-07  3.87e-06  5.20e-07     0.8
                 **** Energy Check signals convergence ****

               *****************************************************
               *                     SUCCESS                       *
               *           SCF CONVERGED AFTER  19 CYCLES          *
               *****************************************************

             **** ENERGY FILE WAS UPDATED (data/geom_opt_PO_BP86/87021/87021.en.tmp) ****

----------------
TOTAL SCF ENERGY
----------------

Total Energy       :      -1299.35627847453839 Eh          -35357.28187 eV

Components:
Nuclear Repulsion  :       2023.41727209006217 Eh           55059.98317 eV
Electronic Energy  :      -3322.77355056460055 Eh          -90417.26504 eV
One Electron Energy:      -5796.37855513759314 Eh         -157727.47920 eV
Two Electron Energy:       2473.60500457299258 Eh           67310.21416 eV

Virial components:
Potential Energy   :      -2587.63828492537141 Eh          -70413.21747 eV
Kinetic Energy     :       1288.28200645083302 Eh           35055.93560 eV
Virial Ratio       :          2.00859615516498

DFT components:
N(Alpha)           :       83.999933581786 electrons
N(Beta)            :       83.999933581786 electrons
N(Total)           :      167.999867163571 electrons
E(X)               :     -151.420444924504 Eh       
E(C)               :       -6.275637330908 Eh       
E(XC)              :     -157.696082255412 Eh       

---------------
SCF CONVERGENCE
---------------

  Last Energy change         ...   -9.8830e-09  Tolerance :   1.0000e-08
  Last MAX-Density change    ...    3.8670e-06  Tolerance :   1.0000e-07
  Last RMS-Density change    ...    1.0913e-07  Tolerance :   5.0000e-09
  Last DIIS Error            ...    2.3628e-03  Tolerance :   5.0000e-07
  Last Orbital Gradient      ...    5.1965e-07  Tolerance :   1.0000e-05
  Last Orbital Rotation      ...    2.0054e-06  Tolerance :   1.0000e-05


----------------
ORBITAL ENERGIES
----------------

  NO   OCC          E(Eh)            E(eV) 
   0   2.0000     -76.416555     -2079.4002 
   1   2.0000     -18.820175      -512.1230 
   2   2.0000     -18.761635      -510.5300 
   3   2.0000     -18.708586      -509.0865 
   4   2.0000     -10.030735      -272.9502 
   5   2.0000      -9.944548      -270.6049 
   6   2.0000      -9.940019      -270.4817 
   7   2.0000      -9.939757      -270.4745 
   8   2.0000      -9.936205      -270.3779 
   9   2.0000      -9.935970      -270.3715 
  10   2.0000      -9.935670      -270.3633 
  11   2.0000      -9.930684      -270.2276 
  12   2.0000      -9.930607      -270.2256 
  13   2.0000      -9.928025      -270.1553 
  14   2.0000      -9.927892      -270.1517 
  15   2.0000      -9.927752      -270.1479 
  16   2.0000      -9.927710      -270.1467 
  17   2.0000      -9.927651      -270.1451 
  18   2.0000      -9.927527      -270.1417 
  19   2.0000      -9.926946      -270.1259 
  20   2.0000      -9.926890      -270.1244 
  21   2.0000      -9.926139      -270.1040 
  22   2.0000      -9.925783      -270.0943 
  23   2.0000      -6.375119      -173.4758 
  24   2.0000      -4.596384      -125.0740 
  25   2.0000      -4.596184      -125.0685 
  26   2.0000      -4.596050      -125.0649 
  27   2.0000      -1.005803       -27.3693 
  28   2.0000      -0.911506       -24.8033 
  29   2.0000      -0.848252       -23.0821 
  30   2.0000      -0.797003       -21.6875 
  31   2.0000      -0.785625       -21.3779 
  32   2.0000      -0.783900       -21.3310 
  33   2.0000      -0.709607       -19.3094 
  34   2.0000      -0.704011       -19.1571 
  35   2.0000      -0.687121       -18.6975 
  36   2.0000      -0.681698       -18.5500 
  37   2.0000      -0.680769       -18.5247 
  38   2.0000      -0.679741       -18.4967 
  39   2.0000      -0.609395       -16.5825 
  40   2.0000      -0.590185       -16.0598 
  41   2.0000      -0.562195       -15.2981 
  42   2.0000      -0.554112       -15.0782 
  43   2.0000      -0.552632       -15.0379 
  44   2.0000      -0.546473       -14.8703 
  45   2.0000      -0.536711       -14.6047 
  46   2.0000      -0.512105       -13.9351 
  47   2.0000      -0.485051       -13.1989 
  48   2.0000      -0.480175       -13.0662 
  49   2.0000      -0.456784       -12.4297 
  50   2.0000      -0.442341       -12.0367 
  51   2.0000      -0.430358       -11.7106 
  52   2.0000      -0.420454       -11.4411 
  53   2.0000      -0.419423       -11.4131 
  54   2.0000      -0.417930       -11.3725 
  55   2.0000      -0.410809       -11.1787 
  56   2.0000      -0.406694       -11.0667 
  57   2.0000      -0.400732       -10.9045 
  58   2.0000      -0.393290       -10.7020 
  59   2.0000      -0.386353       -10.5132 
  60   2.0000      -0.384970       -10.4756 
  61   2.0000      -0.383343       -10.4313 
  62   2.0000      -0.380149       -10.3444 
  63   2.0000      -0.355648        -9.6777 
  64   2.0000      -0.350845        -9.5470 
  65   2.0000      -0.345596        -9.4041 
  66   2.0000      -0.344575        -9.3764 
  67   2.0000      -0.336245        -9.1497 
  68   2.0000      -0.326948        -8.8967 
  69   2.0000      -0.319414        -8.6917 
  70   2.0000      -0.315966        -8.5979 
  71   2.0000      -0.312198        -8.4953 
  72   2.0000      -0.308509        -8.3950 
  73   2.0000      -0.297301        -8.0900 
  74   2.0000      -0.274304        -7.4642 
  75   2.0000      -0.258212        -7.0263 
  76   2.0000      -0.255825        -6.9613 
  77   2.0000      -0.249425        -6.7872 
  78   2.0000      -0.243529        -6.6268 
  79   2.0000      -0.242109        -6.5881 
  80   2.0000      -0.240565        -6.5461 
  81   2.0000      -0.225355        -6.1322 
  82   2.0000      -0.213112        -5.7991 
  83   2.0000      -0.207285        -5.6405 
  84   0.0000      -0.085545        -2.3278 
  85   0.0000      -0.068951        -1.8763 
  86   0.0000      -0.065975        -1.7953 
  87   0.0000      -0.063252        -1.7212 
  88   0.0000      -0.053915        -1.4671 
  89   0.0000      -0.047001        -1.2790 
  90   0.0000      -0.004932        -0.1342 
  91   0.0000       0.032768         0.8916 
  92   0.0000       0.041689         1.1344 
  93   0.0000       0.042607         1.1594 
  94   0.0000       0.044303         1.2056 
*Only the first 10 virtual orbitals were printed.

                    ********************************
                    * MULLIKEN POPULATION ANALYSIS *
                    ********************************

-----------------------
MULLIKEN ATOMIC CHARGES
-----------------------
   0 C :    0.015132
   1 C :    0.010694
   2 C :    0.015374
   3 C :   -0.118117
   4 C :   -0.005531
   5 C :    0.011632
   6 P :    0.632924
   7 O :   -0.474051
   8 C :   -0.096239
   9 C :   -0.000809
  10 C :    0.010122
  11 C :    0.015037
  12 C :    0.009739
  13 C :    0.006502
  14 C :   -0.083324
  15 C :   -0.022184
  16 C :    0.027699
  17 C :    0.013400
  18 C :    0.007645
  19 C :    0.010987
  20 C :    0.084986
  21 O :   -0.182565
  22 O :   -0.137254
  23 H :    0.001250
  24 H :    0.003635
  25 H :    0.015419
  26 H :    0.003449
  27 H :   -0.002273
  28 H :   -0.001465
  29 H :   -0.002388
  30 H :    0.000845
  31 H :    0.002608
  32 H :    0.011902
  33 H :    0.009763
  34 H :    0.003736
  35 H :    0.006983
  36 H :    0.009908
  37 H :    0.184830
Sum of atomic charges:   -0.0000000

--------------------------------
MULLIKEN REDUCED ORBITAL CHARGES
--------------------------------
  0 C s       :     3.170166  s :     3.170166
      pz      :     0.948863  p :     2.781625
      px      :     0.938851
      py      :     0.893911
      dz2     :     0.006038  d :     0.033077
      dxz     :     0.004349
      dyz     :     0.007992
      dx2y2   :     0.006554
      dxy     :     0.008145

  1 C s       :     3.171970  s :     3.171970
      pz      :     0.952733  p :     2.784540
      px      :     0.969320
      py      :     0.862487
      dz2     :     0.006072  d :     0.032796
      dxz     :     0.004921
      dyz     :     0.007338
      dx2y2   :     0.007928
      dxy     :     0.006536

  2 C s       :     3.237905  s :     3.237905
      pz      :     0.886447  p :     2.714066
      px      :     0.893010
      py      :     0.934610
      dz2     :     0.004517  d :     0.032654
      dxz     :     0.004296
      dyz     :     0.007943
      dx2y2   :     0.008108
      dxy     :     0.007790

  3 C s       :     3.077668  s :     3.077668
      pz      :     0.993292  p :     3.007256
      px      :     1.003257
      py      :     1.010707
      dz2     :     0.006410  d :     0.033194
      dxz     :     0.004761
      dyz     :     0.007619
      dx2y2   :     0.006416
      dxy     :     0.007988

  4 C s       :     3.228027  s :     3.228027
      pz      :     0.944501  p :     2.744596
      px      :     0.962615
      py      :     0.837480
      dz2     :     0.006111  d :     0.032908
      dxz     :     0.004852
      dyz     :     0.007406
      dx2y2   :     0.007949
      dxy     :     0.006589

  5 C s       :     3.170437  s :     3.170437
      pz      :     0.907326  p :     2.785222
      px      :     0.918102
      py      :     0.959794
      dz2     :     0.004394  d :     0.032710
      dxz     :     0.004423
      dyz     :     0.007762
      dx2y2   :     0.008311
      dxy     :     0.007820

  6 P s       :     5.192390  s :     5.192390
      pz      :     2.813175  p :     8.688700
      px      :     2.937089
      py      :     2.938436
      dz2     :     0.094256  d :     0.485986
      dxz     :     0.142334
      dyz     :     0.122355
      dx2y2   :     0.053045
      dxy     :     0.073995

  7 O s       :     3.830014  s :     3.830014
      pz      :     1.338696  p :     4.632331
      px      :     1.639719
      py      :     1.653916
      dz2     :     0.004854  d :     0.011706
      dxz     :     0.003213
      dyz     :     0.003316
      dx2y2   :     0.000155
      dxy     :     0.000169

  8 C s       :     3.064256  s :     3.064256
      pz      :     0.981082  p :     2.998723
      px      :     1.026081
      py      :     0.991560
      dz2     :     0.008315  d :     0.033259
      dxz     :     0.006692
      dyz     :     0.006493
      dx2y2   :     0.005183
      dxy     :     0.006575

  9 C s       :     3.226211  s :     3.226211
      pz      :     0.924667  p :     2.741668
      px      :     0.880580
      py      :     0.936420
      dz2     :     0.005995  d :     0.032930
      dxz     :     0.006917
      dyz     :     0.007262
      dx2y2   :     0.006797
      dxy     :     0.005959

 10 C s       :     3.170970  s :     3.170970
      pz      :     0.889667  p :     2.786186
      px      :     0.966678
      py      :     0.929842
      dz2     :     0.005809  d :     0.032723
      dxz     :     0.005551
      dyz     :     0.007522
      dx2y2   :     0.007140
      dxy     :     0.006701

 11 C s       :     3.169154  s :     3.169154
      pz      :     0.961753  p :     2.782750
      px      :     0.934472
      py      :     0.886525
      dz2     :     0.008360  d :     0.033059
      dxz     :     0.006749
      dyz     :     0.006378
      dx2y2   :     0.004954
      dxy     :     0.006618

 12 C s       :     3.172857  s :     3.172857
      pz      :     0.917627  p :     2.784576
      px      :     0.905635
      py      :     0.961314
      dz2     :     0.006071  d :     0.032828
      dxz     :     0.006772
      dyz     :     0.007455
      dx2y2   :     0.006562
      dxy     :     0.005968

 13 C s       :     3.242374  s :     3.242374
      pz      :     0.888065  p :     2.718419
      px      :     0.948803
      py      :     0.881551
      dz2     :     0.005755  d :     0.032705
      dxz     :     0.005657
      dyz     :     0.007505
      dx2y2   :     0.007214
      dxy     :     0.006573

 14 C s       :     3.079818  s :     3.079818
      pz      :     0.939574  p :     2.970813
      px      :     1.000789
      py      :     1.030451
      dz2     :     0.007658  d :     0.032693
      dxz     :     0.009723
      dyz     :     0.005157
      dx2y2   :     0.005591
      dxy     :     0.004564

 15 C s       :     3.240487  s :     3.240487
      pz      :     0.929617  p :     2.749065
      px      :     0.862574
      py      :     0.956874
      dz2     :     0.007758  d :     0.032632
      dxz     :     0.010114
      dyz     :     0.005079
      dx2y2   :     0.004329
      dxy     :     0.005352

 16 C s       :     3.168450  s :     3.168450
      pz      :     0.857680  p :     2.771016
      px      :     0.965301
      py      :     0.948035
      dz2     :     0.007356  d :     0.032835
      dxz     :     0.008739
      dyz     :     0.003776
      dx2y2   :     0.006379
      dxy     :     0.006585

 17 C s       :     3.175253  s :     3.175253
      pz      :     0.940820  p :     2.778270
      px      :     0.873274
      py      :     0.964176
      dz2     :     0.007692  d :     0.033077
      dxz     :     0.010106
      dyz     :     0.005149
      dx2y2   :     0.005775
      dxy     :     0.004355

 18 C s       :     3.243660  s :     3.243660
      pz      :     0.907144  p :     2.716363
      px      :     0.879203
      py      :     0.930017
      dz2     :     0.007648  d :     0.032332
      dxz     :     0.009901
      dyz     :     0.005046
      dx2y2   :     0.004488
      dxy     :     0.005249

 19 C s       :     3.088833  s :     3.088833
      pz      :     0.937324  p :     2.862390
      px      :     0.936158
      py      :     0.988908
      dz2     :     0.008849  d :     0.037790
      dxz     :     0.009319
      dyz     :     0.005411
      dx2y2   :     0.007040
      dxy     :     0.007170

 20 C s       :     3.060318  s :     3.060318
      pz      :     0.986465  p :     2.724188
      px      :     0.870042
      py      :     0.867681
      dz2     :     0.034469  d :     0.130507
      dxz     :     0.022716
      dyz     :     0.020538
      dx2y2   :     0.024237
      dxy     :     0.028548

 21 O s       :     3.731596  s :     3.731596
      pz      :     1.449322  p :     4.433345
      px      :     1.434017
      py      :     1.550006
      dz2     :     0.004061  d :     0.017624
      dxz     :     0.005962
      dyz     :     0.002722
      dx2y2   :     0.002663
      dxy     :     0.002217

 22 O s       :     3.692687  s :     3.692687
      pz      :     1.381207  p :     4.430794
      px      :     1.539992
      py      :     1.509595
      dz2     :     0.004372  d :     0.013773
      dxz     :     0.001608
      dyz     :     0.001635
      dx2y2   :     0.002533
      dxy     :     0.003624

 23 H s       :     0.976454  s :     0.976454
      pz      :     0.005634  p :     0.022296
      px      :     0.006756
      py      :     0.009906

 24 H s       :     0.974035  s :     0.974035
      pz      :     0.005585  p :     0.022330
      px      :     0.004651
      py      :     0.012094

 25 H s       :     0.961928  s :     0.961928
      pz      :     0.010126  p :     0.022653
      px      :     0.008746
      py      :     0.003782

 26 H s       :     0.973424  s :     0.973424
      pz      :     0.005546  p :     0.023126
      px      :     0.004841
      py      :     0.012739

 27 H s       :     0.979914  s :     0.979914
      pz      :     0.009443  p :     0.022359
      px      :     0.009048
      py      :     0.003869

 28 H s       :     0.978393  s :     0.978393
      pz      :     0.008086  p :     0.023072
      px      :     0.010247
      py      :     0.004740

 29 H s       :     0.980022  s :     0.980022
      pz      :     0.010271  p :     0.022366
      px      :     0.004609
      py      :     0.007487

 30 H s       :     0.976847  s :     0.976847
      pz      :     0.004351  p :     0.022308
      px      :     0.007190
      py      :     0.010767

 31 H s       :     0.975049  s :     0.975049
      pz      :     0.008059  p :     0.022343
      px      :     0.009660
      py      :     0.004624

 32 H s       :     0.965462  s :     0.965462
      pz      :     0.010772  p :     0.022635
      px      :     0.004310
      py      :     0.007553

 33 H s       :     0.967055  s :     0.967055
      pz      :     0.005904  p :     0.023182
      px      :     0.010600
      py      :     0.006678

 34 H s       :     0.973945  s :     0.973945
      pz      :     0.012144  p :     0.022319
      px      :     0.003791
      py      :     0.006383

 35 H s       :     0.970745  s :     0.970745
      pz      :     0.006024  p :     0.022272
      px      :     0.011703
      py      :     0.004546

 36 H s       :     0.967606  s :     0.967606
      pz      :     0.006201  p :     0.022485
      px      :     0.010262
      py      :     0.006023

 37 H s       :     0.750076  s :     0.750076
      pz      :     0.033273  p :     0.065093
      px      :     0.014293
      py      :     0.017527



                     *******************************
                     * LOEWDIN POPULATION ANALYSIS *
                     *******************************

----------------------
LOEWDIN ATOMIC CHARGES
----------------------
   0 C :   -0.017540
   1 C :   -0.024416
   2 C :   -0.007165
   3 C :   -0.182229
   4 C :   -0.031767
   5 C :   -0.028230
   6 P :    0.884788
   7 O :   -0.495890
   8 C :   -0.179952
   9 C :   -0.028167
  10 C :   -0.027332
  11 C :   -0.018690
  12 C :   -0.025285
  13 C :   -0.010193
  14 C :   -0.169050
  15 C :   -0.023609
  16 C :   -0.018799
  17 C :   -0.013647
  18 C :    0.004836
  19 C :   -0.045116
  20 C :    0.046247
  21 O :   -0.156060
  22 O :   -0.005135
  23 H :    0.032080
  24 H :    0.033956
  25 H :    0.036570
  26 H :    0.030470
  27 H :    0.031834
  28 H :    0.029093
  29 H :    0.031825
  30 H :    0.031906
  31 H :    0.033555
  32 H :    0.035656
  33 H :    0.033781
  34 H :    0.034843
  35 H :    0.035759
  36 H :    0.041107
  37 H :    0.099967

-------------------------------
LOEWDIN REDUCED ORBITAL CHARGES
-------------------------------
  0 C s       :     2.864931  s :     2.864931
      pz      :     1.009640  p :     3.063196
      px      :     1.002801
      py      :     1.050755
      dz2     :     0.014666  d :     0.089413
      dxz     :     0.012832
      dyz     :     0.021763
      dx2y2   :     0.018790
      dxy     :     0.021362

  1 C s       :     2.863638  s :     2.863638
      pz      :     1.014493  p :     3.071769
      px      :     1.013607
      py      :     1.043668
      dz2     :     0.014717  d :     0.089010
      dxz     :     0.014888
      dyz     :     0.019902
      dx2y2   :     0.021309
      dxy     :     0.018194

  2 C s       :     2.868037  s :     2.868037
      pz      :     0.996849  p :     3.050059
      px      :     0.995907
      py      :     1.057303
      dz2     :     0.011509  d :     0.089069
      dxz     :     0.010911
      dyz     :     0.021614
      dx2y2   :     0.023729
      dxy     :     0.021307

  3 C s       :     2.915923  s :     2.915923
      pz      :     1.047689  p :     3.178059
      px      :     1.046740
      py      :     1.083630
      dz2     :     0.014906  d :     0.088247
      dxz     :     0.013936
      dyz     :     0.020422
      dx2y2   :     0.018538
      dxy     :     0.020445

  4 C s       :     2.867719  s :     2.867719
      pz      :     1.009192  p :     3.073880
      px      :     1.013754
      py      :     1.050933
      dz2     :     0.014894  d :     0.090169
      dxz     :     0.014796
      dyz     :     0.020296
      dx2y2   :     0.021459
      dxy     :     0.018723

  5 C s       :     2.864025  s :     2.864025
      pz      :     1.005291  p :     3.075331
      px      :     1.004063
      py      :     1.065977
      dz2     :     0.010920  d :     0.088873
      dxz     :     0.011195
      dyz     :     0.021457
      dx2y2   :     0.023732
      dxy     :     0.021568

  6 P s       :     4.934536  s :     4.934536
      pz      :     2.781996  p :     8.508551
      px      :     2.860092
      py      :     2.866463
      dz2     :     0.137429  d :     0.672124
      dxz     :     0.193783
      dyz     :     0.162203
      dx2y2   :     0.071049
      dxy     :     0.107660

  7 O s       :     3.666963  s :     3.666963
      pz      :     1.469070  p :     4.810749
      px      :     1.666424
      py      :     1.675256
      dz2     :     0.009803  d :     0.018178
      dxz     :     0.003864
      dyz     :     0.004117
      dx2y2   :     0.000195
      dxy     :     0.000199

  8 C s       :     2.914589  s :     2.914589
      pz      :     1.063326  p :     3.176610
      px      :     1.052267
      py      :     1.061017
      dz2     :     0.020691  d :     0.088752
      dxz     :     0.019073
      dyz     :     0.018933
      dx2y2   :     0.013214
      dxy     :     0.016841

  9 C s       :     2.866876  s :     2.866876
      pz      :     1.023209  p :     3.071139
      px      :     1.011799
      py      :     1.036131
      dz2     :     0.015958  d :     0.090152
      dxz     :     0.017965
      dyz     :     0.021618
      dx2y2   :     0.017713
      dxy     :     0.016898

 10 C s       :     2.863848  s :     2.863848
      pz      :     1.020506  p :     3.074650
      px      :     1.026002
      py      :     1.028142
[...]

 16 C s       :     2.873505  s :     2.873505
      pz      :     1.019573  p :     3.058204
      px      :     1.059721
      py      :     0.978910
      dz2     :     0.016638  d :     0.086259
      dxz     :     0.024273
      dyz     :     0.009971
      dx2y2   :     0.018358
      dxy     :     0.017018

 17 C s       :     2.872505  s :     2.872505
      pz      :     1.035482  p :     3.059756
      px      :     1.040773
      py      :     0.983502
      dz2     :     0.018981  d :     0.086163
      dxz     :     0.025481
      dyz     :     0.013827
      dx2y2   :     0.015437
      dxy     :     0.012438

 18 C s       :     2.872158  s :     2.872158
      pz      :     1.028327  p :     3.038162
      px      :     1.038835
      py      :     0.971001
      dz2     :     0.019012  d :     0.085712
      dxz     :     0.026908
      dyz     :     0.012993
      dx2y2   :     0.012943
      dxy     :     0.013856

 19 C s       :     2.873620  s :     2.873620
      pz      :     1.014765  p :     3.079684
      px      :     1.068774
      py      :     0.996145
      dz2     :     0.021234  d :     0.100891
      dxz     :     0.025449
      dyz     :     0.015084
      dx2y2   :     0.020850
      dxy     :     0.018275

 20 C s       :     2.852089  s :     2.852089
      pz      :     0.991967  p :     2.803750
      px      :     0.930984
      py      :     0.880799
      dz2     :     0.070031  d :     0.285101
      dxz     :     0.057578
      dyz     :     0.033268
      dx2y2   :     0.058408
      dxy     :     0.065815

 21 O s       :     3.555309  s :     3.555309
      pz      :     1.530814  p :     4.569263
      px      :     1.516878
      py      :     1.521571
      dz2     :     0.005012  d :     0.030703
      dxz     :     0.012994
      dyz     :     0.002782
      dx2y2   :     0.006048
      dxy     :     0.003867

 22 O s       :     3.445395  s :     3.445395
      pz      :     1.438638  p :     4.541568
      px      :     1.536196
      py      :     1.566734
      dz2     :     0.008862  d :     0.026271
      dxz     :     0.002624
      dyz     :     0.003255
      dx2y2   :     0.004528
      dxy     :     0.007002

 23 H s       :     0.898965  s :     0.898965
      pz      :     0.016860  p :     0.065865
      px      :     0.019852
      py      :     0.029152

 24 H s       :     0.897643  s :     0.897643
      pz      :     0.016933  p :     0.065960
      px      :     0.012739
      py      :     0.036288

 25 H s       :     0.891104  s :     0.891104
      pz      :     0.035507  p :     0.069626
      px      :     0.022691
      py      :     0.011429

 26 H s       :     0.898003  s :     0.898003
      pz      :     0.016592  p :     0.068759
      px      :     0.013168
      py      :     0.038998

 27 H s       :     0.899164  s :     0.899164
      pz      :     0.031772  p :     0.066014
      px      :     0.022718
      py      :     0.011525

 28 H s       :     0.899681  s :     0.899681
      pz      :     0.025460  p :     0.068041
      px      :     0.027925
      py      :     0.014656

 29 H s       :     0.899379  s :     0.899379
      pz      :     0.032945  p :     0.065989
      px      :     0.012665
      py      :     0.020379

 30 H s       :     0.899349  s :     0.899349
      pz      :     0.012229  p :     0.065888
      px      :     0.021777
      py      :     0.031882

 31 H s       :     0.898513  s :     0.898513
      pz      :     0.025682  p :     0.065916
      px      :     0.025904
      py      :     0.014330

 32 H s       :     0.893896  s :     0.893896
      pz      :     0.034886  p :     0.068755
      px      :     0.012196
      py      :     0.021673

 33 H s       :     0.892138  s :     0.892138
      pz      :     0.016046  p :     0.070544
      px      :     0.033454
      py      :     0.021044

 34 H s       :     0.896459  s :     0.896459
      pz      :     0.034749  p :     0.066080
      px      :     0.011142
      py      :     0.020188

 35 H s       :     0.895584  s :     0.895584
      pz      :     0.018189  p :     0.066013
      px      :     0.035143
      py      :     0.012681

 36 H s       :     0.888779  s :     0.888779
      pz      :     0.018423  p :     0.068314
      px      :     0.031084
      py      :     0.018807

 37 H s       :     0.727784  s :     0.727784
      pz      :     0.089078  p :     0.168229
      px      :     0.034136
      py      :     0.045015



                      *****************************
                      * MAYER POPULATION ANALYSIS *
                      *****************************

  NA   - Mulliken gross atomic population
  ZA   - Total nuclear charge
  QA   - Mulliken gross atomic charge
  VA   - Mayer's total valence
  BVA  - Mayer's bonded valence
  FA   - Mayer's free valence

  ATOM       NA         ZA         QA         VA         BVA        FA
  0 C      5.9913     6.0000     0.0087     3.8245     3.8245    -0.0000
  1 C      5.9984     6.0000     0.0016     3.8316     3.8316    -0.0000
  2 C      5.9848     6.0000     0.0152     3.8818     3.8818    -0.0000
  3 C      6.1521     6.0000    -0.1521     3.7900     3.7900    -0.0000
  4 C      6.0029     6.0000    -0.0029     3.8588     3.8588    -0.0000
  5 C      5.9981     6.0000     0.0019     3.8517     3.8517    -0.0000
  6 P     14.3522    15.0000     0.6478     4.6809     4.6809    -0.0000
  7 O      8.4612     8.0000    -0.4612     2.1394     2.1394    -0.0000
  8 C      6.1050     6.0000    -0.1050     3.8070     3.8070    -0.0000
  9 C      6.0057     6.0000    -0.0057     3.8776     3.8776    -0.0000
 10 C      6.0002     6.0000    -0.0002     3.8532     3.8532    -0.0000
 11 C      5.9917     6.0000     0.0083     3.8264     3.8264    -0.0000
 12 C      6.0005     6.0000    -0.0005     3.8326     3.8326    -0.0000
 13 C      5.9953     6.0000     0.0047     3.8820     3.8820    -0.0000
 14 C      6.1144     6.0000    -0.1144     3.8326     3.8326    -0.0000
 15 C      6.0221     6.0000    -0.0221     3.8945     3.8945    -0.0000
 16 C      5.9795     6.0000     0.0205     3.8206     3.8206    -0.0000
 17 C      5.9886     6.0000     0.0114     3.7961     3.7961    -0.0000
 18 C      6.0042     6.0000    -0.0042     3.8947     3.8947    -0.0000
 19 C      5.9988     6.0000     0.0012     3.8407     3.8407    -0.0000
 20 C      5.8938     6.0000     0.1062     4.3452     4.3452    -0.0000
 21 O      8.1789     8.0000    -0.1789     2.3284     2.3284    -0.0000
 22 O      8.1482     8.0000    -0.1482     2.2960     2.2960    -0.0000
 23 H      0.9897     1.0000     0.0103     0.9789     0.9789    -0.0000
 24 H      0.9879     1.0000     0.0121     0.9799     0.9799    -0.0000
 25 H      0.9754     1.0000     0.0246     1.0143     1.0143    -0.0000
 26 H      0.9936     1.0000     0.0064     1.0005     1.0005    -0.0000
 27 H      0.9935     1.0000     0.0065     0.9791     0.9791    -0.0000
 28 H      0.9910     1.0000     0.0090     0.9928     0.9928     0.0000
 29 H      0.9939     1.0000     0.0061     0.9792     0.9792    -0.0000
 30 H      0.9909     1.0000     0.0091     0.9789     0.9789    -0.0000
 31 H      0.9897     1.0000     0.0103     0.9798     0.9798    -0.0000
 32 H      0.9823     1.0000     0.0177     1.0094     1.0094    -0.0000
 33 H      0.9796     1.0000     0.0204     0.9974     0.9974    -0.0000
 34 H      0.9890     1.0000     0.0110     0.9793     0.9793    -0.0000
 35 H      0.9853     1.0000     0.0147     0.9797     0.9797    -0.0000
 36 H      0.9825     1.0000     0.0175     1.0010     1.0010     0.0000
 37 H      0.8076     1.0000     0.1924     1.0301     1.0301    -0.0000

  Mayer bond orders larger than 0.100000
B(  0-C ,  1-C ) :   1.3772 B(  0-C ,  5-C ) :   1.3787 B(  0-C , 23-H ) :   0.9758 
B(  1-C ,  2-C ) :   1.3747 B(  1-C , 24-H ) :   0.9783 B(  2-C ,  3-C ) :   1.3812 
B(  2-C , 25-H ) :   0.9710 B(  3-C ,  4-C ) :   1.3521 B(  3-C ,  6-P ) :   0.8813 
B(  4-C ,  5-C ) :   1.3871 B(  4-C , 26-H ) :   0.9685 B(  5-C , 27-H ) :   0.9757 
B(  6-P ,  7-O ) :   1.8563 B(  6-P ,  8-C ) :   0.8950 B(  6-P , 14-C ) :   0.8628 
B(  8-C ,  9-C ) :   1.3648 B(  8-C , 13-C ) :   1.3744 B(  9-C , 10-C ) :   1.3836 
B(  9-C , 28-H ) :   0.9670 B( 10-C , 11-C ) :   1.3813 B( 10-C , 29-H ) :   0.9758 
B( 11-C , 12-C ) :   1.3772 B( 11-C , 30-H ) :   0.9760 B( 12-C , 13-C ) :   1.3753 
B( 12-C , 31-H ) :   0.9778 B( 13-C , 32-H ) :   0.9736 B( 14-C , 15-C ) :   1.3807 
B( 14-C , 19-C ) :   1.3814 B( 15-C , 16-C ) :   1.3774 B( 15-C , 33-H ) :   0.9593 
B( 16-C , 17-C ) :   1.3669 B( 16-C , 34-H ) :   0.9757 B( 17-C , 18-C ) :   1.3534 
B( 17-C , 35-H ) :   0.9770 B( 18-C , 19-C ) :   1.4159 B( 18-C , 36-H ) :   0.9743 
B( 19-C , 20-C ) :   0.9070 B( 20-C , 21-O ) :   2.1126 B( 20-C , 22-O ) :   1.2259 
B( 22-O , 37-H ) :   0.9334 

-------
TIMINGS
-------

Total SCF time: 0 days 0 hours 0 min 8 sec 

Total time                  ....       8.829 sec
Sum of individual times     ....       8.718 sec  ( 98.7%)

SCF preparation             ....       0.129 sec  (  1.5%)
Fock matrix formation       ....       7.868 sec  ( 89.1%)
  Startup                   ....       0.038 sec  (  0.5% of F)
  Split-RI-J                ....       2.822 sec  ( 35.9% of F)
  XC integration            ....       4.867 sec  ( 61.9% of F)
    Basis function eval.    ....       1.543 sec  ( 31.7% of XC)
    Density eval.           ....       1.486 sec  ( 30.5% of XC)
    XC-Functional eval.     ....       0.141 sec  (  2.9% of XC)
    XC-Potential eval.      ....       0.901 sec  ( 18.5% of XC)
Diagonalization             ....       0.000 sec  (  0.0%)
Density matrix formation    ....       0.093 sec  (  1.1%)
Total Energy calculation    ....       0.033 sec  (  0.4%)
Population analysis         ....       0.104 sec  (  1.2%)
Orbital Transformation      ....       0.055 sec  (  0.6%)
Orbital Orthonormalization  ....       0.000 sec  (  0.0%)
DIIS solution               ....       0.060 sec  (  0.7%)
SOSCF solution              ....       0.376 sec  (  4.3%)
Finished LeanSCF after   8.9 sec

Maximum memory used throughout the entire LEANSCF-calculation: 43.3 MB


-------------------------------------------------------------------------------
                          DFT DISPERSION CORRECTION                            
                                                                               
                              DFTD3 V3.1  Rev 1                                
                          USING Becke-Johnson damping                          
-------------------------------------------------------------------------------
The BP86 functional is recognized
Active option DFTDOPT                   ...         4   

molecular C6(AA) [au] = 20718.031261 


            DFT-D V3
 parameters
 s6 scaling factor         :     1.0000 
 a1 scaling factor         :     0.3946 
 s8 scaling factor         :     3.2822 
 a2 scaling factor         :     4.8516 
 ad hoc parameters k1-k3   :    16.0000     1.3333    -4.0000 

 Edisp/kcal,au: -60.531361969243  -0.096462855167 
 E6   /kcal   : -21.906737095 
 E8   /kcal   : -38.624624875 
 % E8         :  63.809277733 

-------------------------   ----------------
Dispersion correction           -0.096462855
-------------------------   ----------------


-------------------------   --------------------
FINAL SINGLE POINT ENERGY     -1299.461240787657
-------------------------   --------------------

                                *** OPTIMIZATION RUN DONE ***



           ************************************************************
           *        Program running with 6 parallel MPI-processes     *
           *              working on a common directory               *
           ************************************************************

------------------------------------------------------------------------------
                              ORCA PROPERTY CALCULATIONS
------------------------------------------------------------------------------

GBWName                                 ... data/geom_opt_PO_BP86/87021/87021.gbw
Number of atoms                         ...     38
Number of basis functions               ...    401
Max core memory                         ...   1024 MB

Electric properties:
Dipole moment                           ... YES
Quadrupole moment                       ...  NO
Static polarizability (Dipole/Dipole)   ...  NO
Static polarizability (Dipole/Quad.)    ...  NO
Static polarizability (Quad./Quad.)     ...  NO
Static polarizability (Velocity)        ...  NO

Atomic electric properties:
Dipole moment                           ...  NO
Quadrupole moment                       ...  NO
Static polarizability                   ...  NO

Choice of electric origin               ... Center of mass
Position of electric origin             ...     0.408189     0.100640    -0.594641

General magnetic properties:
Magnetizability                         ...  NO

EPR properties:
g-Tensor (aka g-matrix)                 ...  NO
Zero-Field splitting spin-orbit         ...  NO
Zero-field splitting spin-spin          ...  NO
Hyperfine couplings                     ...  NO (   0 nuclei)
Quadrupole couplings                    ...  NO (   0 nuclei)
Contact density                         ...  NO (   0 nuclei)

NMR properties:
Chemical shifts                         ...  NO (   0 nuclei)
Spin-rotation constants                 ...  NO (   0 nuclei)
Spin-spin couplings                     ...  NO (   0 nuclei,    0 pairs)

Choice of magnetic origin               ... GIAO
Position of magnetic origin             ...     0.000000     0.000000     0.000000

Properties with geometric perturbations:
SCF Hessian                             ...  NO
IR spectrum                             ...  NO
VCD spectrum                            ...  NO
X-ray spectroscopy properties:
SCF XES/XAS/RIXS spectra                ...  NO


-------------
DIPOLE MOMENT
-------------

Method             : SCF
Type of density    : Electron Density
Multiplicity       :   1
Irrep              :   0
Energy             : -1299.3647779324901421 Eh
Relativity type    : 
Basis              : AO
                                X                 Y                 Z
Electronic contribution:      6.165481134       1.594364853      -7.891434964
Nuclear contribution   :     -6.914467284      -1.379551383       9.634443195
                        -----------------------------------------
Total Dipole Moment    :     -0.748986150       0.214813470       1.743008232
                        -----------------------------------------
Magnitude (a.u.)       :      1.909241414
Magnitude (Debye)      :      4.852906007



--------------------
Rotational spectrum 
--------------------
 
Rotational constants in cm-1:             0.009512             0.007951             0.005693 
Rotational constants in MHz :           285.168150           238.357034           170.674646 

Dipole components along the rotational axes: 
x,y,z [a.u.] :     0.894164    -0.159346     1.679370 
x,y,z [Debye]:     2.272784    -0.405026     4.268618 

 

Dipole moment calculation done in   0.0 sec 

Maximum memory used throughout the entire PROP-calculation: 22.3 MB

--------------------------------
SUGGESTED CITATIONS FOR THIS RUN
--------------------------------

Below you find a list of papers that are relevant to this ORCA run
We neither can nor want to force you to cite these papers, but we appreciate if you do
You receive ORCA, which is the product of decades of hard work by many enthusiastic individuals, for free
The only thing we kindly ask in return is that you cite our papers,
We deeply appreciate it, if you show your appreciation for ORCA by not just citing the generic ORCA reference.

Please note that relegating all ORCA citations to the supporting information does *not* help us.
SI sections are not indexed - citations you put there will not count into any citation statistics
But we need these citations in order to attract the funding resources that allow us to do what we are doing

Therefore, if you are a happy ORCA user, please consider citing a few of the papers listed below in the main body of your paper

In addition to the list printed below, the program has created the file data/geom_opt_PO_BP86/87021/87021.bibtex that contains the list in bibtex format
You can import this file easily into all common literature databanks and citation aid programs


List of essential papers. We consider these as the minimum necessary citations

  1. Neese,F.
     Software update: the ORCA program system, version 5.0
     WIRES Comput. Molec. Sci., 2022 12(1)e1606
     doi.org/10.1002/wcms.1606

List of papers to cite with high priority. The work reported in these papers was absolutely
necessary for this run to complete.
Our perspective: the developers of density functionals and basis sets usually get cited in chemistry papers
Good! But without the algorithms to do something with them, the functionals or basis sets would not do anything.
Hence, in our opinion, the algorithm design and method developments papers are equally worthy of getting cited

  1. Neese,F.
     An improvement of the resolution of the identity approximation for the formation of the Coulomb matrix
     J. Comp. Chem., 2003 24(14)1740-1747
     doi.org/10.1002/jcc.10318
  2. Neese,F.
     The SHARK Integral Generation and Digestion System
     J. Comp. Chem., 2022  1-16
     doi.org/10.1002/jcc.26942
  3. Grimme,S.; Antony,J.; Ehrlich,S.; Krieg,H.
     A consistent and accurate ab initio parametrization of density functional dispersion correction (DFT-D) for the 94 elements H-Pu
     J. Chem. Phys., 2010 132 154104-XXXX
     doi.org/10.1063/1.3382344
  4. Grimme,S.; Ehrlich,S.; Goerigk,L.
     Effect of the damping function in dispersion corrected density functional theory
     J. Comput. Chem., 2011 32(7)1456-1465
     doi.org/10.1002/jcc.21759

List of suggested additional citations. These are papers that are important in the 'surrounding' of 
of this run, or papers that preceded the highly important papers. If you like your results we are grateful for a citation.

  1. Neese,F.
     The ORCA program system
     WIRES Comput. Molec. Sci., 2012 2(1)73-78
     doi.org/10.1002/wcms.81
  2. Neese,F.
     Software update: the ORCA program system, version 4.0
     WIRES Comput. Molec. Sci., 2018 8(1)1-6
     doi.org/10.1002/wcms.1327
  3. Neese,F.; Wennmohs,F.; Becker,U.; Riplinger,C.
     The ORCA quantum chemistry program package
     J. Chem. Phys., 2020 152 Art. No. L224108
     doi.org/10.1063/5.0004608

List of optional additional citations

  1. Neese,F.
     Approximate second-order SCF convergence for spin unrestricted wavefunctions
     Chem. Phys. Lett., 2000 325(1-3)93-98
     doi.org/10.1016/s0009-2614(00)00662-x

Timings for individual modules:

Sum of individual times          ...      226.315 sec (=   3.772 min)
Startup calculation              ...       17.129 sec (=   0.285 min)   7.6 %
SCF iterations                   ...      143.548 sec (=   2.392 min)  63.4 %
Property calculations            ...        0.201 sec (=   0.003 min)   0.1 %
SCF Gradient evaluation          ...       65.243 sec (=   1.087 min)  28.8 %
Geometry relaxation              ...        0.194 sec (=   0.003 min)   0.1 %
                             ****ORCA TERMINATED NORMALLY****
TOTAL RUN TIME: 0 days 0 hours 3 minutes 48 seconds 441 msec
