
                                 *****************
                                 * O   R   C   A *
                                 *****************

                                            #,                                       
                                            ###                                      
                                            ####                                     
                                            #####                                    
                                            ######                                   
                                           ########,                                 
                                     ,,################,,,,,                         
                               ,,#################################,,                 
                          ,,##########################################,,             
                       ,#########################################, ''#####,          
                    ,#############################################,,   '####,        
                  ,##################################################,,,,####,       
                ,###########''''           ''''###############################       
              ,#####''   ,,,,##########,,,,          '''####'''          '####       
            ,##' ,,,,###########################,,,                        '##       
           ' ,,###''''                  '''############,,,                           
         ,,##''                                '''############,,,,        ,,,,,,###''
      ,#''                                            '''#######################'''  
     '                                                          ''''####''''         
             ,#######,   #######,   ,#######,      ##                                
            ,#'     '#,  ##    ##  ,#'     '#,    #''#        ,####,   ,####,        
            ##       ##  ##   ,#'  ##            #'  '#       #'       #'  '#        
            ##       ##  #######   ##           ,######,      #####,   #    #        
            '#,     ,#'  ##    ##  '#,     ,#' ,#      #,     #,   #   #,  ,#        
             '#######'   ##     ##  '#######'  #'      '#     '####' # '####'        



                #########################################################
                #                        -***-                          #
                #          Department of theory and spectroscopy        #
                #                                                       #
                #                      Frank Neese                      #
                #                                                       #
                #     Directorship, Architecture, Infrastructure        #
                #                    SHARK, DRIVERS                     #
                #        Core code/Algorithms in most modules           #
                #                                                       #
                #        Max Planck Institute fuer Kohlenforschung      #
                #                Kaiser Wilhelm Platz 1                 #
                #                 D-45470 Muelheim/Ruhr                 #
                #                      Germany                          #
                #                                                       #
                #                  All rights reserved                  #
                #                        -***-                          #
                #########################################################


                         Program Version 6.0.0  -   RELEASE   -


 With contributions from (in alphabetic order):
   Daniel Aravena         : Magnetic Suceptibility
   Michael Atanasov       : Ab Initio Ligand Field Theory (pilot matlab implementation)
   Alexander A. Auer      : GIAO ZORA, VPT2 properties, NMR spectrum
   Ute Becker             : All parallelization in ORCA, NUMFREQ, NUMCALC
   Giovanni Bistoni       : ED, misc. LED, open-shell LED, HFLD
   Martin Brehm           : Molecular dynamics
   Dmytro Bykov           : pre 5.0 version of the SCF Hessian
   Marcos Casanova-Páez   : Triplet and SCS-CIS(D). UHF-(DLPNO)-IP/EA/STEOM-CCSD. UHF-CVS-IP/STEOM-CCSD
   Vijay G. Chilkuri      : MRCI spin determinant printing, contributions to CSF-ICE
   Pauline Colinet        : FMM embedding
   Dipayan Datta          : RHF DLPNO-CCSD density
   Achintya Kumar Dutta   : EOM-CC, STEOM-CC
   Nicolas Foglia         : Exact transition moments, OPA infrastructure, MCD improvements
   Dmitry Ganyushin       : Spin-Orbit,Spin-Spin,Magnetic field MRCI
   Miquel Garcia          : C-PCM and meta-GGA Hessian, CCSD/C-PCM, Gaussian charge scheme
   Tiago L. C. Gouveia    : GS-ROHF, GS-ROCIS
   Yang Guo               : DLPNO-NEVPT2, F12-NEVPT2, CIM, IAO-localization
   Andreas Hansen         : Spin unrestricted coupled pair/coupled cluster methods
   Ingolf Harden          : AUTO-CI MPn and infrastructure 
   Benjamin Helmich-Paris : MC-RPA, TRAH-(SCF,CASSCF), AVAS, COSX integrals, SCF dyn. polar.
   Lee Huntington         : MR-EOM, pCC
   Robert Izsak           : Overlap fitted RIJCOSX, COSX-SCS-MP3, EOM
   Riya Kayal             : Wick's Theorem for AUTO-CI, AUTO-CI UHF-CCSDT
   Emily Kempfer          : AUTO-CI, RHF CISDT and CCSDT
   Christian Kollmar      : KDIIS, OOCD, Brueckner-CCSD(T), CCSD density, CASPT2, CASPT2-K, improved NEVPT2
   Axel Koslowski         : Symmetry handling
   Simone Kossmann        : Meta GGA functionals, TD-DFT gradient, OOMP2, (MP2 Hessian; deprecated post 5.0)
   Lucas Lang             : DCDCAS
   Marvin Lechner         : AUTO-CI (C++ implementation), FIC-MRCC
   Spencer Leger          : CASSCF response
   Dagmar Lenk            : GEPOL surface, SMD, ORCA-2-JSON
   Dimitrios Liakos       : Extrapolation schemes; Compound Job, initial MDCI parallelization
   Dimitrios Manganas     : Further ROCIS development; embedding schemes. LFT, Crystal Embedding
   Dimitrios Pantazis     : SARC Basis sets
   Anastasios Papadopoulos: AUTO-CI, single reference methods and gradients
   Taras Petrenko         : pre 6.0 DFT Hessian and TD-DFT gradient, (ASA, deprecated), ECA, 1-Electron XAS/XES, NRVS
   Peter Pinski           : DLPNO-MP2, DLPNO-MP2 Gradient
   Christoph Reimann      : Effective Core Potentials
   Marius Retegan         : Local ZFS, SOC
   Christoph Riplinger    : Optimizer, TS searches, QM/MM, DLPNO-CCSD(T), (RO)-DLPNO pert. Triples
   Michael Roemelt        : Original ROCIS implementation
   Masaaki Saitow         : Open-shell DLPNO-CCSD energy and density
   Barbara Sandhoefer     : DKH picture change effects
   Kantharuban Sivalingam : CASSCF convergence/infrastructure, NEVPT2 and variants, FIC-MRCI
   Bernardo de Souza      : ESD, SOC TD-DFT
   Georgi Stoychev        : AutoAux, RI-MP2 NMR, DLPNO-MP2 response, X2C
   Van Anh Tran           : RI-MP2 g-tensors
   Willem Van den Heuvel  : Paramagnetic NMR
   Zikuan Wang            : NOTCH, Electric field optimization 
   Frank Wennmohs         : Technical directorship and infrastructure
   Hang Xu                : AUTO-CI-Response properties 


 We gratefully acknowledge several colleagues who have allowed us to
 interface, adapt or use parts of their codes:
   Stefan Grimme, W. Hujo, H. Kruse, P. Pracht,  : VdW corrections, initial TS optimization,
                  C. Bannwarth, S. Ehlert,         DFT functionals, gCP, sTDA/sTD-DF
                  L. Wittmann, M. Mueller
   Ed Valeev, F. Pavosevic, A. Kumar             : LibInt (2-el integral package), F12 methods
   Garnet Chan, S. Sharma, J. Yang, R. Olivares  : DMRG
   Ulf Ekstrom                                   : XCFun DFT Library
   Mihaly Kallay                                 : mrcc  (arbitrary order and MRCC methods)
   Frank Weinhold                                : gennbo (NPA and NBO analysis)
   Simon Mueller                                 : openCOSMO-RS
   Christopher J. Cramer and Donald G. Truhlar   : smd solvation model
   Lars Goerigk                                  : TD-DFT with DH, B97 family of functionals
   V. Asgeirsson, H. Jonsson                     : NEB implementation
   FAccTs GmbH                                   : IRC, NEB, NEB-TS, DLPNO-Multilevel, CI-OPT
                                                   MM, QMMM, 2- and 3-layer-ONIOM, Crystal-QMMM,
                                                   LR-CPCM, SF, NACMEs, symmetry and pop. for TD-DFT,
                                                   nearIR, NL-DFT gradient (VV10), updates on ESD,
                                                   ML-optimized integration grids, MBIS, APM,
                                                   GOAT, DOCKER, SOLVATOR, interface openCOSMO-RS
   S Lehtola, MJT Oliveira, MAL Marques          : LibXC Library
   Liviu Ungur et al                             : ANISO software


 Your calculation uses the libint2 library for the computation of 2-el integrals
 For citations please refer to: http://libint.valeyev.net

 Your ORCA version has been built with support for libXC version: 6.2.2
 For citations please refer to: https://libxc.gitlab.io

 This ORCA versions uses:
   CBLAS   interface :  Fast vector & matrix operations
   LAPACKE interface :  Fast linear algebra routines
   Shared memory     :  Shared parallel matrices


Your calculation utilizes the atom-pairwise dispersion correction
with the Becke-Johnson damping scheme (D3BJ)


Warning: RI is on but no J-basis has been assigned. Assigning Def2/J (nothing to worry about!)
================================================================================

----- Orbital basis set information -----
Your calculation utilizes the basis: def2-SVP
   F. Weigend and R. Ahlrichs, Phys. Chem. Chem. Phys. 7, 3297 (2005).

----- AuxJ basis set information -----
Your calculation utilizes the auxiliary basis: def2/J
   F. Weigend, Phys. Chem. Chem. Phys. 8, 1057 (2006).

================================================================================
                                        WARNINGS
                       Please study these warnings very carefully!
================================================================================


WARNING: Geometry Optimization
  ===> : Switching off AutoStart
         For restart on a previous wavefunction, please use MOREAD

================================================================================
                                       INPUT FILE
================================================================================
NAME = data/geom_opt_P_BP86/69082/69082.inp
|  1> ! RI BP86 def2-SVP D3BJ TIGHTSCF Opt
|  2> %pal
|  3> nprocs 6
|  4> end
|  5> 
|  6> * xyz 0 1
|  7> C     -1.212467    3.167952   -0.099322
|  8> C      0.056621    2.332034   -0.183779
|  9> P      0.077361    0.953547    1.045446
| 10> C     -1.262265   -0.113608    0.411749
| 11> C     -2.346613   -0.403823    1.253162
| 12> C     -3.399415   -1.209064    0.810894
| 13> C     -3.381772   -1.734593   -0.478660
| 14> C     -2.312263   -1.455898   -1.326041
| 15> C     -1.259848   -0.649906   -0.884262
| 16> C      1.570013   -0.007023    0.601277
| 17> C      1.637727   -1.375836    0.915104
| 18> C      2.770217   -2.135443    0.607562
| 19> C      3.864815   -1.535896   -0.006455
| 20> C      3.828741   -0.176979   -0.304210
| 21> C      2.693974    0.581605    0.003611
| 22> H     -1.354739    3.582755    0.904640
| 23> H     -1.155113    4.005878   -0.802064
| 24> H     -2.103230    2.584351   -0.353970
| 25> H      0.905355    2.994344    0.018455
| 26> H      0.176041    1.955421   -1.205167
| 27> H     -2.382273   -0.004301    2.264710
| 28> H     -4.232031   -1.424789    1.475234
| 29> H     -4.199903   -2.361847   -0.822440
| 30> H     -2.293404   -1.867074   -2.331897
| 31> H     -0.433519   -0.453698   -1.563800
| 32> H      0.801985   -1.871820    1.405854
| 33> H      2.794208   -3.193699    0.853638
| 34> H      4.747131   -2.123988   -0.243683
| 35> H      4.687240    0.299037   -0.770999
| 36> H      2.717427    1.642359   -0.227573
| 37> **                         ****END OF INPUT****
================================================================================

                       *****************************
                       * Geometry Optimization Run *
                       *****************************

Geometry optimization settings:
Update method            Update   .... BFGS
Choice of coordinates    CoordSys .... (2022) Redundant Internals
Initial Hessian          InHess   .... Almloef's Model
Max. no of cycles        MaxIter  .... 90

Convergence Tolerances:
Energy Change            TolE     ....  5.0000e-06 Eh
Max. Gradient            TolMAXG  ....  3.0000e-04 Eh/bohr
RMS Gradient             TolRMSG  ....  1.0000e-04 Eh/bohr
Max. Displacement        TolMAXD  ....  4.0000e-03 bohr
RMS Displacement         TolRMSD  ....  2.0000e-03 bohr
Strict Convergence                .... False

------------------------------------------------------------------------------
                        ORCA OPTIMIZATION COORDINATE SETUP
------------------------------------------------------------------------------

The optimization will be done in redundant internal coordinates (2022)
Making redundant internal coordinates   ...  (2022 redundants) done
Evaluating the initial hessian          ...  (Almloef) done
Evaluating the coordinates              ...  done
Calculating the B-matrix                .... done
Calculating the G-matrix                .... done
Diagonalizing the G-matrix              .... done
Small eigenvalue found = 6.277e-03
Small eigenvalue found = 1.148e-02
Small eigenvalue found = 1.759e-02
The first mode is                       ....   65
The number of degrees of freedom        ....   84

    -----------------------------------------------------------------
                    Redundant Internal Coordinates


    -----------------------------------------------------------------
         Definition                    Initial Value    Approx d2E/dq
    -----------------------------------------------------------------
      1. B(C   1,C   0)                  1.5220         0.384720   
      2. B(P   2,C   1)                  1.8471         0.391754   
      3. B(C   3,P   2)                  1.8262         0.422971   
      4. B(C   4,C   3)                  1.4029         0.595970   
      5. B(C   5,C   4)                  1.3973         0.608297   
      6. B(C   6,C   5)                  1.3926         0.618770   
      7. B(C   7,C   6)                  1.3927         0.618661   
      8. B(C   8,C   7)                  1.3973         0.608326   
      9. B(C   8,C   3)                  1.4026         0.596551   
     10. B(C   9,P   2)                  1.8298         0.417481   
     11. B(C  10,C   9)                  1.4060         0.589219   
     12. B(C  11,C  10)                  1.3979         0.606929   
     13. B(C  12,C  11)                  1.3909         0.622721   
     14. B(C  13,C  12)                  1.3916         0.621082   
     15. B(C  14,C   9)                  1.4025         0.596778   
     16. B(C  14,C  13)                  1.3992         0.603923   
     17. B(H  15,C   0)                  1.0956         0.352825   
     18. B(H  16,C   0)                  1.0951         0.353409   
     19. B(H  17,C   0)                  1.0949         0.353623   
     20. B(H  18,C   1)                  1.0954         0.353026   
     21. B(H  19,C   1)                  1.0951         0.353364   
     22. B(H  20,C   4)                  1.0882         0.362526   
     23. B(H  21,C   5)                  1.0868         0.364358   
     24. B(H  22,C   6)                  1.0867         0.364459   
     25. B(H  23,C   7)                  1.0868         0.364338   
     26. B(H  24,C   8)                  1.0877         0.363157   
     27. B(H  25,C  10)                  1.0887         0.361804   
     28. B(H  26,C  11)                  1.0868         0.364419   
     29. B(H  27,C  12)                  1.0866         0.364681   
     30. B(H  28,C  13)                  1.0870         0.364131   
     31. B(H  29,C  14)                  1.0859         0.365555   
     32. A(C   1,C   0,H  15)          111.5359         0.324798   
     33. A(H  15,C   0,H  16)          107.7676         0.289058   
     34. A(C   1,C   0,H  16)          109.9355         0.324886   
     35. A(H  16,C   0,H  17)          107.5292         0.289161   
     36. A(C   1,C   0,H  17)          111.8824         0.324919   
     37. A(H  15,C   0,H  17)          108.0160         0.289086   
     38. A(C   0,C   1,H  19)          109.3632         0.324880   
     39. A(H  18,C   1,H  19)          107.1951         0.289078   
     40. A(C   0,C   1,P   2)          112.4778         0.391888   
     41. A(P   2,C   1,H  19)          111.2726         0.345972   
     42. A(P   2,C   1,H  18)          108.6433         0.345916   
     43. A(C   0,C   1,H  18)          107.6826         0.324828   
     44. A(C   3,P   2,C   9)          101.9705         0.429617   
     45. A(C   1,P   2,C   9)          103.8514         0.423758   
     46. A(C   1,P   2,C   3)          101.3584         0.424749   
     47. A(P   2,C   3,C   8)          122.8750         0.429359   
     48. A(P   2,C   3,C   4)          118.6705         0.429284   
     49. A(C   4,C   3,C   8)          118.4531         0.428021   
     50. A(C   3,C   4,C   5)          120.7818         0.429521   
     51. A(C   5,C   4,H  20)          118.7589         0.352173   
     52. A(C   3,C   4,H  20)          120.4594         0.350956   
     53. A(C   4,C   5,C   6)          120.0672         0.432426   
     54. A(C   6,C   5,H  21)          120.0552         0.353493   
     55. A(C   4,C   5,H  21)          119.8776         0.352473   
     56. A(C   5,C   6,C   7)          119.8431         0.433742   
     57. A(C   7,C   6,H  22)          120.0772         0.353499   
     58. A(C   5,C   6,H  22)          120.0797         0.353510   
     59. A(C   6,C   7,H  23)          120.0491         0.353479   
     60. A(C   6,C   7,C   8)          120.0972         0.432417   
     61. A(C   8,C   7,H  23)          119.8535         0.352473   
     62. A(C   7,C   8,H  24)          118.6024         0.352279   
     63. A(C   3,C   8,H  24)          120.6378         0.351117   
     64. A(C   3,C   8,C   7)          120.7576         0.429599   
     65. A(P   2,C   9,C  10)          119.7494         0.427405   
     66. A(C  10,C   9,C  14)          117.7191         0.427177   
     67. A(P   2,C   9,C  14)          122.4711         0.428383   
     68. A(C   9,C  10,C  11)          121.2616         0.428471   
     69. A(C  11,C  10,H  25)          118.2625         0.351920   
     70. A(C   9,C  10,H  25)          120.4759         0.350164   
     71. A(C  10,C  11,C  12)          120.0294         0.432746   
     72. A(C  12,C  11,H  26)          120.1543         0.353885   
     73. A(C  10,C  11,H  26)          119.8157         0.352349   
     74. A(C  13,C  12,H  27)          120.1892         0.353770   
     75. A(C  11,C  12,H  27)          120.1404         0.353928   
     76. A(C  11,C  12,C  13)          119.6679         0.434545   
     77. A(C  14,C  13,H  28)          119.8398         0.352006   
     78. A(C  12,C  13,H  28)          119.9370         0.353679   
     79. A(C  12,C  13,C  14)          120.2217         0.432156   
     80. A(C  13,C  14,H  29)          117.7250         0.352238   
     81. A(C   9,C  14,H  29)          121.1991         0.351530   
     82. A(C   9,C  14,C  13)          121.0735         0.429069   
     83. D(H  18,C   1,C   0,H  16)     56.9623         0.011782   
     84. D(P   2,C   1,C   0,H  15)     57.1547         0.011782   
     85. D(P   2,C   1,C   0,H  17)    -63.9639         0.011782   
     86. D(P   2,C   1,C   0,H  16)    176.6337         0.011782   
     87. D(H  18,C   1,C   0,H  15)    -62.5166         0.011782   
     88. D(H  18,C   1,C   0,H  17)    176.3647         0.011782   
     89. D(C   3,P   2,C   1,C   0)     67.4946         0.003575   
     90. D(C   9,P   2,C   1,C   0)    173.0054         0.003575   
     91. D(C   3,P   2,C   1,H  19)    -55.6081         0.003575   
     92. D(C   9,P   2,C   1,H  18)    -67.8828         0.003575   
     93. D(C   3,P   2,C   1,H  18)   -173.3936         0.003575   
     94. D(C   8,C   3,P   2,C   1)     57.9906         0.003725   
     95. D(C   4,C   3,P   2,C   9)    131.4378         0.003725   
     96. D(C   8,C   3,P   2,C   9)    -48.9994         0.003725   
     97. D(C   4,C   3,P   2,C   1)   -121.5722         0.003725   
     98. D(H  20,C   4,C   3,P   2)     -0.3756         0.024468   
     99. D(C   5,C   4,C   3,C   8)      0.0394         0.024468   
    100. D(C   5,C   4,C   3,P   2)    179.6218         0.024468   
    101. D(H  20,C   4,C   3,C   8)   -179.9579         0.024468   
    102. D(H  21,C   5,C   4,H  20)     -0.0260         0.025547   
    103. D(H  21,C   5,C   4,C   3)    179.9766         0.025547   
    104. D(C   6,C   5,C   4,H  20)    179.9918         0.025547   
    105. D(C   6,C   5,C   4,C   3)     -0.0056         0.025547   
    106. D(H  22,C   6,C   5,H  21)     -0.0544         0.026488   
    107. D(H  22,C   6,C   5,C   4)    179.9277         0.026488   
    108. D(C   7,C   6,C   5,H  21)   -179.9658         0.026488   
    109. D(C   7,C   6,C   5,C   4)      0.0163         0.026488   
    110. D(H  23,C   7,C   6,H  22)     -0.1222         0.026478   
    111. D(H  23,C   7,C   6,C   5)    179.7892         0.026478   
    112. D(C   8,C   7,C   6,H  22)   -179.9732         0.026478   
    113. D(C   8,C   7,C   6,C   5)     -0.0618         0.026478   
    114. D(H  24,C   8,C   7,C   6)    179.5737         0.025550   
    115. D(C   3,C   8,C   7,H  23)   -179.7539         0.025550   
    116. D(C   3,C   8,C   7,C   6)      0.0973         0.025550   
    117. D(H  24,C   8,C   3,C   4)   -179.5508         0.024518   
    118. D(H  24,C   8,C   3,P   2)      0.8855         0.024518   
    119. D(C   7,C   8,C   3,C   4)     -0.0852         0.024518   
    120. D(H  24,C   8,C   7,H  23)     -0.2776         0.025550   
    121. D(C   7,C   8,C   3,P   2)   -179.6489         0.024518   
    122. D(C  14,C   9,P   2,C   3)    134.0576         0.003666   
    123. D(C  14,C   9,P   2,C   1)     29.0094         0.003666   
    124. D(C  10,C   9,P   2,C   3)    -48.8348         0.003666   
    125. D(C  10,C   9,P   2,C   1)   -153.8831         0.003666   
    126. D(H  25,C  10,C   9,C  14)    178.2428         0.023889   
    127. D(H  25,C  10,C   9,P   2)      0.9992         0.023889   
    128. D(C  11,C  10,C   9,C  14)     -1.8354         0.023889   
    129. D(C  11,C  10,C   9,P   2)   -179.0789         0.023889   
    130. D(H  26,C  11,C  10,H  25)      0.4128         0.025426   
    131. D(H  26,C  11,C  10,C   9)   -179.5107         0.025426   
    132. D(C  12,C  11,C  10,H  25)   -179.3105         0.025426   
    133. D(C  12,C  11,C  10,C   9)      0.7660         0.025426   
    134. D(H  27,C  12,C  11,H  26)      0.0994         0.026848   
    135. D(H  27,C  12,C  11,C  10)    179.8217         0.026848   
    136. D(C  13,C  12,C  11,H  26)   -179.3207         0.026848   
    137. D(C  13,C  12,C  11,C  10)      0.4017         0.026848   
    138. D(H  28,C  13,C  12,H  27)     -0.2998         0.026698   
    139. D(H  28,C  13,C  12,C  11)    179.1200         0.026698   
    140. D(C  14,C  13,C  12,H  27)   -179.8621         0.026698   
    141. D(C  14,C  13,C  12,C  11)     -0.4423         0.026698   
    142. D(H  29,C  14,C   9,C  10)   -177.6298         0.024538   
    143. D(H  29,C  14,C   9,P   2)     -0.4665         0.024538   
    144. D(C  13,C  14,C   9,C  10)      1.7915         0.024538   
    145. D(C  13,C  14,C   9,P   2)    178.9548         0.024538   
    146. D(H  29,C  14,C  13,H  28)     -0.8072         0.025161   
    147. D(H  29,C  14,C  13,C  12)    178.7556         0.025161   
    148. D(C   9,C  14,C  13,H  28)    179.7520         0.025161   
    149. D(C   9,C  14,C  13,C  12)     -0.6853         0.025161   
    -----------------------------------------------------------------

Number of atoms                         .... 30
Number of degrees of freedom            .... 149


         *************************************************************
         *                GEOMETRY OPTIMIZATION CYCLE   1            *
         *************************************************************
---------------------------------
CARTESIAN COORDINATES (ANGSTROEM)
---------------------------------
  C     -1.212467    3.167952   -0.099322
  C      0.056621    2.332034   -0.183779
  P      0.077361    0.953547    1.045446
  C     -1.262265   -0.113608    0.411749
  C     -2.346613   -0.403823    1.253162
  C     -3.399415   -1.209064    0.810894
  C     -3.381772   -1.734593   -0.478660
  C     -2.312263   -1.455898   -1.326041
  C     -1.259848   -0.649906   -0.884262
  C      1.570013   -0.007023    0.601277
  C      1.637727   -1.375836    0.915104
  C      2.770217   -2.135443    0.607562
  C      3.864815   -1.535896   -0.006455
  C      3.828741   -0.176979   -0.304210
  C      2.693974    0.581605    0.003611
  H     -1.354739    3.582755    0.904640
  H     -1.155113    4.005878   -0.802064
  H     -2.103230    2.584351   -0.353970
  H      0.905355    2.994344    0.018455
  H      0.176041    1.955421   -1.205167
  H     -2.382273   -0.004301    2.264710
  H     -4.232031   -1.424789    1.475234
  H     -4.199903   -2.361847   -0.822440
  H     -2.293404   -1.867074   -2.331897
  H     -0.433519   -0.453698   -1.563800
  H      0.801985   -1.871820    1.405854
  H      2.794208   -3.193699    0.853638
  H      4.747131   -2.123988   -0.243683
  H      4.687240    0.299037   -0.770999
  H      2.717427    1.642359   -0.227573

----------------------------
CARTESIAN COORDINATES (A.U.)
----------------------------
  NO LB      ZA    FRAG     MASS         X           Y           Z
   0 C     6.0000    0    12.011   -2.291231    5.986562   -0.187691
   1 C     6.0000    0    12.011    0.106998    4.406906   -0.347292
   2 P    15.0000    0    30.974    0.146191    1.801943    1.975607
   3 C     6.0000    0    12.011   -2.385335   -0.214688    0.778093
   4 C     6.0000    0    12.011   -4.434456   -0.763115    2.368133
   5 C     6.0000    0    12.011   -6.423963   -2.284800    1.532368
   6 C     6.0000    0    12.011   -6.390623   -3.277906   -0.904536
   7 C     6.0000    0    12.011   -4.369544   -2.751248   -2.505854
   8 C     6.0000    0    12.011   -2.380768   -1.228144   -1.671013
   9 C     6.0000    0    12.011    2.966895   -0.013272    1.136249
  10 C     6.0000    0    12.011    3.094856   -2.599953    1.729296
  11 C     6.0000    0    12.011    5.234951   -4.035402    1.148126
  12 C     6.0000    0    12.011    7.303442   -2.902423   -0.012198
  13 C     6.0000    0    12.011    7.235272   -0.334442   -0.574874
  14 C     6.0000    0    12.011    5.090873    1.099074    0.006824
  15 H     1.0000    0     1.008   -2.560086    6.770426    1.709522
  16 H     1.0000    0     1.008   -2.182847    7.570012   -1.515681
  17 H     1.0000    0     1.008   -3.974529    4.883716   -0.668906
  18 H     1.0000    0     1.008    1.710873    5.658490    0.034875
  19 H     1.0000    0     1.008    0.332669    3.695210   -2.277436
  20 H     1.0000    0     1.008   -4.501844   -0.008128    4.279682
  21 H     1.0000    0     1.008   -7.997380   -2.692461    2.787788
  22 H     1.0000    0     1.008   -7.936666   -4.463244   -1.554186
  23 H     1.0000    0     1.008   -4.333905   -3.528259   -4.406647
  24 H     1.0000    0     1.008   -0.819232   -0.857365   -2.955154
  25 H     1.0000    0     1.008    1.515532   -3.537227    2.656679
  26 H     1.0000    0     1.008    5.280288   -6.035216    1.613142
  27 H     1.0000    0     1.008    8.970778   -4.013756   -0.460494
  28 H     1.0000    0     1.008    8.857600    0.565098   -1.456977
  29 H     1.0000    0     1.008    5.135193    3.103609   -0.430051

--------------------------------
INTERNAL COORDINATES (ANGSTROEM)
--------------------------------
 C      0   0   0     0.000000000000     0.00000000     0.00000000
 C      1   0   0     1.521997450496     0.00000000     0.00000000
 P      2   1   0     1.847065417735   112.47784481     0.00000000
 C      3   2   1     1.826195362416   101.35843032    67.49459603
 C      4   3   2     1.402858213754   118.67050340   238.42779253
 C      5   4   3     1.397285261895   120.78175603   179.62177972
 C      6   5   4     1.392638332162   120.06716679     0.00000000
 C      7   6   5     1.392686240065   119.84309102     0.00000000
 C      8   7   6     1.397272028322   120.09719315   359.93820079
 C      3   2   1     1.829751572910   103.85137537   173.00535568
 C     10   3   2     1.405959316870   119.74941095   206.11694451
 C     11  10   3     1.397897877641   121.26159061   180.92105799
 C     12  11  10     1.390905555062   120.02944576     0.76604295
 C     13  12  11     1.391623076264   119.66786514     0.40165704
 C     14  13  12     1.399249655132   120.22173869   359.55769898
 H      1   2   3     1.095555817034   111.53591295    57.15473733
 H      1   2   3     1.095105374544   109.93553466   176.63368938
 H      1   2   3     1.094940388000   111.88237850   296.03608257
 H      2   1   3     1.095400625165   107.68262073   240.32864951
 H      2   1   3     1.095140143869   109.36316296   124.16551798
 H      5   4   3     1.088172238383   120.45935934   359.62444650
 H      6   5   4     1.086800034358   119.87761937   179.97657661
 H      7   6   5     1.086724713107   120.07965998   179.92771666
 H      8   7   6     1.086815374198   120.04914374   179.78917641
 H      9   8   7     1.087698988208   118.60241170   179.57371718
 H     11  10   3     1.088715013821   120.47589739     0.99923808
 H     12  11  10     1.086754216644   119.81568651   180.48931522
 H     13  12  11     1.086559178464   120.14035757   179.82174925
 H     14  13  12     1.086969979244   119.93700522   179.12000547
 H     15  14  13     1.085907516127   117.72500809   178.75556175

---------------------------
INTERNAL COORDINATES (A.U.)
---------------------------
 C      0   0   0     0.000000000000     0.00000000     0.00000000
 C      1   0   0     2.876158357964     0.00000000     0.00000000
 P      2   1   0     3.490447790957   112.47784481     0.00000000
 C      3   2   1     3.451009102003   101.35843032    67.49459603
 C      4   3   2     2.651017828718   118.67050340   238.42779253
 C      5   4   3     2.640486475946   120.78175603   179.62177972
 C      6   5   4     2.631705051386   120.06716679     0.00000000
 C      7   6   5     2.631795584204   119.84309102     0.00000000
 C      8   7   6     2.640461468117   120.09719315   359.93820079
 C      3   2   1     3.457729365911   103.85137537   173.00535568
 C     10   3   2     2.656878064320   119.74941095   206.11694451
 C     11  10   3     2.641644151931   121.26159061   180.92105799
 C     12  11  10     2.628430577217   120.02944576     0.76604295
 C     13  12  11     2.629786495784   119.66786514     0.40165704
 C     14  13  12     2.644198641183   120.22173869   359.55769898
 H      1   2   3     2.070300458619   111.53591295    57.15473733
 H      1   2   3     2.069449245674   109.93553466   176.63368938
 H      1   2   3     2.069137466290   111.88237850   296.03608257
 H      2   1   3     2.070007188488   107.68262073   240.32864951
 H      2   1   3     2.069514950175   109.36316296   124.16551798
 H      5   4   3     2.056347517080   120.45935934   359.62444650
 H      6   5   4     2.053754427273   119.87761937   179.97657661
 H      7   6   5     2.053612090736   120.07965998   179.92771666
 H      8   7   6     2.053783415369   120.04914374   179.78917641
 H      9   8   7     2.055453203857   118.60241170   179.57371718
 H     11  10   3     2.057373214011   120.47589739     0.99923808
 H     12  11  10     2.053667844341   119.81568651   180.48931522
 H     13  12  11     2.053299275595   120.14035757   179.82174925
 H     14  13  12     2.054075576565   119.93700522   179.12000547
 H     15  14  13     2.052067812247   117.72500809   178.75556175

---------------------
BASIS SET INFORMATION
---------------------
There are 3 groups of distinct atoms

 Group   1 Type C   : 7s4p1d contracted to 3s2p1d pattern {511/31/1}
 Group   2 Type P   : 10s7p1d contracted to 4s3p1d pattern {5311/511/1}
 Group   3 Type H   : 4s1p contracted to 2s1p pattern {31/1}

Atom   0C    basis set group =>   1
Atom   1C    basis set group =>   1
Atom   2P    basis set group =>   2
Atom   3C    basis set group =>   1
Atom   4C    basis set group =>   1
Atom   5C    basis set group =>   1
Atom   6C    basis set group =>   1
Atom   7C    basis set group =>   1
Atom   8C    basis set group =>   1
Atom   9C    basis set group =>   1
Atom  10C    basis set group =>   1
Atom  11C    basis set group =>   1
Atom  12C    basis set group =>   1
Atom  13C    basis set group =>   1
Atom  14C    basis set group =>   1
Atom  15H    basis set group =>   3
Atom  16H    basis set group =>   3
Atom  17H    basis set group =>   3
Atom  18H    basis set group =>   3
Atom  19H    basis set group =>   3
Atom  20H    basis set group =>   3
Atom  21H    basis set group =>   3
Atom  22H    basis set group =>   3
Atom  23H    basis set group =>   3
Atom  24H    basis set group =>   3
Atom  25H    basis set group =>   3
Atom  26H    basis set group =>   3
Atom  27H    basis set group =>   3
Atom  28H    basis set group =>   3
Atom  29H    basis set group =>   3
---------------------------------
AUXILIARY/J BASIS SET INFORMATION
---------------------------------
There are 3 groups of distinct atoms

 Group   1 Type C   : 12s5p4d2f1g contracted to 6s4p3d1f1g pattern {711111/2111/211/2/1}
 Group   2 Type P   : 14s5p5d2f1g contracted to 8s4p3d1f1g pattern {71111111/2111/311/2/1}
 Group   3 Type H   : 5s2p1d contracted to 3s1p1d pattern {311/2/1}

Atom   0C    basis set group =>   1
Atom   1C    basis set group =>   1
Atom   2P    basis set group =>   2
Atom   3C    basis set group =>   1
Atom   4C    basis set group =>   1
Atom   5C    basis set group =>   1
Atom   6C    basis set group =>   1
Atom   7C    basis set group =>   1
Atom   8C    basis set group =>   1
Atom   9C    basis set group =>   1
Atom  10C    basis set group =>   1
Atom  11C    basis set group =>   1
Atom  12C    basis set group =>   1
Atom  13C    basis set group =>   1
Atom  14C    basis set group =>   1
Atom  15H    basis set group =>   3
Atom  16H    basis set group =>   3
Atom  17H    basis set group =>   3
Atom  18H    basis set group =>   3
Atom  19H    basis set group =>   3
Atom  20H    basis set group =>   3
Atom  21H    basis set group =>   3
Atom  22H    basis set group =>   3
Atom  23H    basis set group =>   3
Atom  24H    basis set group =>   3
Atom  25H    basis set group =>   3
Atom  26H    basis set group =>   3
Atom  27H    basis set group =>   3
Atom  28H    basis set group =>   3
Atom  29H    basis set group =>   3


           ************************************************************
           *        Program running with 6 parallel MPI-processes     *
           *              working on a common directory               *
           ************************************************************
------------------------------------------------------------------------------
                             ORCA STARTUP CALCULATIONS
                           -- RI-GTO INTEGRALS CHOSEN --
------------------------------------------------------------------------------
------------------------------------------------------------------------------
                   ___                                                        
                  /   \      - P O W E R E D   B Y -                         
                 /     \                                                     
                 |  |  |   _    _      __       _____    __    __             
                 |  |  |  | |  | |    /  \     |  _  \  |  |  /  |          
                  \  \/   | |  | |   /    \    | | | |  |  | /  /          
                 / \  \   | |__| |  /  /\  \   | |_| |  |  |/  /          
                |  |  |   |  __  | /  /__\  \  |    /   |      \           
                |  |  |   | |  | | |   __   |  |    \   |  |\   \          
                \     /   | |  | | |  |  |  |  | |\  \  |  | \   \       
                 \___/    |_|  |_| |__|  |__|  |_| \__\ |__|  \__/        
                                                                              
                      - O R C A' S   B I G   F R I E N D -                    
                                      &                                       
                       - I N T E G R A L  F E E D E R -                       
                                                                              
 v1 FN, 2020, v2 2021, v3 2022-2024                                           
------------------------------------------------------------------------------


----------------------
SHARK INTEGRAL PACKAGE
----------------------

Number of atoms                             ...     30
Number of basis functions                   ...    289
Number of shells                            ...    137
Maximum angular momentum                    ...      2
Integral batch strategy                     ... SHARK/LIBINT Hybrid
RI-J (if used) integral strategy            ... SPLIT-RIJ (Revised 2003 algorithm where possible)
Printlevel                                  ...      1
Contraction scheme used                     ... SEGMENTED contraction
Prescreening option                         ... SCHWARTZ
   Thresh                                   ... 2.500e-11
   Tcut                                     ... 2.500e-12
   Tpresel                                  ... 2.500e-12 
Coulomb Range Separation                    ... NOT USED
Exchange Range Separation                   ... NOT USED
Multipole approximations                    ... NOT USED
Finite Nucleus Model                        ... NOT USED
CABS basis                                  ... NOT available
Auxiliary Coulomb fitting basis             ... AVAILABLE
   # of basis functions in Aux-J            ...    902
   # of shells in Aux-J                     ...    302
   Maximum angular momentum in Aux-J        ...      4
Auxiliary J/K fitting basis                 ... NOT available
Auxiliary Correlation fitting basis         ... NOT available
Auxiliary 'external' fitting basis          ... NOT available

Checking pre-screening integrals            ... done (  0.0 sec) Dimension = 137
Check shell pair data                       ... done (  0.0 sec)
Shell pair information
Shell pair cut-off parameter TPreSel        ...   2.5e-12
Total number of shell pairs                 ...      9453
Shell pairs after pre-screening             ...      7865
Total number of primitive shell pairs       ...     34441
Primitive shell pairs kept                  ...     19038
          la=0 lb=0:   2488 shell pairs
          la=1 lb=0:   2943 shell pairs
          la=1 lb=1:    894 shell pairs
          la=2 lb=0:    919 shell pairs
          la=2 lb=1:    536 shell pairs
          la=2 lb=2:     85 shell pairs

Calculating one electron integrals          ... done (  0.0 sec)
Calculating RI/J V-Matrix + Cholesky decomp.... done (  0.0 sec)
Calculating Nuclear repulsion               ... done (  0.0 sec) ENN=   1023.546986760951 Eh

Diagonalization of the overlap matrix:
Smallest eigenvalue                        ... 2.691e-04
Time for diagonalization                   ...    0.009 sec
Threshold for overlap eigenvalues          ... 1.000e-07
Number of eigenvalues below threshold      ... 0
Time for construction of square roots      ...    0.009 sec
Total time needed                          ...    0.019 sec

-------------------
DFT GRID GENERATION
-------------------

General Integration Accuracy     IntAcc      ... 4.388
Radial Grid Type                 RadialGrid  ... OptM3 with GC (2021)
Angular Grid (max. ang.)         AngularGrid ... 4 (Lebedev-302)
Angular grid pruning method      GridPruning ... 4 (adaptive)
Weight generation scheme         WeightScheme... mBecke (2022)
Basis function cutoff            BFCut       ... 1.0000e-11
Integration weight cutoff        WCut        ... 1.0000e-14
Partially contracted basis set               ... off
Rotationally invariant grid construction     ... off
Angular grids for H and He will be reduced by one unit

Total number of grid points                  ...   138919
Total number of batches                      ...     2188
Average number of points per batch           ...       63
Average number of grid points per atom       ...     4631
Initializing property integral containers    ... done (  0.0 sec)

SHARK setup successfully completed in   0.9 seconds

Maximum memory used throughout the entire STARTUP-calculation: 37.1 MB


           ************************************************************
           *        Program running with 6 parallel MPI-processes     *
           *              working on a common directory               *
           ************************************************************
-------------------------------------------------------------------------------
                                 ORCA GUESS
                   Start orbitals & Density for SCF / CASSCF
-------------------------------------------------------------------------------

------------
SCF SETTINGS
------------
Hamiltonian:
 Density Functional     Method          .... DFT(GTOs)
 Exchange Functional    Exchange        .... B88
   X-Alpha parameter    XAlpha          ....  0.666667
   Becke's b parameter  XBeta           ....  0.004200
 Correlation Functional Correlation     .... P86
 LDA part of GGA corr.  LDAOpt          .... PW91-LDA
 Gradients option       PostSCFGGA      .... off
   NL short-range parameter             ....  4.400000
 RI-approximation to the Coulomb term is turned on
   Number of AuxJ basis functions       .... 902


General Settings:
 Integral files         IntName         .... data/geom_opt_P_BP86/69082/69082
 Hartree-Fock type      HFTyp           .... RHF
 Total Charge           Charge          ....    0
 Multiplicity           Mult            ....    1
 Number of Electrons    NEL             ....  114
 Basis Dimension        Dim             ....  289
 Nuclear Repulsion      ENuc            ....   1023.5469867610 Eh

Convergence Acceleration:
 AO-DIIS                CNVDIIS         .... on
   Start iteration      DIISMaxIt       ....    12
   Startup error        DIISStart       ....  0.200000
   # of expansion vecs  DIISMaxEq       ....     5
   Bias factor          DIISBfac        ....   1.050
   Max. coefficient     DIISMaxC        ....  10.000
 MO-DIIS                CNVKDIIS        .... off
 Trust-Rad. Augm. Hess. CNVTRAH         .... auto
   Auto Start mean grad. ratio tolernc. ....  1.125000
   Auto Start start iteration           ....    50
   Auto Start num. interpolation iter.  ....    10
   Max. Number of Micro iterations      ....    24
   Max. Number of Macro iterations      .... Maxiter - #DIIS iter
   Number of Davidson start vectors     ....     2
   Converg. threshold    (grad. norm)   ....   1.000e-05
   Grad. Scal. Fac. for Micro threshold ....   0.100
   Minimum threshold for Micro iter.    ....   1.000e-02
   NR start threshold (gradient norm)   ....   1.000e-04
   Initial trust radius                 ....   0.400
   Minimum AH scaling param. (alpha)    ....   1.000
   Maximum AH scaling param. (alpha)    .... 1000.000
   Quad. conv. algorithm                .... NR
   White noise on init. David. guess    .... on
   Maximum white noise                  ....   0.010
   Pseudo random numbers                .... off
   Inactive MOs                         .... canonical
   Orbital update algorithm             .... Taylor
   Preconditioner                       .... Diag
   Full preconditioner red. dimension   ....   250
 SOSCF                  CNVSOSCF        .... on
   Start iteration      SOSCFMaxIt      ....   150
   Startup grad/error   SOSCFStart      ....  0.003300
   Hessian update       SOSCFHessUp     .... L-BFGS
 Level Shifting         CNVShift        .... on
   Level shift para.    LevelShift      ....    0.2500
   Turn off err/grad.   ShiftErr        ....    0.0010
 Zerner damping         CNVZerner       .... off
 Static damping         CNVDamp         .... on
   Fraction old density DampFac         ....    0.7000
   Max. Damping (<1)    DampMax         ....    0.9800
   Min. Damping (>=0)   DampMin         ....    0.0000
   Turn off err/grad.   DampErr         ....    0.1000

SCF Procedure:
 Maximum # iterations   MaxIter         ....   125
 SCF integral mode      SCFMode         .... Direct
   Integral package                     .... SHARK and LIBINT hybrid scheme
 Reset frequency        DirectResetFreq ....    20
 Integral Threshold     Thresh          ....  2.500e-11 Eh
 Primitive CutOff       TCut            ....  2.500e-12 Eh

Convergence Tolerance:
 Convergence Check Mode ConvCheckMode   .... Total+1el-Energy
 Convergence forced     ConvForced      .... 0
 Energy Change          TolE            ....  1.000e-08 Eh
 1-El. energy change                    ....  1.000e-05 Eh
 Orbital Gradient       TolG            ....  1.000e-05
 Orbital Rotation angle TolX            ....  1.000e-05
 DIIS Error             TolErr          ....  5.000e-07

------------------------------
INITIAL GUESS: MODEL POTENTIAL
------------------------------
Loading Hartree-Fock densities                     ... done
Calculating cut-offs                               ... done
Initializing the effective Hamiltonian             ... done
Setting up the integral package (SHARK)            ... done
Starting the Coulomb interaction                   ... done (   0.1 sec)
Making the grid                                    ... done (   0.2 sec)
Mapping shells                                     ... done
Starting the XC term evaluation                    ... done (   0.1 sec)
  promolecular density results
     # of electrons  =    113.995034951
     EX              =    -99.061144067
     EC              =     -4.212936303
     EX+EC           =   -103.274080370
Transforming the Hamiltonian                       ... done (   0.0 sec)
Diagonalizing the Hamiltonian                      ... done (   0.0 sec)
Back transforming the eigenvectors                 ... done (   0.0 sec)
Now organizing SCF variables                       ... done
                      ------------------
                      INITIAL GUESS DONE (   0.5 sec)
                      ------------------
             **** ENERGY FILE WAS UPDATED (data/geom_opt_P_BP86/69082/69082.en.tmp) ****
Finished Guess after   0.5 sec
Maximum memory used throughout the entire GUESS-calculation: 20.3 MB


           ************************************************************
           *        Program running with 6 parallel MPI-processes     *
           *              working on a common directory               *
           ************************************************************

-------------------------------------------------------------------------------------------
                                      ORCA LEAN-SCF
                              memory conserving SCF solver
-------------------------------------------------------------------------------------------

----------------------------------------D-I-I-S--------------------------------------------
Iteration    Energy (Eh)           Delta-E    RMSDP     MaxDP     DIISErr   Damp  Time(sec)
-------------------------------------------------------------------------------------------
               ***  Starting incremental Fock matrix formation  ***
    1    -883.1116876616880518     0.00e+00  2.31e-03  7.49e-02  1.59e-01  0.700   0.6
    2    -883.2537401267915129    -1.42e-01  1.64e-03  4.27e-02  7.49e-02  0.700   0.7
                               ***Turning on AO-DIIS***
    3    -883.3059885877538591    -5.22e-02  7.51e-04  4.15e-02  2.04e-02  0.700   0.6
    4    -883.3364674243708805    -3.05e-02  1.45e-03  9.61e-02  8.49e-03  0.000   0.6
    5    -883.4042881299525334    -6.78e-02  2.63e-04  1.31e-02  5.19e-03  0.000   0.6
                              *** Initializing SOSCF ***
---------------------------------------S-O-S-C-F--------------------------------------
Iteration    Energy (Eh)           Delta-E    RMSDP     MaxDP     MaxGrad    Time(sec)
--------------------------------------------------------------------------------------
    6    -883.4048507061528426    -5.63e-04  9.41e-05  3.54e-03  1.12e-03     0.6
               *** Restarting incremental Fock matrix formation ***
    7    -883.4048861501115653    -3.54e-05  6.82e-05  2.83e-03  1.75e-04     0.6
    8    -883.4048866664101070    -5.16e-07  2.32e-05  5.28e-04  2.58e-04     0.6
    9    -883.4048890677730697    -2.40e-06  2.94e-05  1.53e-03  1.79e-04     0.6
   10    -883.4048891116059394    -4.38e-08  1.27e-05  4.75e-04  9.78e-05     0.5
   11    -883.4048901183369935    -1.01e-06  9.24e-06  4.57e-04  4.87e-05     0.5
   12    -883.4048899890971143     1.29e-07  4.66e-06  1.69e-04  9.01e-05     0.5
   13    -883.4048901906556921    -2.02e-07  4.40e-06  2.50e-04  1.27e-05     0.5
   14    -883.4048901811414680     9.51e-09  2.46e-06  1.49e-04  1.67e-05     0.5
                 **** Energy Check signals convergence ****

               *****************************************************
               *                     SUCCESS                       *
               *           SCF CONVERGED AFTER  14 CYCLES          *
               *****************************************************

             **** ENERGY FILE WAS UPDATED (data/geom_opt_P_BP86/69082/69082.en.tmp) ****

----------------
TOTAL SCF ENERGY
----------------

Total Energy       :       -883.40489018114147 Eh          -24038.66916 eV

Components:
Nuclear Repulsion  :       1023.54698676095074 Eh           27852.12948 eV
Electronic Energy  :      -1906.95187694209221 Eh          -51890.79865 eV
One Electron Energy:      -3235.57338071320191 Eh          -88044.42778 eV
Two Electron Energy:       1328.62150377110970 Eh           36153.62913 eV

Virial components:
Potential Energy   :      -1759.40780384748723 Eh          -47875.92031 eV
Kinetic Energy     :        876.00291366634576 Eh           23837.25114 eV
Virial Ratio       :          2.00844971677527

DFT components:
N(Alpha)           :       56.999897455228 electrons
N(Beta)            :       56.999897455228 electrons
N(Total)           :      113.999794910456 electrons
E(X)               :     -100.544132751037 Eh       
E(C)               :       -4.217138503419 Eh       
E(XC)              :     -104.761271254456 Eh       

---------------
SCF CONVERGENCE
---------------

  Last Energy change         ...   -9.5142e-09  Tolerance :   1.0000e-08
  Last MAX-Density change    ...    1.4865e-04  Tolerance :   1.0000e-07
  Last RMS-Density change    ...    2.4565e-06  Tolerance :   5.0000e-09
  Last DIIS Error            ...    1.1170e-03  Tolerance :   5.0000e-07
  Last Orbital Gradient      ...    1.6654e-05  Tolerance :   1.0000e-05
  Last Orbital Rotation      ...    2.8335e-05  Tolerance :   1.0000e-05


----------------
ORBITAL ENERGIES
----------------

  NO   OCC          E(Eh)            E(eV) 
   0   2.0000     -76.334844     -2077.1767 
   1   2.0000      -9.922459      -270.0038 
   2   2.0000      -9.922132      -269.9949 
   3   2.0000      -9.921630      -269.9813 
   4   2.0000      -9.921552      -269.9791 
   5   2.0000      -9.920585      -269.9528 
   6   2.0000      -9.920521      -269.9511 
   7   2.0000      -9.920145      -269.9409 
   8   2.0000      -9.916793      -269.8497 
   9   2.0000      -9.916337      -269.8373 
  10   2.0000      -9.915289      -269.8087 
  11   2.0000      -9.914888      -269.7978 
  12   2.0000      -9.914284      -269.7814 
  13   2.0000      -9.912343      -269.7286 
  14   2.0000      -9.907839      -269.6060 
  15   2.0000      -6.305050      -171.5691 
  16   2.0000      -4.526606      -123.1752 
  17   2.0000      -4.526214      -123.1645 
  18   2.0000      -4.522635      -123.0671 
  19   2.0000      -0.780411       -21.2361 
  20   2.0000      -0.772218       -21.0131 
  21   2.0000      -0.709205       -19.2985 
  22   2.0000      -0.678229       -18.4555 
  23   2.0000      -0.674806       -18.3624 
  24   2.0000      -0.670032       -18.2325 
  25   2.0000      -0.667243       -18.1566 
  26   2.0000      -0.589511       -16.0414 
  27   2.0000      -0.551602       -15.0099 
  28   2.0000      -0.546077       -14.8595 
  29   2.0000      -0.536228       -14.5915 
  30   2.0000      -0.534947       -14.5566 
  31   2.0000      -0.497722       -13.5437 
  32   2.0000      -0.468771       -12.7559 
  33   2.0000      -0.449813       -12.2400 
  34   2.0000      -0.413568       -11.2537 
  35   2.0000      -0.408012       -11.1026 
  36   2.0000      -0.403665       -10.9843 
  37   2.0000      -0.402441       -10.9510 
  38   2.0000      -0.397659       -10.8209 
  39   2.0000      -0.386562       -10.5189 
  40   2.0000      -0.378644       -10.3034 
  41   2.0000      -0.373646       -10.1674 
  42   2.0000      -0.361576        -9.8390 
  43   2.0000      -0.339219        -9.2306 
  44   2.0000      -0.337002        -9.1703 
  45   2.0000      -0.329147        -8.9565 
  46   2.0000      -0.327200        -8.9036 
  47   2.0000      -0.311646        -8.4803 
  48   2.0000      -0.308534        -8.3956 
  49   2.0000      -0.304629        -8.2894 
  50   2.0000      -0.286567        -7.7979 
  51   2.0000      -0.282063        -7.6753 
  52   2.0000      -0.247063        -6.7229 
  53   2.0000      -0.237042        -6.4502 
  54   2.0000      -0.234573        -6.3831 
  55   2.0000      -0.228203        -6.2097 
  56   2.0000      -0.186342        -5.0706 
  57   0.0000      -0.058084        -1.5806 
  58   0.0000      -0.048914        -1.3310 
  59   0.0000      -0.043871        -1.1938 
  60   0.0000      -0.036991        -1.0066 
  61   0.0000       0.030497         0.8299 
  62   0.0000       0.036572         0.9952 
  63   0.0000       0.041458         1.1281 
  64   0.0000       0.056612         1.5405 
  65   0.0000       0.068033         1.8513 
  66   0.0000       0.073698         2.0054 
  67   0.0000       0.076474         2.0810 
*Only the first 10 virtual orbitals were printed.

                    ********************************
                    * MULLIKEN POPULATION ANALYSIS *
                    ********************************

-----------------------
MULLIKEN ATOMIC CHARGES
-----------------------
   0 C :   -0.023327
   1 C :   -0.191831
   2 P :    0.210195
   3 C :   -0.133210
   4 C :    0.015165
   5 C :    0.005002
   6 C :    0.012907
   7 C :    0.010901
   8 C :    0.019601
   9 C :   -0.080249
  10 C :   -0.004118
  11 C :    0.009082
  12 C :    0.004770
  13 C :    0.014098
  14 C :   -0.024891
  15 H :    0.035462
  16 H :    0.032041
  17 H :    0.042704
  18 H :    0.063843
  19 H :    0.043277
  20 H :   -0.007201
  21 H :   -0.002701
  22 H :   -0.002164
  23 H :   -0.004732
  24 H :    0.001514
  25 H :   -0.004590
  26 H :   -0.006208
  27 H :   -0.007630
  28 H :   -0.008853
  29 H :   -0.018859
Sum of atomic charges:   -0.0000000

--------------------------------
MULLIKEN REDUCED ORBITAL CHARGES
--------------------------------
  0 C s       :     2.989802  s :     2.989802
      pz      :     1.021826  p :     3.006560
      px      :     0.984713
      py      :     1.000021
      dz2     :     0.005291  d :     0.026965
      dxz     :     0.002789
      dyz     :     0.006961
      dx2y2   :     0.005284
      dxy     :     0.006640

  1 C s       :     3.088405  s :     3.088405
      pz      :     1.027762  p :     3.074027
      px      :     1.032524
      py      :     1.013742
      dz2     :     0.007579  d :     0.029399
      dxz     :     0.003229
      dyz     :     0.006048
      dx2y2   :     0.005098
      dxy     :     0.007446

  2 P s       :     5.748281  s :     5.748281
      pz      :     3.296666  p :     8.871176
      px      :     2.769049
      py      :     2.805461
      dz2     :     0.021499  d :     0.170348
      dxz     :     0.026869
      dyz     :     0.038697
      dx2y2   :     0.032085
      dxy     :     0.051199

  3 C s       :     3.083282  s :     3.083282
      pz      :     1.004667  p :     3.014878
      px      :     1.004634
      py      :     1.005577
      dz2     :     0.008918  d :     0.035050
      dxz     :     0.009567
      dyz     :     0.007115
      dx2y2   :     0.004198
      dxy     :     0.005252

  4 C s       :     3.230062  s :     3.230062
      pz      :     0.855510  p :     2.722005
      px      :     0.938105
      py      :     0.928389
      dz2     :     0.007896  d :     0.032767
      dxz     :     0.007547
      dyz     :     0.004953
      dx2y2   :     0.006365
      dxy     :     0.006006

  5 C s       :     3.171784  s :     3.171784
      pz      :     0.919989  p :     2.790512
      px      :     0.896949
      py      :     0.973573
      dz2     :     0.007386  d :     0.032702
      dxz     :     0.009762
      dyz     :     0.006162
      dx2y2   :     0.005138
      dxy     :     0.004254

  6 C s       :     3.168118  s :     3.168118
      pz      :     0.954598  p :     2.785866
      px      :     0.899605
      py      :     0.931663
      dz2     :     0.008985  d :     0.033108
      dxz     :     0.009076
      dyz     :     0.006356
      dx2y2   :     0.003451
      dxy     :     0.005241

  7 C s       :     3.170455  s :     3.170455
      pz      :     0.855313  p :     2.785817
      px      :     0.970018
      py      :     0.960486
      dz2     :     0.007908  d :     0.032827
      dxz     :     0.007580
      dyz     :     0.005131
      dx2y2   :     0.006314
      dxy     :     0.005895

  8 C s       :     3.219730  s :     3.219730
      pz      :     0.923743  p :     2.727785
      px      :     0.864490
      py      :     0.939552
      dz2     :     0.007276  d :     0.032883
      dxz     :     0.009973
      dyz     :     0.006075
      dx2y2   :     0.005250
      dxy     :     0.004309

  9 C s       :     3.046561  s :     3.046561
      pz      :     0.990792  p :     2.998903
      px      :     1.004806
      py      :     1.003305
      dz2     :     0.004239  d :     0.034785
      dxz     :     0.005197
      dyz     :     0.006459
      dx2y2   :     0.008879
      dxy     :     0.010010

 10 C s       :     3.221673  s :     3.221673
      pz      :     0.953148  p :     2.750007
      px      :     0.865363
      py      :     0.931496
      dz2     :     0.002631  d :     0.032438
      dxz     :     0.004350
      dyz     :     0.005893
      dx2y2   :     0.009250
      dxy     :     0.010313

 11 C s       :     3.167832  s :     3.167832
      pz      :     0.977519  p :     2.789970
      px      :     0.969800
      py      :     0.842651
      dz2     :     0.003888  d :     0.033116
      dxz     :     0.006042
      dyz     :     0.003714
      dx2y2   :     0.011128
      dxy     :     0.008343

 12 C s       :     3.166733  s :     3.166733
      pz      :     0.981285  p :     2.795407
      px      :     0.883585
      py      :     0.930538
      dz2     :     0.003800  d :     0.033090
      dxz     :     0.003693
      dyz     :     0.005987
      dx2y2   :     0.008844
      dxy     :     0.010766

 13 C s       :     3.165362  s :     3.165362
      pz      :     0.958665  p :     2.787481
      px      :     0.888106
      py      :     0.940710
      dz2     :     0.002583  d :     0.033058
      dxz     :     0.004232
      dyz     :     0.006261
      dx2y2   :     0.009587
      dxy     :     0.010395

 14 C s       :     3.223831  s :     3.223831
      pz      :     0.989693  p :     2.768465
      px      :     0.939808
      py      :     0.838964
      dz2     :     0.003690  d :     0.032596
      dxz     :     0.005886
      dyz     :     0.003513
      dx2y2   :     0.011352
      dxy     :     0.008156

 15 H s       :     0.941860  s :     0.941860
      pz      :     0.011851  p :     0.022678
      px      :     0.004723
      py      :     0.006104

 16 H s       :     0.945139  s :     0.945139
      pz      :     0.008448  p :     0.022819
      px      :     0.004779
      py      :     0.009593

 17 H s       :     0.934280  s :     0.934280
      pz      :     0.005849  p :     0.023016
      px      :     0.009780
      py      :     0.007387

 18 H s       :     0.913550  s :     0.913550
      pz      :     0.005357  p :     0.022606
      px      :     0.009384
      py      :     0.007865

 19 H s       :     0.934393  s :     0.934393
      pz      :     0.011785  p :     0.022330
      px      :     0.004638
      py      :     0.005907

 20 H s       :     0.984668  s :     0.984668
      pz      :     0.012573  p :     0.022534
      px      :     0.003949
      py      :     0.006012

 21 H s       :     0.980313  s :     0.980313
      pz      :     0.007573  p :     0.022388
      px      :     0.009833
      py      :     0.004982

 22 H s       :     0.979835  s :     0.979835
      pz      :     0.004848  p :     0.022329
      px      :     0.009631
      py      :     0.007850

 23 H s       :     0.982354  s :     0.982354
      pz      :     0.012357  p :     0.022378
      px      :     0.004014
      py      :     0.006006

 24 H s       :     0.975911  s :     0.975911
      pz      :     0.007503  p :     0.022575
      px      :     0.010139
      py      :     0.004932

 25 H s       :     0.981907  s :     0.981907
      pz      :     0.006734  p :     0.022683
      px      :     0.010198
      py      :     0.005751

 26 H s       :     0.983823  s :     0.983823
      pz      :     0.005308  p :     0.022384
      px      :     0.003933
      py      :     0.013143

 27 H s       :     0.985200  s :     0.985200
      pz      :     0.005338  p :     0.022429
      px      :     0.010424
      py      :     0.006668

 28 H s       :     0.986449  s :     0.986449
      pz      :     0.006653  p :     0.022403
      px      :     0.010090
      py      :     0.005660

 29 H s       :     0.996043  s :     0.996043
      pz      :     0.005470  p :     0.022815
      px      :     0.004117
      py      :     0.013229



                     *******************************
                     * LOEWDIN POPULATION ANALYSIS *
                     *******************************

----------------------
LOEWDIN ATOMIC CHARGES
----------------------
   0 C :   -0.075234
   1 C :   -0.184237
   2 P :    0.484357
   3 C :   -0.177381
   4 C :   -0.030576
   5 C :   -0.029305
   6 C :   -0.022514
   7 C :   -0.027968
   8 C :   -0.021985
   9 C :   -0.173945
  10 C :   -0.032591
  11 C :   -0.027755
  12 C :   -0.034660
  13 C :   -0.028320
  14 C :   -0.044064
  15 H :    0.027779
  16 H :    0.030562
  17 H :    0.028953
  18 H :    0.028969
  19 H :    0.020997
  20 H :    0.027506
  21 H :    0.030844
  22 H :    0.030607
  23 H :    0.030474
  24 H :    0.029622
  25 H :    0.028520
  26 H :    0.030102
  27 H :    0.028431
  28 H :    0.029145
  29 H :    0.023665

-------------------------------
LOEWDIN REDUCED ORBITAL CHARGES
-------------------------------
  0 C s       :     2.839167  s :     2.839167
      pz      :     1.074231  p :     3.165218
      px      :     1.035804
      py      :     1.055182
      dz2     :     0.014939  d :     0.070849
      dxz     :     0.006018
      dyz     :     0.018128
      dx2y2   :     0.012325
      dxy     :     0.019440

  1 C s       :     2.893138  s :     2.893138
      pz      :     1.087572  p :     3.217447
      px      :     1.058945
      py      :     1.070931
      dz2     :     0.020131  d :     0.073652
      dxz     :     0.006233
      dyz     :     0.015899
      dx2y2   :     0.011201
      dxy     :     0.020187

  2 P s       :     5.265155  s :     5.265155
      pz      :     3.366296  p :     9.017067
      px      :     2.800672
      py      :     2.850099
      dz2     :     0.028983  d :     0.233421
      dxz     :     0.034449
      dyz     :     0.053245
      dx2y2   :     0.043509
      dxy     :     0.073236

  3 C s       :     2.915109  s :     2.915109
      pz      :     1.084451  p :     3.170476
      px      :     1.061423
      py      :     1.024603
      dz2     :     0.024538  d :     0.091795
      dxz     :     0.027016
      dyz     :     0.018585
      dx2y2   :     0.009564
      dxy     :     0.012093

  4 C s       :     2.871692  s :     2.871692
      pz      :     1.034907  p :     3.069204
      px      :     1.043409
      py      :     0.990888
      dz2     :     0.021738  d :     0.089680
      dxz     :     0.022178
      dyz     :     0.012775
      dx2y2   :     0.015929
      dxy     :     0.017059

  5 C s       :     2.864341  s :     2.864341
      pz      :     1.046948  p :     3.076234
      px      :     1.028240
      py      :     1.001045
      dz2     :     0.021425  d :     0.088730
      dxz     :     0.026512
      dyz     :     0.016769
      dx2y2   :     0.012040
      dxy     :     0.011984

  6 C s       :     2.863967  s :     2.863967
      pz      :     1.055385  p :     3.068927
      px      :     1.027503
      py      :     0.986038
      dz2     :     0.025398  d :     0.089620
      dxz     :     0.026164
      dyz     :     0.016667
      dx2y2   :     0.008378
      dxy     :     0.013013

  7 C s       :     2.864305  s :     2.864305
      pz      :     1.032489  p :     3.074612
      px      :     1.045050
      py      :     0.997072
      dz2     :     0.021337  d :     0.089052
      dxz     :     0.022565
      dyz     :     0.013036
      dx2y2   :     0.015598
      dxy     :     0.016515

  8 C s       :     2.868431  s :     2.868431
      pz      :     1.045525  p :     3.063563
      px      :     1.027267
      py      :     0.990772
      dz2     :     0.021090  d :     0.089990
      dxz     :     0.027409
      dyz     :     0.017054
      dx2y2   :     0.012228
      dxy     :     0.012209

  9 C s       :     2.915522  s :     2.915522
      pz      :     1.006125  p :     3.167907
      px      :     1.079944
      py      :     1.081838
      dz2     :     0.009215  d :     0.090515
      dxz     :     0.012706
      dyz     :     0.015528
      dx2y2   :     0.025965
      dxy     :     0.027102

 10 C s       :     2.866397  s :     2.866397
      pz      :     0.986534  p :     3.077473
      px      :     1.038804
      py      :     1.052136
      dz2     :     0.006484  d :     0.088720
      dxz     :     0.010330
      dyz     :     0.014255
      dx2y2   :     0.027149
      dxy     :     0.030501

 11 C s       :     2.863250  s :     2.863250
      pz      :     0.986312  p :     3.074890
      px      :     1.052741
      py      :     1.035837
      dz2     :     0.008973  d :     0.089615
      dxz     :     0.015651
      dyz     :     0.008973
      dx2y2   :     0.030761
      dxy     :     0.025256

 12 C s       :     2.861884  s :     2.861884
      pz      :     0.990745  p :     3.082940
      px      :     1.035310
      py      :     1.056885
      dz2     :     0.008810  d :     0.089836
      dxz     :     0.009498
      dyz     :     0.014963
      dx2y2   :     0.026425
      dxy     :     0.030140

 13 C s       :     2.863674  s :     2.863674
      pz      :     0.982116  p :     3.075201
      px      :     1.032598
      py      :     1.060487
      dz2     :     0.006322  d :     0.089445
      dxz     :     0.009943
      dyz     :     0.015129
      dx2y2   :     0.027988
      dxy     :     0.030062

 14 C s       :     2.864609  s :     2.864609
      pz      :     0.995537  p :     3.089961
      px      :     1.054786
      py      :     1.039639
      dz2     :     0.008453  d :     0.089494
      dxz     :     0.015278
      dyz     :     0.008485
      dx2y2   :     0.032406
      dxy     :     0.024872

 15 H s       :     0.906041  s :     0.906041
      pz      :     0.036133  p :     0.066179
      px      :     0.013360
      py      :     0.016687

 16 H s       :     0.903526  s :     0.903526
      pz      :     0.023988  p :     0.065912
      px      :     0.013314
      py      :     0.028611

 17 H s       :     0.904337  s :     0.904337
      pz      :     0.014464  p :     0.066710
      px      :     0.031141
      py      :     0.021106

 18 H s       :     0.900644  s :     0.900644
      pz      :     0.014657  p :     0.070388
      px      :     0.030175
      py      :     0.025556

 19 H s       :     0.907520  s :     0.907520
      pz      :     0.040336  p :     0.071483
      px      :     0.013590
      py      :     0.017557

 20 H s       :     0.903330  s :     0.903330
      pz      :     0.039272  p :     0.069164
      px      :     0.012026
      py      :     0.017867

 21 H s       :     0.900937  s :     0.900937
      pz      :     0.023282  p :     0.068219
      px      :     0.030099
      py      :     0.014838

 22 H s       :     0.901301  s :     0.901301
      pz      :     0.015124  p :     0.068092
      px      :     0.029430
      py      :     0.023538

 23 H s       :     0.901251  s :     0.901251
      pz      :     0.037922  p :     0.068275
      px      :     0.012413
      py      :     0.017940

 24 H s       :     0.901498  s :     0.901498
      pz      :     0.023679  p :     0.068880
      px      :     0.030662
      py      :     0.014539

 25 H s       :     0.902449  s :     0.902449
      pz      :     0.020158  p :     0.069031
      px      :     0.030793
      py      :     0.018080

 26 H s       :     0.901893  s :     0.901893
      pz      :     0.015606  p :     0.068006
      px      :     0.012135
      py      :     0.040265

 27 H s       :     0.903305  s :     0.903305
      pz      :     0.015757  p :     0.068264
      px      :     0.031857
      py      :     0.020650

 28 H s       :     0.902824  s :     0.902824
      pz      :     0.019645  p :     0.068031
      px      :     0.030812
      py      :     0.017574

 29 H s       :     0.906530  s :     0.906530
      pz      :     0.016188  p :     0.069805
      px      :     0.012491
      py      :     0.041126



                      *****************************
                      * MAYER POPULATION ANALYSIS *
                      *****************************

  NA   - Mulliken gross atomic population
  ZA   - Total nuclear charge
  QA   - Mulliken gross atomic charge
  VA   - Mayer's total valence
  BVA  - Mayer's bonded valence
  FA   - Mayer's free valence

  ATOM       NA         ZA         QA         VA         BVA        FA
  0 C      6.0233     6.0000    -0.0233     3.9951     3.9951    -0.0000
  1 C      6.1918     6.0000    -0.1918     4.0162     4.0162    -0.0000
  2 P     14.7898    15.0000     0.2102     3.0378     3.0378    -0.0000
  3 C      6.1332     6.0000    -0.1332     3.7990     3.7990    -0.0000
  4 C      5.9848     6.0000     0.0152     3.8561     3.8561    -0.0000
  5 C      5.9950     6.0000     0.0050     3.8460     3.8460    -0.0000
  6 C      5.9871     6.0000     0.0129     3.8255     3.8255    -0.0000
  7 C      5.9891     6.0000     0.0109     3.8474     3.8474    -0.0000
  8 C      5.9804     6.0000     0.0196     3.8656     3.8656     0.0000
  9 C      6.0802     6.0000    -0.0802     3.7631     3.7631    -0.0000
 10 C      6.0041     6.0000    -0.0041     3.8952     3.8952    -0.0000
 11 C      5.9909     6.0000     0.0091     3.8628     3.8628    -0.0000
 12 C      5.9952     6.0000     0.0048     3.8325     3.8325    -0.0000
 13 C      5.9859     6.0000     0.0141     3.8555     3.8555    -0.0000
 14 C      6.0249     6.0000    -0.0249     3.9035     3.9035    -0.0000
 15 H      0.9645     1.0000     0.0355     0.9933     0.9933    -0.0000
 16 H      0.9680     1.0000     0.0320     0.9860     0.9860     0.0000
 17 H      0.9573     1.0000     0.0427     0.9957     0.9957     0.0000
 18 H      0.9362     1.0000     0.0638     0.9707     0.9707    -0.0000
 19 H      0.9567     1.0000     0.0433     0.9853     0.9853    -0.0000
 20 H      1.0072     1.0000    -0.0072     0.9968     0.9968    -0.0000
 21 H      1.0027     1.0000    -0.0027     0.9784     0.9784    -0.0000
 22 H      1.0022     1.0000    -0.0022     0.9782     0.9782    -0.0000
 23 H      1.0047     1.0000    -0.0047     0.9785     0.9785    -0.0000
 24 H      0.9985     1.0000     0.0015     0.9904     0.9904     0.0000
 25 H      1.0046     1.0000    -0.0046     0.9907     0.9907     0.0000
 26 H      1.0062     1.0000    -0.0062     0.9779     0.9779    -0.0000
 27 H      1.0076     1.0000    -0.0076     0.9781     0.9781     0.0000
 28 H      1.0089     1.0000    -0.0089     0.9776     0.9776    -0.0000
 29 H      1.0189     1.0000    -0.0189     0.9931     0.9931    -0.0000

  Mayer bond orders larger than 0.100000
B(  0-C ,  1-C ) :   1.0925 B(  0-C , 15-H ) :   0.9633 B(  0-C , 16-H ) :   0.9602 
B(  0-C , 17-H ) :   0.9663 B(  1-C ,  2-P ) :   0.9842 B(  1-C , 18-H ) :   0.9300 
B(  1-C , 19-H ) :   0.9213 B(  2-P ,  3-C ) :   0.9410 B(  2-P ,  9-C ) :   0.9224 
B(  3-C ,  4-C ) :   1.3708 B(  3-C ,  8-C ) :   1.3505 B(  4-C ,  5-C ) :   1.3808 
B(  4-C , 20-H ) :   0.9829 B(  5-C ,  6-C ) :   1.3869 B(  5-C , 21-H ) :   0.9814 
B(  6-C ,  7-C ) :   1.3692 B(  6-C , 22-H ) :   0.9805 B(  7-C ,  8-C ) :   1.4037 
B(  7-C , 23-H ) :   0.9796 B(  8-C , 24-H ) :   0.9747 B(  9-C , 10-C ) :   1.3606 
B(  9-C , 14-C ) :   1.3663 B( 10-C , 11-C ) :   1.4139 B( 10-C , 25-H ) :   0.9760 
B( 11-C , 12-C ) :   1.3714 B( 11-C , 26-H ) :   0.9801 B( 12-C , 13-C ) :   1.3845 
B( 12-C , 27-H ) :   0.9803 B( 13-C , 14-C ) :   1.3962 B( 13-C , 28-H ) :   0.9775 
B( 14-C , 29-H ) :   0.9753 

-------
TIMINGS
-------

Total SCF time: 0 days 0 hours 0 min 8 sec 

Total time                  ....       8.228 sec
Sum of individual times     ....       8.166 sec  ( 99.2%)

SCF preparation             ....       0.101 sec  (  1.2%)
Fock matrix formation       ....       7.389 sec  ( 89.8%)
  Startup                   ....       0.039 sec  (  0.5% of F)
  Split-RI-J                ....       2.299 sec  ( 31.1% of F)
  XC integration            ....       4.888 sec  ( 66.2% of F)
    Basis function eval.    ....       1.372 sec  ( 28.1% of XC)
    Density eval.           ....       1.337 sec  ( 27.4% of XC)
    XC-Functional eval.     ....       0.153 sec  (  3.1% of XC)
    XC-Potential eval.      ....       1.152 sec  ( 23.6% of XC)
Diagonalization             ....       0.000 sec  (  0.0%)
Density matrix formation    ....       0.091 sec  (  1.1%)
Total Energy calculation    ....       0.038 sec  (  0.5%)
Population analysis         ....       0.060 sec  (  0.7%)
Orbital Transformation      ....       0.052 sec  (  0.6%)
Orbital Orthonormalization  ....       0.000 sec  (  0.0%)
DIIS solution               ....       0.244 sec  (  3.0%)
SOSCF solution              ....       0.191 sec  (  2.3%)
Finished LeanSCF after   8.3 sec

Maximum memory used throughout the entire LEANSCF-calculation: 28.8 MB


-------------------------------------------------------------------------------
                          DFT DISPERSION CORRECTION                            
                                                                               
                              DFTD3 V3.1  Rev 1                                
                          USING Becke-Johnson damping                          
-------------------------------------------------------------------------------
The BP86 functional is recognized
Active option DFTDOPT                   ...         4   

molecular C6(AA) [au] = 11487.730184 


            DFT-D V3
 parameters
 s6 scaling factor         :     1.0000 
 a1 scaling factor         :     0.3946 
 s8 scaling factor         :     3.2822 
 a2 scaling factor         :     4.8516 
 ad hoc parameters k1-k3   :    16.0000     1.3333    -4.0000 

 Edisp/kcal,au: -40.514769702218  -0.064564388356 
 E6   /kcal   : -14.700688523 
 E8   /kcal   : -25.814081179 
 % E8         :  63.715236120 

-------------------------   ----------------
Dispersion correction           -0.064564388
-------------------------   ----------------


-------------------------   --------------------
FINAL SINGLE POINT ENERGY      -883.469454569497
-------------------------   --------------------



           ************************************************************
           *        Program running with 6 parallel MPI-processes     *
           *              working on a common directory               *
           ************************************************************
------------------------------------------------------------------------------
                         ORCA SCF GRADIENT CALCULATION
------------------------------------------------------------------------------

Nuc. rep. gradient        (SHARK) ... done (  0.0 sec)
HCore & Overlap gradient  (SHARK) ... done (  0.2 sec)
Split-RIJ-J gradient      (SHARK) ... done (  0.6 sec)
XC gradient                       ... done (  2.8 sec)
Dispersion correction             ... done (  0.1 sec)

-------------------
DISPERSION GRADIENT
-------------------

   1   C   :   -0.000154285    0.000768921   -0.000091408
   2   C   :   -0.000009880    0.000770426   -0.000101638
   3   P   :    0.000097142    0.000338910    0.000673062
   4   C   :   -0.000600950   -0.000307180    0.000080222
[...]
      px      :     1.034586
      py      :     1.002080
      dz2     :     0.018769  d :     0.085854
      dxz     :     0.024458
      dyz     :     0.014918
      dx2y2   :     0.015215
      dxy     :     0.012494

  6 C s       :     2.873997  s :     2.873997
      pz      :     1.038202  p :     3.068203
      px      :     1.039201
      py      :     0.990801
      dz2     :     0.020069  d :     0.085696
      dxz     :     0.025172
      dyz     :     0.013663
      dx2y2   :     0.012022
      dxy     :     0.014770

  7 C s       :     2.873189  s :     2.873189
      pz      :     1.021189  p :     3.071609
      px      :     1.055267
      py      :     0.995154
      dz2     :     0.016581  d :     0.086113
      dxz     :     0.022751
      dyz     :     0.011043
      dx2y2   :     0.018204
      dxy     :     0.017534

  8 C s       :     2.876215  s :     2.876215
      pz      :     1.031831  p :     3.065551
      px      :     1.038553
      py      :     0.995168
      dz2     :     0.018835  d :     0.087261
      dxz     :     0.024623
      dyz     :     0.015443
      dx2y2   :     0.015520
      dxy     :     0.012840

  9 C s       :     2.924372  s :     2.924372
      pz      :     1.021958  p :     3.161997
      px      :     1.069801
      py      :     1.070239
      dz2     :     0.011747  d :     0.087612
      dxz     :     0.014431
      dyz     :     0.017718
      dx2y2   :     0.021506
      dxy     :     0.022209

 10 C s       :     2.874481  s :     2.874481
      pz      :     0.993915  p :     3.071661
      px      :     1.030225
      py      :     1.047521
      dz2     :     0.007877  d :     0.086805
      dxz     :     0.012963
      dyz     :     0.015458
      dx2y2   :     0.023956
      dxy     :     0.026551

 11 C s       :     2.872379  s :     2.872379
      pz      :     0.999045  p :     3.071341
      px      :     1.042428
      py      :     1.029868
      dz2     :     0.010680  d :     0.086438
      dxz     :     0.016535
      dyz     :     0.012139
      dx2y2   :     0.025439
      dxy     :     0.021645

 12 C s       :     2.872907  s :     2.872907
      pz      :     1.003076  p :     3.075691
      px      :     1.025285
      py      :     1.047330
      dz2     :     0.011247  d :     0.085657
      dxz     :     0.011281
      dyz     :     0.016803
      dx2y2   :     0.021583
      dxy     :     0.024742

 13 C s       :     2.872572  s :     2.872572
      pz      :     0.992976  p :     3.071831
      px      :     1.027903
      py      :     1.050952
      dz2     :     0.007732  d :     0.086442
      dxz     :     0.012581
      dyz     :     0.015940
      dx2y2   :     0.024337
      dxy     :     0.025852

 14 C s       :     2.873577  s :     2.873577
      pz      :     1.005491  p :     3.087042
      px      :     1.046650
      py      :     1.034901
      dz2     :     0.010354  d :     0.087011
      dxz     :     0.016803
      dyz     :     0.012316
      dx2y2   :     0.026332
      dxy     :     0.021206

 15 H s       :     0.906515  s :     0.906515
      pz      :     0.035943  p :     0.063851
      px      :     0.012610
      py      :     0.015299

 16 H s       :     0.903994  s :     0.903994
      pz      :     0.022556  p :     0.063659
      px      :     0.012377
      py      :     0.028727

 17 H s       :     0.902916  s :     0.902916
      pz      :     0.013686  p :     0.064924
      px      :     0.029370
      py      :     0.021868

 18 H s       :     0.903034  s :     0.903034
      pz      :     0.014193  p :     0.067756
      px      :     0.029162
      py      :     0.024401

 19 H s       :     0.906972  s :     0.906972
      pz      :     0.039574  p :     0.068678
      px      :     0.012477
      py      :     0.016627

 20 H s       :     0.904065  s :     0.904065
      pz      :     0.035600  p :     0.066902
      px      :     0.011180
      py      :     0.020121

 21 H s       :     0.900772  s :     0.900772
      pz      :     0.018920  p :     0.065884
      px      :     0.034021
      py      :     0.012943

 22 H s       :     0.901127  s :     0.901127
      pz      :     0.015964  p :     0.065865
      px      :     0.028543
      py      :     0.021357

 23 H s       :     0.900957  s :     0.900957
      pz      :     0.034505  p :     0.065882
      px      :     0.011557
      py      :     0.019820

 24 H s       :     0.898537  s :     0.898537
      pz      :     0.018500  p :     0.067602
      px      :     0.036245
      py      :     0.012857

 25 H s       :     0.901829  s :     0.901829
      pz      :     0.023442  p :     0.066552
      px      :     0.026889
      py      :     0.016222

 26 H s       :     0.900916  s :     0.900916
      pz      :     0.016240  p :     0.065731
      px      :     0.011817
      py      :     0.037674

 27 H s       :     0.901795  s :     0.901795
      pz      :     0.014897  p :     0.065991
      px      :     0.031296
      py      :     0.019798

 28 H s       :     0.901948  s :     0.901948
      pz      :     0.023292  p :     0.065772
      px      :     0.026246
      py      :     0.016234

 29 H s       :     0.904130  s :     0.904130
      pz      :     0.017144  p :     0.067903
      px      :     0.012257
      py      :     0.038502



                      *****************************
                      * MAYER POPULATION ANALYSIS *
                      *****************************

  NA   - Mulliken gross atomic population
  ZA   - Total nuclear charge
  QA   - Mulliken gross atomic charge
  VA   - Mayer's total valence
  BVA  - Mayer's bonded valence
  FA   - Mayer's free valence

  ATOM       NA         ZA         QA         VA         BVA        FA
  0 C      6.0354     6.0000    -0.0354     3.9831     3.9831    -0.0000
  1 C      6.2099     6.0000    -0.2099     4.0072     4.0072    -0.0000
  2 P     14.7812    15.0000     0.2188     3.0147     3.0147    -0.0000
  3 C      6.1479     6.0000    -0.1479     3.8277     3.8277    -0.0000
  4 C      5.9901     6.0000     0.0099     3.8605     3.8605    -0.0000
  5 C      6.0030     6.0000    -0.0030     3.8487     3.8487    -0.0000
  6 C      5.9965     6.0000     0.0035     3.8278     3.8278    -0.0000
  7 C      5.9976     6.0000     0.0024     3.8420     3.8420    -0.0000
  8 C      5.9818     6.0000     0.0182     3.8724     3.8724    -0.0000
  9 C      6.1278     6.0000    -0.1278     3.7942     3.7942    -0.0000
 10 C      5.9921     6.0000     0.0079     3.8845     3.8845    -0.0000
 11 C      6.0018     6.0000    -0.0018     3.8661     3.8661    -0.0000
 12 C      5.9997     6.0000     0.0003     3.8302     3.8302    -0.0000
 13 C      5.9950     6.0000     0.0050     3.8461     3.8461    -0.0000
 14 C      6.0226     6.0000    -0.0226     3.8961     3.8961    -0.0000
 15 H      0.9610     1.0000     0.0390     0.9901     0.9901    -0.0000
 16 H      0.9620     1.0000     0.0380     0.9852     0.9852    -0.0000
 17 H      0.9497     1.0000     0.0503     0.9974     0.9974    -0.0000
 18 H      0.9316     1.0000     0.0684     0.9663     0.9663    -0.0000
 19 H      0.9457     1.0000     0.0543     0.9813     0.9813    -0.0000
 20 H      1.0000     1.0000     0.0000     0.9942     0.9942    -0.0000
 21 H      0.9953     1.0000     0.0047     0.9789     0.9789    -0.0000
 22 H      0.9947     1.0000     0.0053     0.9787     0.9787    -0.0000
 23 H      0.9967     1.0000     0.0033     0.9789     0.9789    -0.0000
 24 H      0.9864     1.0000     0.0136     0.9907     0.9907    -0.0000
 25 H      0.9959     1.0000     0.0041     0.9908     0.9908    -0.0000
 26 H      0.9961     1.0000     0.0039     0.9787     0.9787    -0.0000
 27 H      0.9969     1.0000     0.0031     0.9788     0.9788    -0.0000
 28 H      0.9995     1.0000     0.0005     0.9784     0.9784    -0.0000
 29 H      1.0061     1.0000    -0.0061     0.9965     0.9965    -0.0000

  Mayer bond orders larger than 0.100000
B(  0-C ,  1-C ) :   1.0859 B(  0-C , 15-H ) :   0.9628 B(  0-C , 16-H ) :   0.9605 
B(  0-C , 17-H ) :   0.9644 B(  1-C ,  2-P ) :   0.9827 B(  1-C , 18-H ) :   0.9306 
B(  1-C , 19-H ) :   0.9215 B(  2-P ,  3-C ) :   0.9311 B(  2-P ,  9-C ) :   0.9194 
B(  3-C ,  4-C ) :   1.3765 B(  3-C ,  8-C ) :   1.3695 B(  4-C ,  5-C ) :   1.3806 
B(  4-C , 20-H ) :   0.9741 B(  5-C ,  6-C ) :   1.3891 B(  5-C , 21-H ) :   0.9765 
B(  6-C ,  7-C ) :   1.3687 B(  6-C , 22-H ) :   0.9757 B(  7-C ,  8-C ) :   1.4002 
B(  7-C , 23-H ) :   0.9745 B(  8-C , 24-H ) :   0.9652 B(  9-C , 10-C ) :   1.3583 
B(  9-C , 14-C ) :   1.3805 B( 10-C , 11-C ) :   1.4212 B( 10-C , 25-H ) :   0.9707 
B( 11-C , 12-C ) :   1.3652 B( 11-C , 26-H ) :   0.9755 B( 12-C , 13-C ) :   1.3908 
B( 12-C , 27-H ) :   0.9758 B( 13-C , 14-C ) :   1.3814 B( 13-C , 28-H ) :   0.9729 
B( 14-C , 29-H ) :   0.9682 

-------
TIMINGS
-------

Total SCF time: 0 days 0 hours 0 min 4 sec 

Total time                  ....       4.435 sec
Sum of individual times     ....       4.364 sec  ( 98.4%)

SCF preparation             ....       0.098 sec  (  2.2%)
Fock matrix formation       ....       3.904 sec  ( 88.0%)
  Startup                   ....       0.023 sec  (  0.6% of F)
  Split-RI-J                ....       1.302 sec  ( 33.4% of F)
  XC integration            ....       2.486 sec  ( 63.7% of F)
    Basis function eval.    ....       0.780 sec  ( 31.4% of XC)
    Density eval.           ....       0.689 sec  ( 27.7% of XC)
    XC-Functional eval.     ....       0.079 sec  (  3.2% of XC)
    XC-Potential eval.      ....       0.513 sec  ( 20.6% of XC)
Diagonalization             ....       0.000 sec  (  0.0%)
Density matrix formation    ....       0.048 sec  (  1.1%)
Total Energy calculation    ....       0.019 sec  (  0.4%)
Population analysis         ....       0.066 sec  (  1.5%)
Orbital Transformation      ....       0.024 sec  (  0.5%)
Orbital Orthonormalization  ....       0.000 sec  (  0.0%)
DIIS solution               ....       0.030 sec  (  0.7%)
SOSCF solution              ....       0.175 sec  (  3.9%)
Finished LeanSCF after   4.5 sec

Maximum memory used throughout the entire LEANSCF-calculation: 29.9 MB


-------------------------------------------------------------------------------
                          DFT DISPERSION CORRECTION                            
                                                                               
                              DFTD3 V3.1  Rev 1                                
                          USING Becke-Johnson damping                          
-------------------------------------------------------------------------------
The BP86 functional is recognized
Active option DFTDOPT                   ...         4   

molecular C6(AA) [au] = 11512.643512 


            DFT-D V3
 parameters
 s6 scaling factor         :     1.0000 
 a1 scaling factor         :     0.3946 
 s8 scaling factor         :     3.2822 
 a2 scaling factor         :     4.8516 
 ad hoc parameters k1-k3   :    16.0000     1.3333    -4.0000 

 Edisp/kcal,au: -40.639432025439  -0.064763050392 
 E6   /kcal   : -14.748895038 
 E8   /kcal   : -25.890536987 
 % E8         :  63.707920354 

-------------------------   ----------------
Dispersion correction           -0.064763050
-------------------------   ----------------


-------------------------   --------------------
FINAL SINGLE POINT ENERGY      -883.474922798581
-------------------------   --------------------

                                *** OPTIMIZATION RUN DONE ***



           ************************************************************
           *        Program running with 6 parallel MPI-processes     *
           *              working on a common directory               *
           ************************************************************

------------------------------------------------------------------------------
                              ORCA PROPERTY CALCULATIONS
------------------------------------------------------------------------------

GBWName                                 ... data/geom_opt_P_BP86/69082/69082.gbw
Number of atoms                         ...     30
Number of basis functions               ...    289
Max core memory                         ...   1024 MB

Electric properties:
Dipole moment                           ... YES
Quadrupole moment                       ...  NO
Static polarizability (Dipole/Dipole)   ...  NO
Static polarizability (Dipole/Quad.)    ...  NO
Static polarizability (Quad./Quad.)     ...  NO
Static polarizability (Velocity)        ...  NO

Atomic electric properties:
Dipole moment                           ...  NO
Quadrupole moment                       ...  NO
Static polarizability                   ...  NO

Choice of electric origin               ... Center of mass
Position of electric origin             ...     0.156942    -0.217601     0.421969

General magnetic properties:
Magnetizability                         ...  NO

EPR properties:
g-Tensor (aka g-matrix)                 ...  NO
Zero-Field splitting spin-orbit         ...  NO
Zero-field splitting spin-spin          ...  NO
Hyperfine couplings                     ...  NO (   0 nuclei)
Quadrupole couplings                    ...  NO (   0 nuclei)
Contact density                         ...  NO (   0 nuclei)

NMR properties:
Chemical shifts                         ...  NO (   0 nuclei)
Spin-rotation constants                 ...  NO (   0 nuclei)
Spin-spin couplings                     ...  NO (   0 nuclei,    0 pairs)

Choice of magnetic origin               ... GIAO
Position of magnetic origin             ...     0.000000     0.000000     0.000000

Properties with geometric perturbations:
SCF Hessian                             ...  NO
IR spectrum                             ...  NO
VCD spectrum                            ...  NO
X-ray spectroscopy properties:
SCF XES/XAS/RIXS spectra                ...  NO


-------------
DIPOLE MOMENT
-------------

Method             : SCF
Type of density    : Electron Density
Multiplicity       :   1
Irrep              :   0
Energy             :  -883.4101597481883346 Eh
Relativity type    : 
Basis              : AO
                                X                 Y                 Z
Electronic contribution:      2.424948389      -4.321564073       4.670738251
Nuclear contribution   :     -2.538162857       4.269527886      -5.172163710
                        -----------------------------------------
Total Dipole Moment    :     -0.113214468      -0.052036187      -0.501425459
                        -----------------------------------------
Magnitude (a.u.)       :      0.516674725
Magnitude (Debye)      :      1.313282782



--------------------
Rotational spectrum 
--------------------
 
Rotational constants in cm-1:             0.027611             0.012762             0.010137 
Rotational constants in MHz :           827.755000           382.609626           303.891238 

Dipole components along the rotational axes: 
x,y,z [a.u.] :    -0.116303    -0.123833    -0.487947 
x,y,z [Debye]:    -0.295618    -0.314758    -1.240262 

 

Dipole moment calculation done in   0.0 sec 

Maximum memory used throughout the entire PROP-calculation: 14.8 MB

--------------------------------
SUGGESTED CITATIONS FOR THIS RUN
--------------------------------

Below you find a list of papers that are relevant to this ORCA run
We neither can nor want to force you to cite these papers, but we appreciate if you do
You receive ORCA, which is the product of decades of hard work by many enthusiastic individuals, for free
The only thing we kindly ask in return is that you cite our papers,
We deeply appreciate it, if you show your appreciation for ORCA by not just citing the generic ORCA reference.

Please note that relegating all ORCA citations to the supporting information does *not* help us.
SI sections are not indexed - citations you put there will not count into any citation statistics
But we need these citations in order to attract the funding resources that allow us to do what we are doing

Therefore, if you are a happy ORCA user, please consider citing a few of the papers listed below in the main body of your paper

In addition to the list printed below, the program has created the file data/geom_opt_P_BP86/69082/69082.bibtex that contains the list in bibtex format
You can import this file easily into all common literature databanks and citation aid programs


List of essential papers. We consider these as the minimum necessary citations

  1. Neese,F.
     Software update: the ORCA program system, version 5.0
     WIRES Comput. Molec. Sci., 2022 12(1)e1606
     doi.org/10.1002/wcms.1606

List of papers to cite with high priority. The work reported in these papers was absolutely
necessary for this run to complete.
Our perspective: the developers of density functionals and basis sets usually get cited in chemistry papers
Good! But without the algorithms to do something with them, the functionals or basis sets would not do anything.
Hence, in our opinion, the algorithm design and method developments papers are equally worthy of getting cited

  1. Neese,F.
     An improvement of the resolution of the identity approximation for the formation of the Coulomb matrix
     J. Comp. Chem., 2003 24(14)1740-1747
     doi.org/10.1002/jcc.10318
  2. Neese,F.
     The SHARK Integral Generation and Digestion System
     J. Comp. Chem., 2022  1-16
     doi.org/10.1002/jcc.26942
  3. Grimme,S.; Antony,J.; Ehrlich,S.; Krieg,H.
     A consistent and accurate ab initio parametrization of density functional dispersion correction (DFT-D) for the 94 elements H-Pu
     J. Chem. Phys., 2010 132 154104-XXXX
     doi.org/10.1063/1.3382344
  4. Grimme,S.; Ehrlich,S.; Goerigk,L.
     Effect of the damping function in dispersion corrected density functional theory
     J. Comput. Chem., 2011 32(7)1456-1465
     doi.org/10.1002/jcc.21759

List of suggested additional citations. These are papers that are important in the 'surrounding' of 
of this run, or papers that preceded the highly important papers. If you like your results we are grateful for a citation.

  1. Neese,F.
     The ORCA program system
     WIRES Comput. Molec. Sci., 2012 2(1)73-78
     doi.org/10.1002/wcms.81
  2. Neese,F.
     Software update: the ORCA program system, version 4.0
     WIRES Comput. Molec. Sci., 2018 8(1)1-6
     doi.org/10.1002/wcms.1327
  3. Neese,F.; Wennmohs,F.; Becker,U.; Riplinger,C.
     The ORCA quantum chemistry program package
     J. Chem. Phys., 2020 152 Art. No. L224108
     doi.org/10.1063/5.0004608

List of optional additional citations

  1. Neese,F.
     Approximate second-order SCF convergence for spin unrestricted wavefunctions
     Chem. Phys. Lett., 2000 325(1-3)93-98
     doi.org/10.1016/s0009-2614(00)00662-x

Timings for individual modules:

Sum of individual times          ...      119.122 sec (=   1.985 min)
Startup calculation              ...       10.328 sec (=   0.172 min)   8.7 %
SCF iterations                   ...       69.789 sec (=   1.163 min)  58.6 %
Property calculations            ...        0.158 sec (=   0.003 min)   0.1 %
SCF Gradient evaluation          ...       38.719 sec (=   0.645 min)  32.5 %
Geometry relaxation              ...        0.128 sec (=   0.002 min)   0.1 %
                             ****ORCA TERMINATED NORMALLY****
TOTAL RUN TIME: 0 days 0 hours 2 minutes 1 seconds 115 msec
