
                                 *****************
                                 * O   R   C   A *
                                 *****************

                                            #,                                       
                                            ###                                      
                                            ####                                     
                                            #####                                    
                                            ######                                   
                                           ########,                                 
                                     ,,################,,,,,                         
                               ,,#################################,,                 
                          ,,##########################################,,             
                       ,#########################################, ''#####,          
                    ,#############################################,,   '####,        
                  ,##################################################,,,,####,       
                ,###########''''           ''''###############################       
              ,#####''   ,,,,##########,,,,          '''####'''          '####       
            ,##' ,,,,###########################,,,                        '##       
           ' ,,###''''                  '''############,,,                           
         ,,##''                                '''############,,,,        ,,,,,,###''
      ,#''                                            '''#######################'''  
     '                                                          ''''####''''         
             ,#######,   #######,   ,#######,      ##                                
            ,#'     '#,  ##    ##  ,#'     '#,    #''#        ,####,   ,####,        
            ##       ##  ##   ,#'  ##            #'  '#       #'       #'  '#        
            ##       ##  #######   ##           ,######,      #####,   #    #        
            '#,     ,#'  ##    ##  '#,     ,#' ,#      #,     #,   #   #,  ,#        
             '#######'   ##     ##  '#######'  #'      '#     '####' # '####'        



                #########################################################
                #                        -***-                          #
                #          Department of theory and spectroscopy        #
                #                                                       #
                #                      Frank Neese                      #
                #                                                       #
                #     Directorship, Architecture, Infrastructure        #
                #                    SHARK, DRIVERS                     #
                #        Core code/Algorithms in most modules           #
                #                                                       #
                #        Max Planck Institute fuer Kohlenforschung      #
                #                Kaiser Wilhelm Platz 1                 #
                #                 D-45470 Muelheim/Ruhr                 #
                #                      Germany                          #
                #                                                       #
                #                  All rights reserved                  #
                #                        -***-                          #
                #########################################################


                         Program Version 6.0.0  -   RELEASE   -


 With contributions from (in alphabetic order):
   Daniel Aravena         : Magnetic Suceptibility
   Michael Atanasov       : Ab Initio Ligand Field Theory (pilot matlab implementation)
   Alexander A. Auer      : GIAO ZORA, VPT2 properties, NMR spectrum
   Ute Becker             : All parallelization in ORCA, NUMFREQ, NUMCALC
   Giovanni Bistoni       : ED, misc. LED, open-shell LED, HFLD
   Martin Brehm           : Molecular dynamics
   Dmytro Bykov           : pre 5.0 version of the SCF Hessian
   Marcos Casanova-Páez   : Triplet and SCS-CIS(D). UHF-(DLPNO)-IP/EA/STEOM-CCSD. UHF-CVS-IP/STEOM-CCSD
   Vijay G. Chilkuri      : MRCI spin determinant printing, contributions to CSF-ICE
   Pauline Colinet        : FMM embedding
   Dipayan Datta          : RHF DLPNO-CCSD density
   Achintya Kumar Dutta   : EOM-CC, STEOM-CC
   Nicolas Foglia         : Exact transition moments, OPA infrastructure, MCD improvements
   Dmitry Ganyushin       : Spin-Orbit,Spin-Spin,Magnetic field MRCI
   Miquel Garcia          : C-PCM and meta-GGA Hessian, CCSD/C-PCM, Gaussian charge scheme
   Tiago L. C. Gouveia    : GS-ROHF, GS-ROCIS
   Yang Guo               : DLPNO-NEVPT2, F12-NEVPT2, CIM, IAO-localization
   Andreas Hansen         : Spin unrestricted coupled pair/coupled cluster methods
   Ingolf Harden          : AUTO-CI MPn and infrastructure 
   Benjamin Helmich-Paris : MC-RPA, TRAH-(SCF,CASSCF), AVAS, COSX integrals, SCF dyn. polar.
   Lee Huntington         : MR-EOM, pCC
   Robert Izsak           : Overlap fitted RIJCOSX, COSX-SCS-MP3, EOM
   Riya Kayal             : Wick's Theorem for AUTO-CI, AUTO-CI UHF-CCSDT
   Emily Kempfer          : AUTO-CI, RHF CISDT and CCSDT
   Christian Kollmar      : KDIIS, OOCD, Brueckner-CCSD(T), CCSD density, CASPT2, CASPT2-K, improved NEVPT2
   Axel Koslowski         : Symmetry handling
   Simone Kossmann        : Meta GGA functionals, TD-DFT gradient, OOMP2, (MP2 Hessian; deprecated post 5.0)
   Lucas Lang             : DCDCAS
   Marvin Lechner         : AUTO-CI (C++ implementation), FIC-MRCC
   Spencer Leger          : CASSCF response
   Dagmar Lenk            : GEPOL surface, SMD, ORCA-2-JSON
   Dimitrios Liakos       : Extrapolation schemes; Compound Job, initial MDCI parallelization
   Dimitrios Manganas     : Further ROCIS development; embedding schemes. LFT, Crystal Embedding
   Dimitrios Pantazis     : SARC Basis sets
   Anastasios Papadopoulos: AUTO-CI, single reference methods and gradients
   Taras Petrenko         : pre 6.0 DFT Hessian and TD-DFT gradient, (ASA, deprecated), ECA, 1-Electron XAS/XES, NRVS
   Peter Pinski           : DLPNO-MP2, DLPNO-MP2 Gradient
   Christoph Reimann      : Effective Core Potentials
   Marius Retegan         : Local ZFS, SOC
   Christoph Riplinger    : Optimizer, TS searches, QM/MM, DLPNO-CCSD(T), (RO)-DLPNO pert. Triples
   Michael Roemelt        : Original ROCIS implementation
   Masaaki Saitow         : Open-shell DLPNO-CCSD energy and density
   Barbara Sandhoefer     : DKH picture change effects
   Kantharuban Sivalingam : CASSCF convergence/infrastructure, NEVPT2 and variants, FIC-MRCI
   Bernardo de Souza      : ESD, SOC TD-DFT
   Georgi Stoychev        : AutoAux, RI-MP2 NMR, DLPNO-MP2 response, X2C
   Van Anh Tran           : RI-MP2 g-tensors
   Willem Van den Heuvel  : Paramagnetic NMR
   Zikuan Wang            : NOTCH, Electric field optimization 
   Frank Wennmohs         : Technical directorship and infrastructure
   Hang Xu                : AUTO-CI-Response properties 


 We gratefully acknowledge several colleagues who have allowed us to
 interface, adapt or use parts of their codes:
   Stefan Grimme, W. Hujo, H. Kruse, P. Pracht,  : VdW corrections, initial TS optimization,
                  C. Bannwarth, S. Ehlert,         DFT functionals, gCP, sTDA/sTD-DF
                  L. Wittmann, M. Mueller
   Ed Valeev, F. Pavosevic, A. Kumar             : LibInt (2-el integral package), F12 methods
   Garnet Chan, S. Sharma, J. Yang, R. Olivares  : DMRG
   Ulf Ekstrom                                   : XCFun DFT Library
   Mihaly Kallay                                 : mrcc  (arbitrary order and MRCC methods)
   Frank Weinhold                                : gennbo (NPA and NBO analysis)
   Simon Mueller                                 : openCOSMO-RS
   Christopher J. Cramer and Donald G. Truhlar   : smd solvation model
   Lars Goerigk                                  : TD-DFT with DH, B97 family of functionals
   V. Asgeirsson, H. Jonsson                     : NEB implementation
   FAccTs GmbH                                   : IRC, NEB, NEB-TS, DLPNO-Multilevel, CI-OPT
                                                   MM, QMMM, 2- and 3-layer-ONIOM, Crystal-QMMM,
                                                   LR-CPCM, SF, NACMEs, symmetry and pop. for TD-DFT,
                                                   nearIR, NL-DFT gradient (VV10), updates on ESD,
                                                   ML-optimized integration grids, MBIS, APM,
                                                   GOAT, DOCKER, SOLVATOR, interface openCOSMO-RS
   S Lehtola, MJT Oliveira, MAL Marques          : LibXC Library
   Liviu Ungur et al                             : ANISO software


 Your calculation uses the libint2 library for the computation of 2-el integrals
 For citations please refer to: http://libint.valeyev.net

 Your ORCA version has been built with support for libXC version: 6.2.2
 For citations please refer to: https://libxc.gitlab.io

 This ORCA versions uses:
   CBLAS   interface :  Fast vector & matrix operations
   LAPACKE interface :  Fast linear algebra routines
   Shared memory     :  Shared parallel matrices


Your calculation utilizes the atom-pairwise dispersion correction
with the zero-damping scheme (D30)


XCFun DFT library Copyright 2009-2010 Ulf Ekstrom and contributors.
See http://admol.org/xcfun for more information.
This is free software; see the source code for copying conditions.
There is ABSOLUTELY NO WARRANTY; not even for MERCHANTABILITY or FITNESS FOR A PARTICULAR PURPOSE.
For details see the documentation.
Scientific users of this library should cite U. Ekstrom, L. Visscher, R. Bast, A. J. Thorvaldsen and K. Ruud;
J.Chem.Theor.Comp. 2010, DOI: 10.1021/ct100117s
XCFun Version 0.99 

Warning: RI is on but no J-basis has been assigned. Assigning Def2/J (nothing to worry about!)
================================================================================

----- Orbital basis set information -----
Your calculation utilizes the basis: def2-TZVP
   F. Weigend and R. Ahlrichs, Phys. Chem. Chem. Phys. 7, 3297 (2005).

----- AuxJ basis set information -----
Your calculation utilizes the auxiliary basis: def2/J
   F. Weigend, Phys. Chem. Chem. Phys. 8, 1057 (2006).

================================================================================
                                        WARNINGS
                       Please study these warnings very carefully!
================================================================================

WARNING: Functional chosen is sensitive to the integration grid.
         DEFGRID3 seems to be a minimum grid for robust results!

================================================================================
                                       INPUT FILE
================================================================================
NAME = data/single_point_PO_M06-2x/11776/11776.inp
|  1> ! RIJCOSX M062X def2-TZVP D3ZERO NormalSCF
|  2> %pal
|  3> nprocs 6
|  4> end
|  5> 
|  6> * xyz 0 1
|  7>   C           4.16342726969649     -0.22697205690910      1.23828551240071
|  8>   C           3.54480695561085      0.50187165126478      0.20817581509166
|  9>   C           2.14358981452296      0.55858846998105      0.12968149612885
| 10>   C           1.35968495454853     -0.12502607674991      1.08048218568358
| 11>   C           1.98136017871154     -0.84188730121098      2.12301718652039
| 12>   C           3.38143344175009     -0.89379771989563      2.19767216902676
| 13>   P          -0.47246618099615     -0.14586868737162      1.05757946962127
| 14>   O          -1.08649487545273     -0.33706914095472      2.43399541692975
| 15>   C          -0.96970270588553      1.42557013161389      0.25703032757248
| 16>   C          -1.01924981940583      1.60669235988052     -1.13962076061496
| 17>   C          -1.38786925702661      2.85376869753916     -1.67020536095025
| 18>   C          -1.71576036016779      3.91570439361527     -0.81006424181247
| 19>   C          -1.68395756606806      3.72983840597721      0.58314116209925
| 20>   C          -1.31470318499753      2.48658590915299      1.11853883179496
| 21>   C          -0.93176832486102     -1.46667682811229     -0.12651447219324
| 22>   C          -0.13028123040704     -1.84516346913795     -1.22219911796733
| 23>   C          -0.57055114040458     -2.85350375390537     -2.09511250773555
| 24>   C          -1.80315268191955     -3.49025891508035     -1.87085548354829
| 25>   C          -2.59425101550519     -3.12561186547181     -0.76738670863206
| 26>   C          -2.16003764425295     -2.11771534738307      0.10684111407011
| 27>   H           5.26185910868322     -0.26682912347798      1.29972883621210
| 28>   H           4.15686292696704      1.03802994212806     -0.53333493618198
| 29>   H           1.65978634849613      1.15174538459784     -0.66185610994220
| 30>   H           1.34974545970367     -1.33973919387032      2.87504132045853
| 31>   H           3.86648133796289     -1.45242964215026      3.01286735947129
| 32>   H          -0.78780226928946      0.76750013025750     -1.81374125968677
| 33>   H          -1.42874186058410      2.99426712091318     -2.76130646092164
| 34>   H          -2.00792810567124      4.89118404361021     -1.22838467961258
| 35>   H          -1.95496211329050      4.55767029205531      1.25630591138981
| 36>   H          -1.30234462789795      2.31310317633647      2.20577444827272
| 37>   H           0.84732937728021     -1.36502002521840     -1.38395533460089
| 38>   H           0.05693311214398     -3.15043174566673     -2.94952575156024
| 39>   H          -2.14429209563585     -4.28271478456440     -2.55464628394967
| 40>   H          -3.55291486402133     -3.63471114938719     -0.58385817618472
| 41>   H          -2.75406936233663     -1.83069628240538      0.98841208335063
| 42> **                         ****END OF INPUT****
================================================================================

                       ****************************
                       * Single Point Calculation *
                       ****************************

---------------------------------
CARTESIAN COORDINATES (ANGSTROEM)
---------------------------------
  C      4.163427   -0.226972    1.238286
  C      3.544807    0.501872    0.208176
  C      2.143590    0.558588    0.129681
  C      1.359685   -0.125026    1.080482
  C      1.981360   -0.841887    2.123017
  C      3.381433   -0.893798    2.197672
  P     -0.472466   -0.145869    1.057579
  O     -1.086495   -0.337069    2.433995
  C     -0.969703    1.425570    0.257030
  C     -1.019250    1.606692   -1.139621
  C     -1.387869    2.853769   -1.670205
  C     -1.715760    3.915704   -0.810064
  C     -1.683958    3.729838    0.583141
  C     -1.314703    2.486586    1.118539
  C     -0.931768   -1.466677   -0.126514
  C     -0.130281   -1.845163   -1.222199
  C     -0.570551   -2.853504   -2.095113
  C     -1.803153   -3.490259   -1.870855
  C     -2.594251   -3.125612   -0.767387
  C     -2.160038   -2.117715    0.106841
  H      5.261859   -0.266829    1.299729
  H      4.156863    1.038030   -0.533335
  H      1.659786    1.151745   -0.661856
  H      1.349745   -1.339739    2.875041
  H      3.866481   -1.452430    3.012867
  H     -0.787802    0.767500   -1.813741
  H     -1.428742    2.994267   -2.761306
  H     -2.007928    4.891184   -1.228385
  H     -1.954962    4.557670    1.256306
  H     -1.302345    2.313103    2.205774
  H      0.847329   -1.365020   -1.383955
  H      0.056933   -3.150432   -2.949526
  H     -2.144292   -4.282715   -2.554646
  H     -3.552915   -3.634711   -0.583858
  H     -2.754069   -1.830696    0.988412

----------------------------
CARTESIAN COORDINATES (A.U.)
----------------------------
  NO LB      ZA    FRAG     MASS         X           Y           Z
   0 C     6.0000    0    12.011    7.867737   -0.428915    2.340020
   1 C     6.0000    0    12.011    6.698714    0.948400    0.393395
   2 C     6.0000    0    12.011    4.050798    1.055579    0.245063
   3 C     6.0000    0    12.011    2.569432   -0.236265    2.041815
   4 C     6.0000    0    12.011    3.744228   -1.590936    4.011921
   5 C     6.0000    0    12.011    6.389983   -1.689033    4.152999
   6 P    15.0000    0    30.974   -0.892832   -0.275652    1.998536
   7 O     8.0000    0    15.999   -2.053178   -0.636968    4.599585
   8 C     6.0000    0    12.011   -1.832473    2.693937    0.485717
   9 C     6.0000    0    12.011   -1.926103    3.036209   -2.153571
  10 C     6.0000    0    12.011   -2.622693    5.392841   -3.156231
  11 C     6.0000    0    12.011   -3.242317    7.399609   -1.530800
  12 C     6.0000    0    12.011   -3.182219    7.048373    1.101977
  13 C     6.0000    0    12.011   -2.484429    4.698966    2.113732
  14 C     6.0000    0    12.011   -1.760787   -2.771618   -0.239078
  15 C     6.0000    0    12.011   -0.246196   -3.486854   -2.309622
  16 C     6.0000    0    12.011   -1.078185   -5.392341   -3.959189
  17 C     6.0000    0    12.011   -3.407465   -6.595633   -3.535405
  18 C     6.0000    0    12.011   -4.902424   -5.906550   -1.450151
  19 C     6.0000    0    12.011   -4.081880   -4.001902    0.201900
  20 H     1.0000    0     1.008    9.943473   -0.504234    2.456132
  21 H     1.0000    0     1.008    7.855333    1.961592   -1.007857
  22 H     1.0000    0     1.008    3.136542    2.176483   -1.250727
  23 H     1.0000    0     1.008    2.550649   -2.531740    5.433041
  24 H     1.0000    0     1.008    7.306591   -2.744694    5.693494
  25 H     1.0000    0     1.008   -1.488731    1.450365   -3.427474
  26 H     1.0000    0     1.008   -2.699931    5.658345   -5.218113
  27 H     1.0000    0     1.008   -3.794434    9.242998   -2.321311
  28 H     1.0000    0     1.008   -3.694343    8.612749    2.374074
  29 H     1.0000    0     1.008   -2.461075    4.371132    4.168310
  30 H     1.0000    0     1.008    1.601220   -2.579514   -2.615297
  31 H     1.0000    0     1.008    0.107588   -5.953453   -5.573796
  32 H     1.0000    0     1.008   -4.052125   -8.093158   -4.827582
  33 H     1.0000    0     1.008   -6.714036   -6.868609   -1.103332
  34 H     1.0000    0     1.008   -5.204437   -3.459515    1.867828

--------------------------------
INTERNAL COORDINATES (ANGSTROEM)
--------------------------------
 C      0   0   0     0.000000000000     0.00000000     0.00000000
 C      1   0   0     1.405357688432     0.00000000     0.00000000
 C      2   1   0     1.404559586530   120.06915412     0.00000000
 C      3   2   1     1.409204608725   119.84503023   359.53821570
 C      4   3   2     1.409698310790   120.02294390     1.25747283
 C      5   4   3     1.403022879306   119.88347257   358.82325587
 P      4   3   2     1.832412817107   123.59233465   181.14785659
 O      7   4   3     1.519246428685   113.21713559   207.49956860
 C      7   4   3     1.832359968001   105.48767702   331.81988645
 C      9   7   4     1.409217669548   123.55692374    82.73716522
 C     10   9   7     1.404492684158   119.85172515   181.19211031
 C     11  10   9     1.405369255019   120.06333168   359.54707461
 C     12  11  10     1.405908560527   120.08834957   359.58873997
 C     13  12  11     1.403095233231   120.08149261     0.49519700
 C      7   4   3     1.832367612420   105.47990255    83.23520482
 C     15   7   4     1.409311371911   123.60297570   331.22586159
 C     16  15   7     1.404480512350   119.85087985   181.12114468
 C     17  16  15     1.405366467625   120.06978973   359.54182350
 C     18  17  16     1.405861793138   120.08385853   359.58152165
 C     19  18  17     1.403093342916   120.08141685     0.50101141
 H      1   2   3     1.100870733872   119.92718453   180.22265982
 H      2   1   3     1.100870754988   120.10371899   179.38936915
 H      3   2   1     1.101105217916   120.01723870   178.37533202
 H      5   4   3     1.101060379052   118.82033814   177.90348685
 H      6   5   4     1.100856159862   119.85860018   179.90569117
 H     10   9   7     1.101022258623   120.09629362     2.32951701
 H     11  10   9     1.100868741972   119.83407634   180.14158655
 H     12  11  10     1.100869895922   119.92805223   180.22223383
 H     13  12  11     1.100863241239   120.06481417   180.88541326
 H     14  13  12     1.101058707907   121.28913694   181.23036738
 H     16  15   7     1.101101857514   120.13441106     2.23832154
 H     17  16  15     1.100874520875   119.82439140   180.14099056
 H     18  17  16     1.100877951175   119.92203021   180.20940976
 H     19  18  17     1.100863832432   120.06168853   180.88208172
 H     20  19  18     1.101099904472   121.27456609   181.25460400

---------------------------
INTERNAL COORDINATES (A.U.)
---------------------------
 C      0   0   0     0.000000000000     0.00000000     0.00000000
 C      1   0   0     2.655741151337     0.00000000     0.00000000
 C      2   1   0     2.654232957315   120.06915412     0.00000000
 C      3   2   1     2.663010777150   119.84503023   359.53821570
 C      4   3   2     2.663943738844   120.02294390     1.25747283
 C      5   4   3     2.651329001514   119.88347257   358.82325587
 P      4   3   2     3.462758388619   123.59233465   181.14785659
 O      7   4   3     2.870959680152   113.21713559   207.49956860
 C      7   4   3     3.462658518283   105.48767702   331.81988645
 C      9   7   4     2.663035458528   123.55692374    82.73716522
 C     10   9   7     2.654106530154   119.85172515   181.19211031
 C     11  10   9     2.655763009018   120.06333168   359.54707461
 C     12  11  10     2.656782148731   120.08834957   359.58873997
 C     13  12  11     2.651465730617   120.08149261     0.49519700
 C      7   4   3     3.462672964142   105.47990255    83.23520482
 C     15   7   4     2.663212530332   123.60297570   331.22586159
 C     16  15   7     2.654083528771   119.85087985   181.12114468
 C     17  16  15     2.655757741608   120.06978973   359.54182350
 C     18  17  16     2.656693771174   120.08385853   359.58152165
 C     19  18  17     2.651462158440   120.08141685     0.50101141
 H      1   2   3     2.080344195867   119.92718453   180.22265982
 H      2   1   3     2.080344235771   120.10371899   179.38936915
 H      3   2   1     2.080787306493   120.01723870   178.37533202
 H      5   4   3     2.080702573319   118.82033814   177.90348685
 H      6   5   4     2.080316654980   119.85860018   179.90569117
 H     10   9   7     2.080630536149   120.09629362     2.32951701
 H     11  10   9     2.080340431721   119.83407634   180.14158655
 H     12  11  10     2.080342612372   119.92805223   180.22223383
 H     13  12  11     2.080330036842   120.06481417   180.88541326
 H     14  13  12     2.080699415313   121.28913694   181.23036738
 H     16  15   7     2.080780956254   120.13441106     2.23832154
 H     17  16  15     2.080351352265   119.82439140   180.14099056
 H     18  17  16     2.080357834594   119.92203021   180.20940976
 H     19  18  17     2.080331154036   120.06168853   180.88208172
 H     20  19  18     2.080777265539   121.27456609   181.25460400

---------------------
BASIS SET INFORMATION
---------------------
There are 4 groups of distinct atoms

 Group   1 Type C   : 11s6p2d1f contracted to 5s3p2d1f pattern {62111/411/11/1}
 Group   2 Type P   : 14s9p3d1f contracted to 5s5p2d1f pattern {73211/51111/21/1}
 Group   3 Type O   : 11s6p2d1f contracted to 5s3p2d1f pattern {62111/411/11/1}
 Group   4 Type H   : 5s1p contracted to 3s1p pattern {311/1}

Atom   0C    basis set group =>   1
Atom   1C    basis set group =>   1
Atom   2C    basis set group =>   1
Atom   3C    basis set group =>   1
Atom   4C    basis set group =>   1
Atom   5C    basis set group =>   1
Atom   6P    basis set group =>   2
Atom   7O    basis set group =>   3
Atom   8C    basis set group =>   1
Atom   9C    basis set group =>   1
Atom  10C    basis set group =>   1
Atom  11C    basis set group =>   1
Atom  12C    basis set group =>   1
Atom  13C    basis set group =>   1
Atom  14C    basis set group =>   1
Atom  15C    basis set group =>   1
Atom  16C    basis set group =>   1
Atom  17C    basis set group =>   1
Atom  18C    basis set group =>   1
Atom  19C    basis set group =>   1
Atom  20H    basis set group =>   4
Atom  21H    basis set group =>   4
Atom  22H    basis set group =>   4
Atom  23H    basis set group =>   4
Atom  24H    basis set group =>   4
Atom  25H    basis set group =>   4
Atom  26H    basis set group =>   4
Atom  27H    basis set group =>   4
Atom  28H    basis set group =>   4
Atom  29H    basis set group =>   4
Atom  30H    basis set group =>   4
Atom  31H    basis set group =>   4
Atom  32H    basis set group =>   4
Atom  33H    basis set group =>   4
Atom  34H    basis set group =>   4
---------------------------------
AUXILIARY/J BASIS SET INFORMATION
---------------------------------
There are 4 groups of distinct atoms

 Group   1 Type C   : 12s5p4d2f1g contracted to 6s4p3d1f1g pattern {711111/2111/211/2/1}
 Group   2 Type P   : 14s5p5d2f1g contracted to 8s4p3d1f1g pattern {71111111/2111/311/2/1}
 Group   3 Type O   : 12s5p4d2f1g contracted to 6s4p3d1f1g pattern {711111/2111/211/2/1}
 Group   4 Type H   : 5s2p1d contracted to 3s1p1d pattern {311/2/1}

Atom   0C    basis set group =>   1
Atom   1C    basis set group =>   1
Atom   2C    basis set group =>   1
Atom   3C    basis set group =>   1
Atom   4C    basis set group =>   1
Atom   5C    basis set group =>   1
Atom   6P    basis set group =>   2
Atom   7O    basis set group =>   3
Atom   8C    basis set group =>   1
Atom   9C    basis set group =>   1
Atom  10C    basis set group =>   1
Atom  11C    basis set group =>   1
Atom  12C    basis set group =>   1
Atom  13C    basis set group =>   1
Atom  14C    basis set group =>   1
Atom  15C    basis set group =>   1
Atom  16C    basis set group =>   1
Atom  17C    basis set group =>   1
Atom  18C    basis set group =>   1
Atom  19C    basis set group =>   1
Atom  20H    basis set group =>   4
Atom  21H    basis set group =>   4
Atom  22H    basis set group =>   4
Atom  23H    basis set group =>   4
Atom  24H    basis set group =>   4
Atom  25H    basis set group =>   4
Atom  26H    basis set group =>   4
Atom  27H    basis set group =>   4
Atom  28H    basis set group =>   4
Atom  29H    basis set group =>   4
Atom  30H    basis set group =>   4
Atom  31H    basis set group =>   4
Atom  32H    basis set group =>   4
Atom  33H    basis set group =>   4
Atom  34H    basis set group =>   4


           ************************************************************
           *        Program running with 6 parallel MPI-processes     *
           *              working on a common directory               *
           ************************************************************
------------------------------------------------------------------------------
                             ORCA STARTUP CALCULATIONS
                           -- RI-GTO INTEGRALS CHOSEN --
------------------------------------------------------------------------------
------------------------------------------------------------------------------
                   ___                                                        
                  /   \      - P O W E R E D   B Y -                         
                 /     \                                                     
                 |  |  |   _    _      __       _____    __    __             
                 |  |  |  | |  | |    /  \     |  _  \  |  |  /  |          
                  \  \/   | |  | |   /    \    | | | |  |  | /  /          
                 / \  \   | |__| |  /  /\  \   | |_| |  |  |/  /          
                |  |  |   |  __  | /  /__\  \  |    /   |      \           
                |  |  |   | |  | | |   __   |  |    \   |  |\   \          
                \     /   | |  | | |  |  |  |  | |\  \  |  | \   \       
                 \___/    |_|  |_| |__|  |__|  |_| \__\ |__|  \__/        
                                                                              
                      - O R C A' S   B I G   F R I E N D -                    
                                      &                                       
                       - I N T E G R A L  F E E D E R -                       
                                                                              
 v1 FN, 2020, v2 2021, v3 2022-2024                                           
------------------------------------------------------------------------------


----------------------
SHARK INTEGRAL PACKAGE
----------------------

Number of atoms                             ...     35
Number of basis functions                   ...    716
Number of shells                            ...    282
Maximum angular momentum                    ...      3
Integral batch strategy                     ... SHARK/LIBINT Hybrid
RI-J (if used) integral strategy            ... SPLIT-RIJ (Revised 2003 algorithm where possible)
Printlevel                                  ...      1
Contraction scheme used                     ... SEGMENTED contraction
Prescreening option                         ... SCHWARTZ
   Thresh                                   ... 1.000e-10
   Tcut                                     ... 1.000e-11
   Tpresel                                  ... 1.000e-11 
Coulomb Range Separation                    ... NOT USED
Exchange Range Separation                   ... NOT USED
Multipole approximations                    ... NOT USED
Finite Nucleus Model                        ... NOT USED
CABS basis                                  ... NOT available
Auxiliary Coulomb fitting basis             ... AVAILABLE
   # of basis functions in Aux-J            ...   1147
   # of shells in Aux-J                     ...    377
   Maximum angular momentum in Aux-J        ...      4
Auxiliary J/K fitting basis                 ... NOT available
Auxiliary Correlation fitting basis         ... NOT available
Auxiliary 'external' fitting basis          ... NOT available

Checking pre-screening integrals            ... done (  0.0 sec) Dimension = 282
Check shell pair data                       ... done (  0.0 sec)
Shell pair information
Shell pair cut-off parameter TPreSel        ...   1.0e-11
Total number of shell pairs                 ...     39903
Shell pairs after pre-screening             ...     29224
Total number of primitive shell pairs       ...    124252
Primitive shell pairs kept                  ...     60223
          la=0 lb=0:   7419 shell pairs
          la=1 lb=0:   8458 shell pairs
          la=1 lb=1:   2449 shell pairs
          la=2 lb=0:   4112 shell pairs
          la=2 lb=1:   2399 shell pairs
          la=2 lb=2:    619 shell pairs
          la=3 lb=0:   1942 shell pairs
          la=3 lb=1:   1139 shell pairs
          la=3 lb=2:    552 shell pairs
          la=3 lb=3:    135 shell pairs

Calculating one electron integrals          ... done (  0.1 sec)
Calculating RI/J V-Matrix + Cholesky decomp.... done (  0.1 sec)
Calculating Nuclear repulsion               ... done (  0.0 sec) ENN=   1566.355511842857 Eh

Diagonalization of the overlap matrix:
Smallest eigenvalue                        ... 8.168e-06
Time for diagonalization                   ...    0.115 sec
Threshold for overlap eigenvalues          ... 1.000e-07
Number of eigenvalues below threshold      ... 0
Time for construction of square roots      ...    0.047 sec
Total time needed                          ...    0.166 sec

-------------------
DFT GRID GENERATION
-------------------

General Integration Accuracy     IntAcc      ... 4.388
Radial Grid Type                 RadialGrid  ... OptM3 with GC (2021)
Angular Grid (max. ang.)         AngularGrid ... 4 (Lebedev-302)
Angular grid pruning method      GridPruning ... 4 (adaptive)
Weight generation scheme         WeightScheme... mBecke (2022)
Basis function cutoff            BFCut       ... 1.0000e-10
Integration weight cutoff        WCut        ... 1.0000e-14
Partially contracted basis set               ... off
Rotationally invariant grid construction     ... off
Angular grids for H and He will be reduced by one unit

Total number of grid points                  ...   168723
Total number of batches                      ...     2655
Average number of points per batch           ...       63
Average number of grid points per atom       ...     4821

--------------------
COSX GRID GENERATION
--------------------

GRIDX 1
-------
General Integration Accuracy     IntAcc      ... 3.816
Radial Grid Type                 RadialGrid  ... OptM3 with GC (2021)
Angular Grid (max. ang.)         AngularGrid ... 1 (Lebedev-50)
Angular grid pruning method      GridPruning ... 4 (adaptive)
Weight generation scheme         WeightScheme... mBecke (2022)
Basis function cutoff            BFCut       ... 1.0000e-10
Integration weight cutoff        WCut        ... 1.0000e-14
Partially contracted basis set               ... on
Rotationally invariant grid construction     ... off
Angular grids for H and He will be reduced by one unit

Total number of grid points                  ...    22414
Total number of batches                      ...      191
Average number of points per batch           ...      117
Average number of grid points per atom       ...      640
UseSFitting                                  ... on

GRIDX 2
-------
General Integration Accuracy     IntAcc      ... 4.020
Radial Grid Type                 RadialGrid  ... OptM3 with GC (2021)
Angular Grid (max. ang.)         AngularGrid ... 2 (Lebedev-110)
Angular grid pruning method      GridPruning ... 4 (adaptive)
Weight generation scheme         WeightScheme... mBecke (2022)
Basis function cutoff            BFCut       ... 1.0000e-10
Integration weight cutoff        WCut        ... 1.0000e-14
Partially contracted basis set               ... on
Rotationally invariant grid construction     ... off
Angular grids for H and He will be reduced by one unit

Total number of grid points                  ...    46529
Total number of batches                      ...      381
Average number of points per batch           ...      122
Average number of grid points per atom       ...     1329
UseSFitting                                  ... on

GRIDX 3
-------
General Integration Accuracy     IntAcc      ... 4.338
Radial Grid Type                 RadialGrid  ... OptM3 with GC (2021)
Angular Grid (max. ang.)         AngularGrid ... 3 (Lebedev-194)
Angular grid pruning method      GridPruning ... 4 (adaptive)
Weight generation scheme         WeightScheme... mBecke (2022)
Basis function cutoff            BFCut       ... 1.0000e-10
Integration weight cutoff        WCut        ... 1.0000e-14
Partially contracted basis set               ... on
Rotationally invariant grid construction     ... off
Angular grids for H and He will be reduced by one unit

Total number of grid points                  ...   102195
Total number of batches                      ...      821
Average number of points per batch           ...      124
Average number of grid points per atom       ...     2920
UseSFitting                                  ... on
Initializing property integral containers    ... done (  0.0 sec)

SHARK setup successfully completed in   3.8 seconds

Maximum memory used throughout the entire STARTUP-calculation: 69.8 MB


           ************************************************************
           *        Program running with 6 parallel MPI-processes     *
           *              working on a common directory               *
           ************************************************************
-------------------------------------------------------------------------------
                                 ORCA GUESS
                   Start orbitals & Density for SCF / CASSCF
-------------------------------------------------------------------------------

------------
SCF SETTINGS
------------
Hamiltonian:
 Density Functional     Method          .... DFT(GTOs)
 Exchange Functional    Exchange        .... M062X
 Correlation Functional Correlation     .... M062X
 Gradients option       PostSCFGGA      .... off
 Hybrid DFT is turned on
   Fraction HF Exchange ScalHFX         ....  0.540000
   Scaling of DF-GGA-X  ScalDFX         ....  0.460000
   Scaling of DF-GGA-C  ScalDFC         ....  1.000000
   Scaling of DF-LDA-C  ScalLDAC        ....  1.000000
   Perturbative correction              ....  0.000000
 RI-approximation to the Coulomb term is turned on
   Number of AuxJ basis functions       .... 1147
   RIJ-COSX (HFX calculated with COS-X)).... on


General Settings:
 Integral files         IntName         .... data/single_point_PO_M06-2x/11776/11776
 Hartree-Fock type      HFTyp           .... RHF
 Total Charge           Charge          ....    0
 Multiplicity           Mult            ....    1
 Number of Electrons    NEL             ....  146
 Basis Dimension        Dim             ....  716
 Nuclear Repulsion      ENuc            ....   1566.3555118429 Eh

Convergence Acceleration:
 AO-DIIS                CNVDIIS         .... on
   Start iteration      DIISMaxIt       ....    12
   Startup error        DIISStart       ....  0.200000
   # of expansion vecs  DIISMaxEq       ....     5
   Bias factor          DIISBfac        ....   1.050
   Max. coefficient     DIISMaxC        ....  10.000
 MO-DIIS                CNVKDIIS        .... off
 Trust-Rad. Augm. Hess. CNVTRAH         .... auto
   Auto Start mean grad. ratio tolernc. ....  1.125000
   Auto Start start iteration           ....    50
   Auto Start num. interpolation iter.  ....    10
   Max. Number of Micro iterations      ....    24
   Max. Number of Macro iterations      .... Maxiter - #DIIS iter
   Number of Davidson start vectors     ....     2
   Converg. threshold    (grad. norm)   ....   5.000e-05
   Grad. Scal. Fac. for Micro threshold ....   0.100
   Minimum threshold for Micro iter.    ....   1.000e-02
   NR start threshold (gradient norm)   ....   1.000e-04
   Initial trust radius                 ....   0.400
   Minimum AH scaling param. (alpha)    ....   1.000
   Maximum AH scaling param. (alpha)    .... 1000.000
   Quad. conv. algorithm                .... NR
   White noise on init. David. guess    .... on
   Maximum white noise                  ....   0.010
   Pseudo random numbers                .... off
   Inactive MOs                         .... canonical
   Orbital update algorithm             .... Taylor
   Preconditioner                       .... Diag
   Full preconditioner red. dimension   ....   250
 SOSCF                  CNVSOSCF        .... on
   Start iteration      SOSCFMaxIt      ....   150
   Startup grad/error   SOSCFStart      ....  0.003300
   Hessian update       SOSCFHessUp     .... L-BFGS
 Level Shifting         CNVShift        .... on
   Level shift para.    LevelShift      ....    0.2500
   Turn off err/grad.   ShiftErr        ....    0.0010
 Zerner damping         CNVZerner       .... off
 Static damping         CNVDamp         .... on
   Fraction old density DampFac         ....    0.7000
   Max. Damping (<1)    DampMax         ....    0.9800
   Min. Damping (>=0)   DampMin         ....    0.0000
   Turn off err/grad.   DampErr         ....    0.1000

SCF Procedure:
 Maximum # iterations   MaxIter         ....   125
 SCF integral mode      SCFMode         .... Direct
   Integral package                     .... SHARK and LIBINT hybrid scheme
 Reset frequency        DirectResetFreq ....    20
 Integral Threshold     Thresh          ....  1.000e-10 Eh
 Primitive CutOff       TCut            ....  1.000e-11 Eh

Convergence Tolerance:
 Convergence Check Mode ConvCheckMode   .... Total+1el-Energy
 Convergence forced     ConvForced      .... 0
 Energy Change          TolE            ....  1.000e-06 Eh
 1-El. energy change                    ....  1.000e-03 Eh
 Orbital Gradient       TolG            ....  5.000e-05
 Orbital Rotation angle TolX            ....  5.000e-05
 DIIS Error             TolErr          ....  1.000e-05

------------------------------
INITIAL GUESS: MODEL POTENTIAL
------------------------------
Loading Hartree-Fock densities                     ... done
Calculating cut-offs                               ... done
Initializing the effective Hamiltonian             ... done
Setting up the integral package (SHARK)            ... done
Starting the Coulomb interaction                   ... done (   0.4 sec)
Making the grid                                    ... done (   0.3 sec)
Mapping shells                                     ... done
Starting the XC term evaluation                    ... done (   0.4 sec)
  promolecular density results
     # of electrons  =    145.987250674
     EX              =   -127.062917254
     EC              =     -4.927462834
     EX+EC           =   -131.990380088
Transforming the Hamiltonian                       ... done (   0.0 sec)
Diagonalizing the Hamiltonian                      ... done (   0.1 sec)
Back transforming the eigenvectors                 ... done (   0.0 sec)
Now organizing SCF variables                       ... done
                      ------------------
                      INITIAL GUESS DONE (   1.4 sec)
                      ------------------
             **** ENERGY FILE WAS UPDATED (data/single_point_PO_M06-2x/11776/11776.en.tmp) ****
Finished Guess after   1.6 sec
Maximum memory used throughout the entire GUESS-calculation: 52.1 MB


           ************************************************************
           *        Program running with 6 parallel MPI-processes     *
           *              working on a common directory               *
           ************************************************************

-------------------------------------------------------------------------------------------
                                      ORCA LEAN-SCF
                              memory conserving SCF solver
-------------------------------------------------------------------------------------------

----------------------------------------D-I-I-S--------------------------------------------
Iteration    Energy (Eh)           Delta-E    RMSDP     MaxDP     DIISErr   Damp  Time(sec)
-------------------------------------------------------------------------------------------
               ***  Starting incremental Fock matrix formation  ***
    1    -1110.9826116414419630     0.00e+00  1.51e-03  8.76e-02  3.61e-01  0.700  14.0
    2    -1111.2108670457459993    -2.28e-01  1.25e-03  8.09e-02  1.56e-01  0.700   8.1
                               ***Turning on AO-DIIS***
    3    -1111.3142060876334654    -1.03e-01  7.24e-04  2.34e-02  4.60e-02  0.700   7.7
    4    -1111.3765190240164884    -6.23e-02  1.65e-03  5.69e-02  3.39e-02  0.000   7.4
    5    -1111.5113806538524841    -1.35e-01  1.48e-04  1.30e-02  6.59e-03  0.000   7.7
                              *** Initializing SOSCF ***
---------------------------------------S-O-S-C-F--------------------------------------
Iteration    Energy (Eh)           Delta-E    RMSDP     MaxDP     MaxGrad    Time(sec)
--------------------------------------------------------------------------------------
    6    -1111.5117877295660946    -4.07e-04  4.41e-05  3.62e-03  7.63e-04     7.0
               *** Restarting incremental Fock matrix formation ***
    7    -1111.5117186710126589     6.91e-05  9.64e-05  4.93e-03  2.26e-04    13.9
    8    -1111.5117183709448909     3.00e-07  2.40e-05  1.15e-03  2.99e-04     9.9
                 **** Energy Check signals convergence ****

               *****************************************************
               *                     SUCCESS                       *
               *           SCF CONVERGED AFTER   8 CYCLES          *
               *****************************************************

Recomputing exchange energy using gridx3       ... done (   21.048 sec)
Old exchange energy                            :    -69.889745123 Eh
New exchange energy                            :    -69.889623650 Eh
Exchange energy change after final integration :      0.000121473 Eh
Total energy after final integration           :  -1111.511596898 Eh
             **** ENERGY FILE WAS UPDATED (data/single_point_PO_M06-2x/11776/11776.en.tmp) ****

----------------
TOTAL SCF ENERGY
----------------

Total Energy       :      -1111.51159689838914 Eh          -30245.76822 eV

Components:
Nuclear Repulsion  :       1566.35551184285714 Eh           42622.70037 eV
Electronic Energy  :      -2677.86723021380203 Eh          -72868.47190 eV
One Electron Energy:      -4626.80999816837630 Eh         -125901.90078 eV
Two Electron Energy:       1948.94276795457426 Eh           53033.42888 eV

Virial components:
Potential Energy   :      -2217.37369489204229 Eh          -60337.80575 eV
Kinetic Energy     :       1105.86209799365292 Eh           30092.03754 eV
Virial Ratio       :          2.00510868300395

DFT components:
N(Alpha)           :       73.000253505486 electrons
N(Beta)            :       73.000253505486 electrons
N(Total)           :      146.000507010972 electrons
E(XC)              :      -64.858833578527 Eh       

---------------
SCF CONVERGENCE
---------------

  Last Energy change         ...   -3.0007e-07  Tolerance :   1.0000e-06
  Last MAX-Density change    ...    1.1483e-03  Tolerance :   1.0000e-05
  Last RMS-Density change    ...    2.3976e-05  Tolerance :   1.0000e-06
  Last DIIS Error            ...    7.6334e-04  Tolerance :   1.0000e-05
  Last Orbital Gradient      ...    2.9891e-04  Tolerance :   5.0000e-05
  Last Orbital Rotation      ...    3.1350e-04  Tolerance :   5.0000e-05


----------------
ORBITAL ENERGIES
----------------

  NO   OCC          E(Eh)            E(eV) 
   0   2.0000     -78.096259     -2125.1072 
   1   2.0000     -19.567384      -532.4556 
   2   2.0000     -10.562683      -287.4252 
   3   2.0000     -10.562648      -287.4243 
   4   2.0000     -10.562644      -287.4241 
   5   2.0000     -10.560965      -287.3785 
   6   2.0000     -10.560959      -287.3783 
   7   2.0000     -10.560894      -287.3765 
   8   2.0000     -10.559159      -287.3293 
   9   2.0000     -10.559088      -287.3274 
  10   2.0000     -10.559061      -287.3267 
  11   2.0000     -10.558584      -287.3137 
  12   2.0000     -10.558561      -287.3130 
  13   2.0000     -10.558488      -287.3111 
  14   2.0000     -10.557948      -287.2964 
  15   2.0000     -10.557928      -287.2958 
  16   2.0000     -10.557852      -287.2937 
  17   2.0000     -10.557256      -287.2775 
  18   2.0000     -10.557230      -287.2768 
  19   2.0000     -10.557142      -287.2744 
  20   2.0000      -6.902543      -187.8277 
  21   2.0000      -5.019660      -136.5919 
  22   2.0000      -5.019657      -136.5918 
  23   2.0000      -5.017955      -136.5455 
  24   2.0000      -1.062399       -28.9093 
  25   2.0000      -0.967448       -26.3256 
  26   2.0000      -0.962487       -26.1906 
  27   2.0000      -0.962454       -26.1897 
  28   2.0000      -0.869976       -23.6733 
  29   2.0000      -0.849706       -23.1217 
  30   2.0000      -0.849361       -23.1123 
  31   2.0000      -0.849312       -23.1109 
  32   2.0000      -0.844992       -22.9934 
  33   2.0000      -0.844967       -22.9927 
  34   2.0000      -0.735654       -20.0182 
  35   2.0000      -0.697898       -18.9908 
  36   2.0000      -0.695291       -18.9198 
  37   2.0000      -0.695234       -18.9183 
  38   2.0000      -0.684199       -18.6180 
  39   2.0000      -0.684178       -18.6174 
  40   2.0000      -0.637580       -17.3494 
  41   2.0000      -0.599049       -16.3009 
  42   2.0000      -0.599020       -16.3002 
  43   2.0000      -0.576117       -15.6769 
  44   2.0000      -0.534591       -14.5470 
  45   2.0000      -0.534576       -14.5465 
  46   2.0000      -0.528493       -14.3810 
  47   2.0000      -0.522256       -14.2113 
  48   2.0000      -0.522220       -14.2103 
  49   2.0000      -0.518080       -14.0977 
  50   2.0000      -0.495652       -13.4874 
  51   2.0000      -0.494727       -13.4622 
  52   2.0000      -0.494657       -13.4603 
  53   2.0000      -0.488783       -13.3005 
  54   2.0000      -0.488685       -13.2978 
  55   2.0000      -0.455043       -12.3824 
  56   2.0000      -0.446825       -12.1587 
  57   2.0000      -0.446782       -12.1576 
  58   2.0000      -0.441344       -12.0096 
  59   2.0000      -0.421635       -11.4733 
  60   2.0000      -0.412212       -11.2169 
  61   2.0000      -0.412176       -11.2159 
  62   2.0000      -0.405679       -11.0391 
  63   2.0000      -0.405581       -11.0364 
  64   2.0000      -0.405378       -11.0309 
  65   2.0000      -0.339768        -9.2456 
  66   2.0000      -0.339730        -9.2445 
  67   2.0000      -0.320267        -8.7149 
  68   2.0000      -0.320207        -8.7133 
  69   2.0000      -0.318516        -8.6673 
  70   2.0000      -0.314833        -8.5670 
  71   2.0000      -0.314786        -8.5658 
  72   2.0000      -0.310568        -8.4510 
  73   0.0000      -0.011504        -0.3130 
  74   0.0000      -0.011383        -0.3098 
  75   0.0000      -0.000070        -0.0019 
  76   0.0000       0.002941         0.0800 
  77   0.0000       0.012869         0.3502 
  78   0.0000       0.012998         0.3537 
  79   0.0000       0.068047         1.8517 
  80   0.0000       0.082130         2.2349 
  81   0.0000       0.082172         2.2360 
  82   0.0000       0.095250         2.5919 
  83   0.0000       0.099459         2.7064 
*Only the first 10 virtual orbitals were printed.

                    ********************************
                    * MULLIKEN POPULATION ANALYSIS *
                    ********************************

-----------------------
MULLIKEN ATOMIC CHARGES
-----------------------
   0 C :   -0.134212
   1 C :   -0.150649
   2 C :   -0.196155
   3 C :   -0.075312
   4 C :   -0.146989
   5 C :   -0.136689
   6 P :    0.636404
   7 O :   -0.599615
   8 C :   -0.076745
   9 C :   -0.196800
  10 C :   -0.150018
  11 C :   -0.134863
  12 C :   -0.136519
  13 C :   -0.147730
  14 C :   -0.076149
  15 C :   -0.198579
  16 C :   -0.149945
  17 C :   -0.133837
  18 C :   -0.137994
  19 C :   -0.145943
  20 H :    0.149036
  21 H :    0.148687
  22 H :    0.196024
  23 H :    0.185887
  24 H :    0.150092
  25 H :    0.195747
  26 H :    0.148635
  27 H :    0.149484
  28 H :    0.150040
  29 H :    0.185400
  30 H :    0.196005
  31 H :    0.148465
  32 H :    0.149467
  33 H :    0.149914
  34 H :    0.185459
Sum of atomic charges:    0.0000000

--------------------------------
MULLIKEN REDUCED ORBITAL CHARGES
--------------------------------
  0 C s       :     3.227471  s :     3.227471
      pz      :     0.904601  p :     2.839015
      px      :     1.008152
      py      :     0.926262
      dz2     :     0.019950  d :     0.061449
      dxz     :     0.011242
      dyz     :     0.008414
      dx2y2   :     0.013787
      dxy     :     0.008056
      f0      :     0.000881  f :     0.006277
      f+1     :     0.000897
      f-1     :     0.000964
      f+2     :     0.001411
      f-2     :     0.000886
      f+3     :     0.000804
      f-3     :     0.000434

  1 C s       :     3.227583  s :     3.227583
      pz      :     0.970226  p :     2.856729
      px      :     0.925660
      py      :     0.960842
      dz2     :     0.011418  d :     0.060041
      dxz     :     0.015244
      dyz     :     0.007365
      dx2y2   :     0.010084
      dxy     :     0.015929
      f0      :     0.000923  f :     0.006297
      f+1     :     0.000562
      f-1     :     0.000857
      f+2     :     0.001431
      f-2     :     0.000729
      f+3     :     0.000603
      f-3     :     0.001193

  2 C s       :     3.205284  s :     3.205284
      pz      :     0.981566  p :     2.918054
      px      :     0.970635
      py      :     0.965853
      dz2     :     0.010244  d :     0.066327
      dxz     :     0.019172
      dyz     :     0.007892
      dx2y2   :     0.009936
      dxy     :     0.019084
      f0      :     0.000757  f :     0.006490
      f+1     :     0.000706
      f-1     :     0.000828
      f+2     :     0.001470
      f-2     :     0.000752
      f+3     :     0.000745
      f-3     :     0.001232

  3 C s       :     3.232097  s :     3.232097
      pz      :     0.903451  p :     2.762494
      px      :     0.909045
      py      :     0.949998
      dz2     :     0.022950  d :     0.073657
      dxz     :     0.012011
      dyz     :     0.009117
      dx2y2   :     0.019462
      dxy     :     0.010117
      f0      :     0.000980  f :     0.007063
      f+1     :     0.000823
      f-1     :     0.001065
      f+2     :     0.001715
      f-2     :     0.001015
      f+3     :     0.000761
      f-3     :     0.000703

  4 C s       :     3.209392  s :     3.209392
      pz      :     0.952936  p :     2.866760
      px      :     0.952249
      py      :     0.961575
      dz2     :     0.011735  d :     0.064319
      dxz     :     0.019441
      dyz     :     0.007209
      dx2y2   :     0.007735
      dxy     :     0.018198
      f0      :     0.000952  f :     0.006518
      f+1     :     0.000603
      f-1     :     0.000778
      f+2     :     0.001499
      f-2     :     0.000750
      f+3     :     0.000664
      f-3     :     0.001272

  5 C s       :     3.226365  s :     3.226365
      pz      :     0.976581  p :     2.844466
      px      :     0.906058
      py      :     0.961827
      dz2     :     0.010415  d :     0.059577
      dxz     :     0.015836
      dyz     :     0.007336
      dx2y2   :     0.009493
      dxy     :     0.016497
      f0      :     0.000764  f :     0.006280
      f+1     :     0.000665
      f-1     :     0.000863
      f+2     :     0.001419
      f-2     :     0.000677
      f+3     :     0.000689
      f-3     :     0.001203

  6 P s       :     5.292790  s :     5.292790
      pz      :     2.655653  p :     8.301134
      px      :     2.806955
      py      :     2.838526
      dz2     :     0.141595  d :     0.704957
      dxz     :     0.121823
      dyz     :     0.224333
      dx2y2   :     0.144273
      dxy     :     0.072931
      f0      :     0.015098  f :     0.064716
      f+1     :     0.008756
      f-1     :     0.011656
      f+2     :     0.008430
      f-2     :     0.010602
      f+3     :     0.004208
      f-3     :     0.005967

  7 O s       :     3.881930  s :     3.881930
      pz      :     1.418216  p :     4.691832
      px      :     1.614671
      py      :     1.658945
      dz2     :     0.008503  d :     0.024593
      dxz     :     0.007287
      dyz     :     0.006025
      dx2y2   :     0.001319
      dxy     :     0.001459
      f0      :     0.000364  f :     0.001260
      f+1     :     0.000368
      f-1     :     0.000229
      f+2     :     0.000138
      f-2     :     0.000137
      f+3     :     0.000012
      f-3     :     0.000013

  8 C s       :     3.232414  s :     3.232414
      pz      :     0.859082  p :     2.763685
      px      :     0.973089
      py      :     0.931514
      dz2     :     0.013512  d :     0.073582
      dxz     :     0.020120
      dyz     :     0.020301
      dx2y2   :     0.009884
      dxy     :     0.009764
      f0      :     0.001037  f :     0.007065
      f+1     :     0.001246
      f-1     :     0.001785
      f+2     :     0.000699
      f-2     :     0.000623
      f+3     :     0.000809
      f-3     :     0.000865

  9 C s       :     3.204395  s :     3.204395
      pz      :     0.900070  p :     2.919752
      px      :     0.979875
      py      :     1.039807
      dz2     :     0.011818  d :     0.066162
      dxz     :     0.015798
      dyz     :     0.019803
      dx2y2   :     0.008705
      dxy     :     0.010038
      f0      :     0.000882  f :     0.006492
      f+1     :     0.001110
      f-1     :     0.001619
      f+2     :     0.000705
      f-2     :     0.000416
      f+3     :     0.000862
      f-3     :     0.000897

 10 C s       :     3.227199  s :     3.227199
      pz      :     1.003419  p :     2.856575
      px      :     0.958767
      py      :     0.894389
      dz2     :     0.013613  d :     0.059948
      dxz     :     0.005875
      dyz     :     0.013482
      dx2y2   :     0.011004
      dxy     :     0.015974
      f0      :     0.000877  f :     0.006296
      f+1     :     0.000255
      f-1     :     0.001316
      f+2     :     0.000900
      f-2     :     0.000836
      f+3     :     0.001006
      f-3     :     0.001107

 11 C s       :     3.227797  s :     3.227797
      pz      :     0.900740  p :     2.839310
      px      :     0.952207
      py      :     0.986363
      dz2     :     0.012103  d :     0.061479
      dxz     :     0.018982
      dyz     :     0.015726
      dx2y2   :     0.007384
      dxy     :     0.007285
      f0      :     0.000991  f :     0.006278
      f+1     :     0.001147
      f-1     :     0.001516
      f+2     :     0.000663
      f-2     :     0.000588
      f+3     :     0.000695
      f-3     :     0.000678

 12 C s       :     3.226294  s :     3.226294
      pz      :     0.916431  p :     2.844458
      px      :     0.966576
      py      :     0.961451
      dz2     :     0.011535  d :     0.059489
      dxz     :     0.014939
      dyz     :     0.014905
      dx2y2   :     0.007969
      dxy     :     0.010143
      f0      :     0.000886  f :     0.006278
      f+1     :     0.001133
      f-1     :     0.001519
      f+2     :     0.000635
      f-2     :     0.000429
      f+3     :     0.000828
      f-3     :     0.000847

 13 C s       :     3.209483  s :     3.209483
      pz      :     1.039944  p :     2.867468
      px      :     0.918215
      py      :     0.909309
      dz2     :     0.015497  d :     0.064261
      dxz     :     0.006245
      dyz     :     0.013620
      dx2y2   :     0.012192
      dxy     :     0.016708
      f0      :     0.000835  f :     0.006519
      f+1     :     0.000249
      f-1     :     0.001475
      f+2     :     0.000898
      f-2     :     0.000847
      f+3     :     0.001061
      f-3     :     0.001154

 14 C s       :     3.231064  s :     3.231064
      pz      :     0.907508  p :     2.764520
      px      :     0.913250
      py      :     0.943762
      dz2     :     0.015481  d :     0.073509
      dxz     :     0.013419
      dyz     :     0.015629
      dx2y2   :     0.017488
      dxy     :     0.011491
      f0      :     0.001113  f :     0.007056
      f+1     :     0.000814
      f-1     :     0.000877
      f+2     :     0.001092
      f-2     :     0.001307
      f+3     :     0.001159
      f-3     :     0.000693

 15 C s       :     3.204552  s :     3.204552
      pz      :     0.895785  p :     2.920910
      px      :     1.017575
      py      :     1.007550
      dz2     :     0.021920  d :     0.066630
      dxz     :     0.011234
      dyz     :     0.010207
      dx2y2   :     0.010654
      dxy     :     0.012615
      f0      :     0.000927  f :     0.006486
      f+1     :     0.000773
      f-1     :     0.001185
      f+2     :     0.001201
      f-2     :     0.001115
      f+3     :     0.000442
      f-3     :     0.000843

 16 C s       :     3.227271  s :     3.227271
      pz      :     0.990311  p :     2.856128
      px      :     0.934344
      py      :     0.931473
      dz2     :     0.009210  d :     0.060246
      dxz     :     0.014983
      dyz     :     0.008866
      dx2y2   :     0.017952
      dxy     :     0.009235
      f0      :     0.000581  f :     0.006300
      f+1     :     0.000703
      f-1     :     0.001016
      f+2     :     0.000912
      f-2     :     0.001142
      f+3     :     0.001167
      f-3     :     0.000779

 17 C s       :     3.225502  s :     3.225502
      pz      :     0.954118  p :     2.840333
      px      :     0.907012
      py      :     0.979202
      dz2     :     0.012754  d :     0.061729
      dxz     :     0.011278
      dyz     :     0.012416
      dx2y2   :     0.011739
      dxy     :     0.013541
      f0      :     0.001024  f :     0.006273
      f+1     :     0.000752
      f-1     :     0.000654
      f+2     :     0.000938
      f-2     :     0.001197
      f+3     :     0.001144
      f-3     :     0.000565

 18 C s       :     3.226403  s :     3.226403
      pz      :     0.906340  p :     2.845473
      px      :     0.987497
      py      :     0.951636
      dz2     :     0.018065  d :     0.059845
      dxz     :     0.010878
      dyz     :     0.008960
      dx2y2   :     0.010440
      dxy     :     0.011502
      f0      :     0.000922  f :     0.006272
      f+1     :     0.000735
      f-1     :     0.001077
      f+2     :     0.001120
      f-2     :     0.001166
      f+3     :     0.000432
      f-3     :     0.000821

 19 C s       :     3.208759  s :     3.208759
      pz      :     0.986389  p :     2.866105
      px      :     0.956242
      py      :     0.923474
      dz2     :     0.011647  d :     0.064554
      dxz     :     0.016375
      dyz     :     0.008359
      dx2y2   :     0.016776
      dxy     :     0.011397
      f0      :     0.000651  f :     0.006525
      f+1     :     0.000740
      f-1     :     0.001033
      f+2     :     0.000850
      f-2     :     0.001199
      f+3     :     0.001257
      f-3     :     0.000795

 20 H s       :     0.831311  s :     0.831311
      pz      :     0.003049  p :     0.019653
      px      :     0.013219
      py      :     0.003385

 21 H s       :     0.831597  s :     0.831597
      pz      :     0.007836  p :     0.019716
      px      :     0.005946
      py      :     0.005934

 22 H s       :     0.783765  s :     0.783765
      pz      :     0.008495  p :     0.020212
      px      :     0.005101
      py      :     0.006616

 23 H s       :     0.793620  s :     0.793620
      pz      :     0.008148  p :     0.020493
      px      :     0.007027
      py      :     0.005319

 24 H s       :     0.830167  s :     0.830167
      pz      :     0.008880  p :     0.019740
      px      :     0.004697
      py      :     0.006163

 25 H s       :     0.784058  s :     0.784058
      pz      :     0.006625  p :     0.020196
      px      :     0.004062
      py      :     0.009508

 26 H s       :     0.831652  s :     0.831652
      pz      :     0.013037  p :     0.019713
      px      :     0.003756
      py      :     0.002920

 27 H s       :     0.830862  s :     0.830862
      pz      :     0.004188  p :     0.019654
      px      :     0.004392
      py      :     0.011074

 28 H s       :     0.830221  s :     0.830221
      pz      :     0.006676  p :     0.019739
      px      :     0.004337
      py      :     0.008725

 29 H s       :     0.794104  s :     0.794104
      pz      :     0.013770  p :     0.020496
      px      :     0.003447
      py      :     0.003278

 30 H s       :     0.783791  s :     0.783791
      pz      :     0.003228  p :     0.020204
      px      :     0.011641
      py      :     0.005335

 31 H s       :     0.831814  s :     0.831814
      pz      :     0.009392  p :     0.019720
      px      :     0.006327
      py      :     0.004001

 32 H s       :     0.830866  s :     0.830866
      pz      :     0.007088  p :     0.019667
      px      :     0.003902
      py      :     0.008677

 33 H s       :     0.830325  s :     0.830325
      pz      :     0.003303  p :     0.019762
      px      :     0.010974
      py      :     0.005485

 34 H s       :     0.794048  s :     0.794048
      pz      :     0.010715  p :     0.020493
      px      :     0.005764
      py      :     0.004014



                     *******************************
                     * LOEWDIN POPULATION ANALYSIS *
                     *******************************

----------------------
LOEWDIN ATOMIC CHARGES
----------------------
   0 C :   -0.131887
   1 C :   -0.141236
   2 C :   -0.138258
   3 C :   -0.229351
   4 C :   -0.113776
   5 C :   -0.135224
   6 P :    0.686322
   7 O :   -0.307823
   8 C :   -0.229497
   9 C :   -0.138400
  10 C :   -0.141266
  11 C :   -0.131894
  12 C :   -0.135202
  13 C :   -0.113767
  14 C :   -0.229464
  15 C :   -0.138416
  16 C :   -0.141293
  17 C :   -0.131908
  18 C :   -0.135262
  19 C :   -0.113767
  20 H :    0.148734
  21 H :    0.148752
  22 H :    0.155726
  23 H :    0.160874
  24 H :    0.149737
  25 H :    0.155661
  26 H :    0.148771
  27 H :    0.148755
  28 H :    0.149716
  29 H :    0.160873
  30 H :    0.155600
  31 H :    0.148781
  32 H :    0.148734
  33 H :    0.149706
  34 H :    0.160948

-------------------------------
LOEWDIN REDUCED ORBITAL CHARGES
-------------------------------
  0 C s       :     2.779495  s :     2.779495
      pz      :     1.004905  p :     2.937753
      px      :     0.995027
      py      :     0.937821
      dz2     :     0.104402  d :     0.374188
      dxz     :     0.071491
      dyz     :     0.068456
      dx2y2   :     0.088605
      dxy     :     0.041234
      f0      :     0.005062  f :     0.040451
      f+1     :     0.006698
      f-1     :     0.006211
      f+2     :     0.007945
      f-2     :     0.006488
      f+3     :     0.004377
      f-3     :     0.003670

  1 C s       :     2.778056  s :     2.778056
      pz      :     0.974482  p :     2.949136
      px      :     1.042290
      py      :     0.932365
      dz2     :     0.056851  d :     0.373549
      dxz     :     0.120020
      dyz     :     0.041458
      dx2y2   :     0.066674
      dxy     :     0.088546
      f0      :     0.006579  f :     0.040495
      f+1     :     0.004527
      f-1     :     0.004834
      f+2     :     0.007950
      f-2     :     0.004272
      f+3     :     0.004746
      f-3     :     0.007588

  2 C s       :     2.776073  s :     2.776073
      pz      :     0.963358  p :     2.939067
      px      :     1.052286
      py      :     0.923424
      dz2     :     0.057429  d :     0.382230
      dxz     :     0.115195
      dyz     :     0.042754
      dx2y2   :     0.075040
      dxy     :     0.091812
      f0      :     0.005822  f :     0.040888
      f+1     :     0.005397
      f-1     :     0.004310
      f+2     :     0.008027
      f-2     :     0.004376
      f+3     :     0.005389
      f-3     :     0.007566

  3 C s       :     2.771199  s :     2.771199
      pz      :     1.007224  p :     2.983305
      px      :     1.031676
      py      :     0.944404
      dz2     :     0.111274  d :     0.431122
      dxz     :     0.085315
      dyz     :     0.071859
      dx2y2   :     0.103778
      dxy     :     0.058896
      f0      :     0.005487  f :     0.043725
      f+1     :     0.006836
      f-1     :     0.006419
      f+2     :     0.008990
      f-2     :     0.006442
      f+3     :     0.004473
      f-3     :     0.005079

  4 C s       :     2.776013  s :     2.776013
      pz      :     0.965443  p :     2.917193
      px      :     1.043645
      py      :     0.908105
      dz2     :     0.058764  d :     0.379523
      dxz     :     0.125253
      dyz     :     0.040252
      dx2y2   :     0.067800
      dxy     :     0.087453
      f0      :     0.006805  f :     0.041047
      f+1     :     0.004699
      f-1     :     0.004770
      f+2     :     0.008211
      f-2     :     0.004214
      f+3     :     0.004804
      f-3     :     0.007543

  5 C s       :     2.778006  s :     2.778006
      pz      :     0.967594  p :     2.944540
      px      :     1.053227
      py      :     0.923719
      dz2     :     0.057600  d :     0.372220
      dxz     :     0.115288
      dyz     :     0.041432
      dx2y2   :     0.072372
      dxy     :     0.085528
      f0      :     0.005762  f :     0.040458
      f+1     :     0.005320
      f-1     :     0.004442
      f+2     :     0.008042
      f-2     :     0.004346
      f+3     :     0.005319
      f-3     :     0.007228

  6 P s       :     4.643255  s :     4.643255
      pz      :     2.730044  p :     8.264825
      px      :     2.763699
      py      :     2.771081
      dz2     :     0.261548  d :     1.185206
      dxz     :     0.218317
      dyz     :     0.338005
      dx2y2   :     0.244650
      dxy     :     0.122686
      f0      :     0.048452  f :     0.220392
      f+1     :     0.036060
      f-1     :     0.039654
      f+2     :     0.029074
      f-2     :     0.032220
      f+3     :     0.015045
      f-3     :     0.019887

  7 O s       :     3.539671  s :     3.539671
      pz      :     1.537776  p :     4.724485
      px      :     1.587738
      py      :     1.598972
      dz2     :     0.016978  d :     0.041559
      dxz     :     0.013714
      dyz     :     0.007361
      dx2y2   :     0.001800
      dxy     :     0.001706
      f0      :     0.000569  f :     0.002109
      f+1     :     0.000755
      f-1     :     0.000346
      f+2     :     0.000235
      f-2     :     0.000163
      f+3     :     0.000023
      f-3     :     0.000017

  8 C s       :     2.771193  s :     2.771193
      pz      :     1.064562  p :     2.983432
      px      :     0.896815
      py      :     1.022054
      dz2     :     0.118299  d :     0.431143
      dxz     :     0.079324
      dyz     :     0.142988
      dx2y2   :     0.050679
      dxy     :     0.039853
      f0      :     0.007822  f :     0.043728
      f+1     :     0.005624
      f-1     :     0.014203
      f+2     :     0.004981
      f-2     :     0.004795
      f+3     :     0.003178
      f-3     :     0.003126

  9 C s       :     2.776035  s :     2.776035
      pz      :     1.031723  p :     2.939180
      px      :     0.892896
      py      :     1.014561
      dz2     :     0.086570  d :     0.382291
      dxz     :     0.062226
      dyz     :     0.154193
      dx2y2   :     0.040872
      dxy     :     0.038429
      f0      :     0.007318  f :     0.040894
      f+1     :     0.006372
      f-1     :     0.012622
      f+2     :     0.003950
      f-2     :     0.002543
      f+3     :     0.004049
      f-3     :     0.004040

 10 C s       :     2.778028  s :     2.778028
      pz      :     0.995190  p :     2.949154
      px      :     0.903913
      py      :     1.050051
      dz2     :     0.116709  d :     0.373584
      dxz     :     0.020368
      dyz     :     0.097030
      dx2y2   :     0.068798
      dxy     :     0.070678
      f0      :     0.004832  f :     0.040501
      f+1     :     0.001442
      f-1     :     0.011607
      f+2     :     0.006676
      f-2     :     0.006540
      f+3     :     0.004830
      f-3     :     0.004574

 11 C s       :     2.779518  s :     2.779518
      pz      :     1.059412  p :     2.937748
      px      :     0.884429
      py      :     0.993907
      dz2     :     0.110716  d :     0.374179
      dxz     :     0.071855
      dyz     :     0.125510
      dx2y2   :     0.038217
      dxy     :     0.027881
      f0      :     0.007683  f :     0.040449
      f+1     :     0.005505
      f-1     :     0.012692
      f+2     :     0.004649
      f-2     :     0.004395
      f+3     :     0.002889
      f-3     :     0.002637

 12 C s       :     2.778027  s :     2.778027
      pz      :     1.039648  p :     2.944550
      px      :     0.895008
      py      :     1.009894
      dz2     :     0.087250  d :     0.372173
      dxz     :     0.058790
      dyz     :     0.149811
      dx2y2   :     0.039142
      dxy     :     0.037181
      f0      :     0.007385  f :     0.040453
      f+1     :     0.006144
      f-1     :     0.012476
      f+2     :     0.003940
      f-2     :     0.002601
      f+3     :     0.004062
      f-3     :     0.003844

 13 C s       :     2.776016  s :     2.776016
      pz      :     1.005250  p :     2.917164
      px      :     0.873562
      py      :     1.038352
      dz2     :     0.116202  d :     0.379537
      dxz     :     0.021078
      dyz     :     0.098800
      dx2y2   :     0.070512
      dxy     :     0.072944
      f0      :     0.004658  f :     0.041050
      f+1     :     0.001481
      f-1     :     0.011850
      f+2     :     0.006858
      f-2     :     0.006702
      f+3     :     0.004935
      f-3     :     0.004566

 14 C s       :     2.771199  s :     2.771199
      pz      :     0.998571  p :     2.983485
      px      :     1.023651
      py      :     0.961263
      dz2     :     0.073269  d :     0.431059
      dxz     :     0.103482
      dyz     :     0.086803
      dx2y2   :     0.089489
      dxy     :     0.078016
      f0      :     0.007354  f :     0.043721
      f+1     :     0.005195
      f-1     :     0.005734
      f+2     :     0.007033
      f-2     :     0.006171
      f+3     :     0.007225
      f-3     :     0.005009

 15 C s       :     2.776062  s :     2.776062
      pz      :     0.998664  p :     2.939168
      px      :     0.974218
      py      :     0.966286
      dz2     :     0.104161  d :     0.382297
      dxz     :     0.067115
      dyz     :     0.078860
      dx2y2   :     0.061177
      dxy     :     0.070983
      f0      :     0.005221  f :     0.040889
      f+1     :     0.005834
      f-1     :     0.007392
      f+2     :     0.007757
      f-2     :     0.006329
      f+3     :     0.003698
      f-3     :     0.004658

 16 C s       :     2.777999  s :     2.777999
      pz      :     0.964807  p :     2.949195
      px      :     1.007298
      py      :     0.977090
      dz2     :     0.059556  d :     0.373596
      dxz     :     0.097404
      dyz     :     0.051469
      dx2y2   :     0.080218
      dxy     :     0.084949
      f0      :     0.004553  f :     0.040503
      f+1     :     0.004417
      f-1     :     0.006367
      f+2     :     0.006523
      f-2     :     0.005869
      f+3     :     0.007038
      f-3     :     0.005736

 17 C s       :     2.779478  s :     2.779478
      pz      :     0.979054  p :     2.937754
      px      :     1.020501
      py      :     0.938199
      dz2     :     0.061074  d :     0.374222
      dxz     :     0.096672
      dyz     :     0.071045
      dx2y2   :     0.076521
      dxy     :     0.068910
      f0      :     0.006962  f :     0.040455
      f+1     :     0.005331
      f-1     :     0.004695
      f+2     :     0.006243
      f-2     :     0.005604
      f+3     :     0.007081
      f-3     :     0.004539

 18 C s       :     2.777997  s :     2.777997
      pz      :     1.007393  p :     2.944609
      px      :     0.971280
      py      :     0.965936
      dz2     :     0.100357  d :     0.372201
      dxz     :     0.066994
      dyz     :     0.078351
      dx2y2   :     0.056309
      dxy     :     0.070191
      f0      :     0.005198  f :     0.040455
      f+1     :     0.005671
      f-1     :     0.007529
      f+2     :     0.007727
      f-2     :     0.006262
      f+3     :     0.003584
      f-3     :     0.004484

 19 C s       :     2.776004  s :     2.776004
      pz      :     0.965678  p :     2.917130
      px      :     0.992316
      py      :     0.959136
      dz2     :     0.063735  d :     0.379579
      dxz     :     0.095568
      dyz     :     0.053446
      dx2y2   :     0.081155
      dxy     :     0.085675
      f0      :     0.004664  f :     0.041053
      f+1     :     0.004522
      f-1     :     0.006597
      f+2     :     0.006439
      f-2     :     0.005888
      f+3     :     0.007265
      f-3     :     0.005679

 20 H s       :     0.795488  s :     0.795488
      pz      :     0.010547  p :     0.055777
      px      :     0.034120
      py      :     0.011110

 21 H s       :     0.795310  s :     0.795310
      pz      :     0.021555  p :     0.055938
      px      :     0.017309
      py      :     0.017074

 22 H s       :     0.786438  s :     0.786438
      pz      :     0.023595  p :     0.057836
      px      :     0.015325
      py      :     0.018916

 23 H s       :     0.781168  s :     0.781168
      pz      :     0.022544  p :     0.057958
      px      :     0.019528
      py      :     0.015886

 24 H s       :     0.794359  s :     0.794359
      pz      :     0.023937  p :     0.055904
      px      :     0.014467
      py      :     0.017500

 25 H s       :     0.786500  s :     0.786500
      pz      :     0.019154  p :     0.057839
      px      :     0.013060
      py      :     0.025624

 26 H s       :     0.795299  s :     0.795299
      pz      :     0.033663  p :     0.055930
      px      :     0.011887
      py      :     0.010379

 27 H s       :     0.795462  s :     0.795462
      pz      :     0.013386  p :     0.055783
      px      :     0.013260
      py      :     0.029137

 28 H s       :     0.794374  s :     0.794374
      pz      :     0.019038  p :     0.055911
      px      :     0.013164
      py      :     0.023709

 29 H s       :     0.781164  s :     0.781164
      pz      :     0.036091  p :     0.057963
      px      :     0.011139
      py      :     0.010733

 30 H s       :     0.786621  s :     0.786621
      pz      :     0.010953  p :     0.057779
      px      :     0.030751
      py      :     0.016075

 31 H s       :     0.795299  s :     0.795299
      pz      :     0.025098  p :     0.055920
      px      :     0.018186
      py      :     0.012635

 32 H s       :     0.795489  s :     0.795489
      pz      :     0.019812  p :     0.055776
      px      :     0.012586
      py      :     0.023378

 33 H s       :     0.794381  s :     0.794381
      pz      :     0.011125  p :     0.055913
      px      :     0.028805
      py      :     0.015983

 34 H s       :     0.781092  s :     0.781092
      pz      :     0.028299  p :     0.057960
      px      :     0.017131
      py      :     0.012530



                      *****************************
                      * MAYER POPULATION ANALYSIS *
                      *****************************

  NA   - Mulliken gross atomic population
  ZA   - Total nuclear charge
  QA   - Mulliken gross atomic charge
  VA   - Mayer's total valence
  BVA  - Mayer's bonded valence
  FA   - Mayer's free valence

  ATOM       NA         ZA         QA         VA         BVA        FA
  0 C      6.1342     6.0000    -0.1342     3.9372     3.9372    -0.0000
  1 C      6.1506     6.0000    -0.1506     3.9984     3.9984    -0.0000
  2 C      6.1962     6.0000    -0.1962     3.8733     3.8733    -0.0000
  3 C      6.0753     6.0000    -0.0753     3.7615     3.7615     0.0000
  4 C      6.1470     6.0000    -0.1470     3.9603     3.9603     0.0000
  5 C      6.1367     6.0000    -0.1367     3.9221     3.9221     0.0000
  6 P     14.3636    15.0000     0.6364     4.9600     4.9600    -0.0000
  7 O      8.5996     8.0000    -0.5996     1.9831     1.9831    -0.0000
  8 C      6.0767     6.0000    -0.0767     3.7609     3.7609     0.0000
  9 C      6.1968     6.0000    -0.1968     3.8730     3.8730    -0.0000
 10 C      6.1500     6.0000    -0.1500     4.0000     4.0000    -0.0000
 11 C      6.1349     6.0000    -0.1349     3.9360     3.9360     0.0000
 12 C      6.1365     6.0000    -0.1365     3.9226     3.9226     0.0000
 13 C      6.1477     6.0000    -0.1477     3.9639     3.9639     0.0000
 14 C      6.0761     6.0000    -0.0761     3.7605     3.7605    -0.0000
 15 C      6.1986     6.0000    -0.1986     3.8751     3.8751    -0.0000
 16 C      6.1499     6.0000    -0.1499     4.0009     4.0009    -0.0000
 17 C      6.1338     6.0000    -0.1338     3.9373     3.9373     0.0000
 18 C      6.1380     6.0000    -0.1380     3.9235     3.9235     0.0000
 19 C      6.1459     6.0000    -0.1459     3.9606     3.9606    -0.0000
 20 H      0.8510     1.0000     0.1490     0.9632     0.9632    -0.0000
 21 H      0.8513     1.0000     0.1487     0.9653     0.9653    -0.0000
 22 H      0.8040     1.0000     0.1960     0.9441     0.9441    -0.0000
 23 H      0.8141     1.0000     0.1859     0.9725     0.9725     0.0000
 24 H      0.8499     1.0000     0.1501     0.9652     0.9652     0.0000
 25 H      0.8043     1.0000     0.1957     0.9445     0.9445     0.0000
 26 H      0.8514     1.0000     0.1486     0.9654     0.9654    -0.0000
 27 H      0.8505     1.0000     0.1495     0.9630     0.9630     0.0000
 28 H      0.8500     1.0000     0.1500     0.9654     0.9654     0.0000
 29 H      0.8146     1.0000     0.1854     0.9729     0.9729     0.0000
 30 H      0.8040     1.0000     0.1960     0.9441     0.9441     0.0000
 31 H      0.8515     1.0000     0.1485     0.9653     0.9653     0.0000
 32 H      0.8505     1.0000     0.1495     0.9628     0.9628    -0.0000
 33 H      0.8501     1.0000     0.1499     0.9652     0.9652     0.0000
 34 H      0.8145     1.0000     0.1855     0.9727     0.9727    -0.0000

  Mayer bond orders larger than 0.100000
B(  0-C ,  1-C ) :   1.4445 B(  0-C ,  5-C ) :   1.4308 B(  0-C , 20-H ) :   0.9467 
B(  1-C ,  2-C ) :   1.4817 B(  1-C , 21-H ) :   0.9432 B(  2-C ,  3-C ) :   1.3234 
B(  2-C , 22-H ) :   0.9156 B(  3-C ,  4-C ) :   1.4348 B(  3-C ,  6-P ) :   0.9197 
B(  4-C ,  5-C ) :   1.4404 B(  4-C , 23-H ) :   0.9091 B(  5-C , 24-H ) :   0.9473 
B(  6-P ,  7-O ) :   1.9410 B(  6-P ,  8-C ) :   0.9186 B(  6-P , 14-C ) :   0.9191 
B(  8-C ,  9-C ) :   1.3214 B(  8-C , 13-C ) :   1.4374 B(  9-C , 10-C ) :   1.4833 
B(  9-C , 25-H ) :   0.9155 B( 10-C , 11-C ) :   1.4441 B( 10-C , 26-H ) :   0.9432 
B( 11-C , 12-C ) :   1.4307 B( 11-C , 27-H ) :   0.9465 B( 12-C , 13-C ) :   1.4407 
B( 12-C , 28-H ) :   0.9472 B( 13-C , 29-H ) :   0.9091 B( 14-C , 15-C ) :   1.3226 
B( 14-C , 19-C ) :   1.4353 B( 15-C , 16-C ) :   1.4833 B( 15-C , 30-H ) :   0.9161 
B( 16-C , 17-C ) :   1.4445 B( 16-C , 31-H ) :   0.9434 B( 17-C , 18-C ) :   1.4317 
B( 17-C , 32-H ) :   0.9462 B( 18-C , 19-C ) :   1.4398 B( 18-C , 33-H ) :   0.9475 
B( 19-C , 34-H ) :   0.9096 

-------
TIMINGS
-------

Total SCF time: 0 days 0 hours 1 min 37 sec 

Total time                  ....      97.650 sec
Sum of individual times     ....      97.720 sec  (100.1%)

SCF preparation             ....       0.333 sec  (  0.3%)
Fock matrix formation       ....      94.106 sec  ( 96.4%)
  Startup                   ....       0.102 sec  (  0.1% of F)
  Split-RI-J                ....       6.244 sec  (  6.6% of F)
  Chain of spheres X        ....      67.411 sec  ( 71.6% of F)
  XC integration            ....      20.086 sec  ( 21.3% of F)
    Basis function eval.    ....       2.767 sec  ( 13.8% of XC)
    Density eval.           ....       8.159 sec  ( 40.6% of XC)
    XC-Functional eval.     ....       0.308 sec  (  1.5% of XC)
    XC-Potential eval.      ....       7.780 sec  ( 38.7% of XC)
Diagonalization             ....       0.000 sec  (  0.0%)
Density matrix formation    ....       0.267 sec  (  0.3%)
Total Energy calculation    ....       0.092 sec  (  0.1%)
Population analysis         ....       0.190 sec  (  0.2%)
Orbital Transformation      ....       0.448 sec  (  0.5%)
Orbital Orthonormalization  ....       0.000 sec  (  0.0%)
DIIS solution               ....       1.771 sec  (  1.8%)
SOSCF solution              ....       0.513 sec  (  0.5%)
Finished LeanSCF after  97.7 sec

Maximum memory used throughout the entire LEANSCF-calculation: 100.8 MB


-------------------------------------------------------------------------------
                          DFT DISPERSION CORRECTION                            
                                                                               
                              DFTD3 V3.1  Rev 1                                
                              USING zero damping                               
-------------------------------------------------------------------------------
The M062X functional is recognized
Active option DFTDOPT                   ...         3   

molecular C6(AA) [au] = 17512.208629 


            DFT-D V3
 parameters
 s6 scaling factor         :     1.0000 
 rs6 scaling factor        :     1.6190 
 s8 scaling factor         :     0.0000 
 rs8 scaling factor        :     1.0000 
 Damping factor alpha6     :    14.0000 
 Damping factor alpha8     :    16.0000 
 ad hoc parameters k1-k3   :    16.0000     1.3333    -4.0000 

 Edisp/kcal,au: -1.424810680931  -0.002270580107 
 E6   /kcal   :  -1.424810681 
 E8   /kcal   :  -0.000000000 
 % E8         :   0.000000000 

-------------------------   ----------------
Dispersion correction           -0.002270580
-------------------------   ----------------


-------------------------   --------------------
FINAL SINGLE POINT ENERGY     -1111.513867478496
-------------------------   --------------------



           ************************************************************
           *        Program running with 6 parallel MPI-processes     *
           *              working on a common directory               *
           ************************************************************

------------------------------------------------------------------------------
                              ORCA PROPERTY CALCULATIONS
------------------------------------------------------------------------------

GBWName                                 ... data/single_point_PO_M06-2x/11776/11776.gbw
Number of atoms                         ...     35
Number of basis functions               ...    716
Max core memory                         ...   1024 MB

Electric properties:
Dipole moment                           ... YES
Quadrupole moment                       ...  NO
Static polarizability (Dipole/Dipole)   ...  NO
Static polarizability (Dipole/Quad.)    ...  NO
Static polarizability (Quad./Quad.)     ...  NO
Static polarizability (Velocity)        ...  NO

Atomic electric properties:
Dipole moment                           ...  NO
Quadrupole moment                       ...  NO
Static polarizability                   ...  NO

Choice of electric origin               ... Center of mass
Position of electric origin             ...    -0.184847    -0.057120     0.413726

General magnetic properties:
Magnetizability                         ...  NO

EPR properties:
g-Tensor (aka g-matrix)                 ...  NO
Zero-Field splitting spin-orbit         ...  NO
Zero-field splitting spin-spin          ...  NO
Hyperfine couplings                     ...  NO (   0 nuclei)
Quadrupole couplings                    ...  NO (   0 nuclei)
Contact density                         ...  NO (   0 nuclei)

NMR properties:
Chemical shifts                         ...  NO (   0 nuclei)
Spin-rotation constants                 ...  NO (   0 nuclei)
Spin-spin couplings                     ...  NO (   0 nuclei,    0 pairs)

Choice of magnetic origin               ... GIAO
Position of magnetic origin             ...     0.000000     0.000000     0.000000

Properties with geometric perturbations:
SCF Hessian                             ...  NO
IR spectrum                             ...  NO
VCD spectrum                            ...  NO
X-ray spectroscopy properties:
SCF XES/XAS/RIXS spectra                ...  NO


-------------
DIPOLE MOMENT
-------------

Method             : SCF
Type of density    : Electron Density
Multiplicity       :   1
Irrep              :   0
Energy             : -1111.5115968983891435 Eh
Relativity type    : 
Basis              : AO
                                X                 Y                 Z
Electronic contribution:     -2.210478236      -0.681689290       4.946562372
Nuclear contribution   :      2.884341605       0.890913772      -6.454915603
                        -----------------------------------------
Total Dipole Moment    :      0.673863369       0.209224482      -1.508353231
                        -----------------------------------------
Magnitude (a.u.)       :      1.665231573
Magnitude (Debye)      :      4.232682282



--------------------
Rotational spectrum 
--------------------
 
Rotational constants in cm-1:             0.010686             0.010669             0.006942 
Rotational constants in MHz :           320.366601           319.854411           208.110482 

Dipole components along the rotational axes: 
x,y,z [a.u.] :    -0.002007     0.002033    -1.665229 
x,y,z [Debye]:    -0.005100     0.005167    -4.232676 

 

Dipole moment calculation done in   0.0 sec 

Maximum memory used throughout the entire PROP-calculation: 54.1 MB

--------------------------------
SUGGESTED CITATIONS FOR THIS RUN
--------------------------------

Below you find a list of papers that are relevant to this ORCA run
We neither can nor want to force you to cite these papers, but we appreciate if you do
You receive ORCA, which is the product of decades of hard work by many enthusiastic individuals, for free
The only thing we kindly ask in return is that you cite our papers,
We deeply appreciate it, if you show your appreciation for ORCA by not just citing the generic ORCA reference.

Please note that relegating all ORCA citations to the supporting information does *not* help us.
SI sections are not indexed - citations you put there will not count into any citation statistics
But we need these citations in order to attract the funding resources that allow us to do what we are doing

Therefore, if you are a happy ORCA user, please consider citing a few of the papers listed below in the main body of your paper

In addition to the list printed below, the program has created the file data/single_point_PO_M06-2x/11776/11776.bibtex that contains the list in bibtex format
You can import this file easily into all common literature databanks and citation aid programs


List of essential papers. We consider these as the minimum necessary citations

  1. Neese,F.
     Software update: the ORCA program system, version 5.0
     WIRES Comput. Molec. Sci., 2022 12(1)e1606
     doi.org/10.1002/wcms.1606

List of papers to cite with high priority. The work reported in these papers was absolutely
necessary for this run to complete.
Our perspective: the developers of density functionals and basis sets usually get cited in chemistry papers
Good! But without the algorithms to do something with them, the functionals or basis sets would not do anything.
Hence, in our opinion, the algorithm design and method developments papers are equally worthy of getting cited

  1. Neese,F.
     An improvement of the resolution of the identity approximation for the formation of the Coulomb matrix
     J. Comp. Chem., 2003 24(14)1740-1747
     doi.org/10.1002/jcc.10318
  2. Neese,F.; Wennmohs,F.; Hansen,A.; Becker,U.
     Efficient, approximate and parallel Hartree-Fock and hybrid DFT calculations. A 'chain-of-spheres' algorithm for the Hartree-Fock exchange
     Chem. Phys., 2009 356(1-3)98-109
     doi.org/10.1016/j.chemphys.2008.10.036
  3. Helmich-Paris,B.; de Souza,B.; Neese,F.; Izsák,R.
     An improved chain of spheres for exchange algorithm
     J. Chem. Phys., 2021 155 104109
     doi.org/doi: 10.1063/5.0058766.
  4. Neese,F.
     The SHARK Integral Generation and Digestion System
     J. Comp. Chem., 2022  1-16
     doi.org/10.1002/jcc.26942
  5. Grimme,S.; Antony,J.; Ehrlich,S.; Krieg,H.
     A consistent and accurate ab initio parametrization of density functional dispersion correction (DFT-D) for the 94 elements H-Pu
     J. Chem. Phys., 2010 132 154104-XXXX
     doi.org/10.1063/1.3382344

List of suggested additional citations. These are papers that are important in the 'surrounding' of 
of this run, or papers that preceded the highly important papers. If you like your results we are grateful for a citation.

  1. Izsak,R.; Neese,F.
     An overlap fitted chain of spheres exchange method
     J. Chem. Phys., 2011 135 144105
     doi.org/10.1063/1.3646921
  2. Izsak,R.; Hansen,A.; Neese,F.
     The resolution of identity and chain of spheres approximations for the LPNO-CCSD singles Fock term
     Molec. Phys., 2012 110 2413-2417
     doi.org/10.1080/00268976.2012.687466
  3. Neese,F.
     The ORCA program system
     WIRES Comput. Molec. Sci., 2012 2(1)73-78
     doi.org/10.1002/wcms.81
  4. Izsak,R.; Neese,F.; Klopper,W.
     Robust fitting techniques in the chain of spheres approximation to the Fock exchange: The role of the complementary space
     J. Chem. Phys., 2013 139 
     doi.org/10.1063/1.4819264
  5. Neese,F.
     Software update: the ORCA program system, version 4.0
     WIRES Comput. Molec. Sci., 2018 8(1)1-6
     doi.org/10.1002/wcms.1327
  6. Neese,F.; Wennmohs,F.; Becker,U.; Riplinger,C.
     The ORCA quantum chemistry program package
     J. Chem. Phys., 2020 152 Art. No. L224108
     doi.org/10.1063/5.0004608

List of optional additional citations

  1. Neese,F.
     Approximate second-order SCF convergence for spin unrestricted wavefunctions
     Chem. Phys. Lett., 2000 325(1-3)93-98
     doi.org/10.1016/s0009-2614(00)00662-x

Timings for individual modules:

Sum of individual times          ...      103.878 sec (=   1.731 min)
Startup calculation              ...        3.964 sec (=   0.066 min)   3.8 %
SCF iterations                   ...       99.632 sec (=   1.661 min)  95.9 %
Property calculations            ...        0.282 sec (=   0.005 min)   0.3 %
                             ****ORCA TERMINATED NORMALLY****
TOTAL RUN TIME: 0 days 0 hours 1 minutes 44 seconds 113 msec
