
                                 *****************
                                 * O   R   C   A *
                                 *****************

                                            #,                                       
                                            ###                                      
                                            ####                                     
                                            #####                                    
                                            ######                                   
                                           ########,                                 
                                     ,,################,,,,,                         
                               ,,#################################,,                 
                          ,,##########################################,,             
                       ,#########################################, ''#####,          
                    ,#############################################,,   '####,        
                  ,##################################################,,,,####,       
                ,###########''''           ''''###############################       
              ,#####''   ,,,,##########,,,,          '''####'''          '####       
            ,##' ,,,,###########################,,,                        '##       
           ' ,,###''''                  '''############,,,                           
         ,,##''                                '''############,,,,        ,,,,,,###''
      ,#''                                            '''#######################'''  
     '                                                          ''''####''''         
             ,#######,   #######,   ,#######,      ##                                
            ,#'     '#,  ##    ##  ,#'     '#,    #''#        ,####,   ,####,        
            ##       ##  ##   ,#'  ##            #'  '#       #'       #'  '#        
            ##       ##  #######   ##           ,######,      #####,   #    #        
            '#,     ,#'  ##    ##  '#,     ,#' ,#      #,     #,   #   #,  ,#        
             '#######'   ##     ##  '#######'  #'      '#     '####' # '####'        



                #########################################################
                #                        -***-                          #
                #          Department of theory and spectroscopy        #
                #                                                       #
                #                      Frank Neese                      #
                #                                                       #
                #     Directorship, Architecture, Infrastructure        #
                #                    SHARK, DRIVERS                     #
                #        Core code/Algorithms in most modules           #
                #                                                       #
                #        Max Planck Institute fuer Kohlenforschung      #
                #                Kaiser Wilhelm Platz 1                 #
                #                 D-45470 Muelheim/Ruhr                 #
                #                      Germany                          #
                #                                                       #
                #                  All rights reserved                  #
                #                        -***-                          #
                #########################################################


                         Program Version 6.0.0  -   RELEASE   -


 With contributions from (in alphabetic order):
   Daniel Aravena         : Magnetic Suceptibility
   Michael Atanasov       : Ab Initio Ligand Field Theory (pilot matlab implementation)
   Alexander A. Auer      : GIAO ZORA, VPT2 properties, NMR spectrum
   Ute Becker             : All parallelization in ORCA, NUMFREQ, NUMCALC
   Giovanni Bistoni       : ED, misc. LED, open-shell LED, HFLD
   Martin Brehm           : Molecular dynamics
   Dmytro Bykov           : pre 5.0 version of the SCF Hessian
   Marcos Casanova-Páez   : Triplet and SCS-CIS(D). UHF-(DLPNO)-IP/EA/STEOM-CCSD. UHF-CVS-IP/STEOM-CCSD
   Vijay G. Chilkuri      : MRCI spin determinant printing, contributions to CSF-ICE
   Pauline Colinet        : FMM embedding
   Dipayan Datta          : RHF DLPNO-CCSD density
   Achintya Kumar Dutta   : EOM-CC, STEOM-CC
   Nicolas Foglia         : Exact transition moments, OPA infrastructure, MCD improvements
   Dmitry Ganyushin       : Spin-Orbit,Spin-Spin,Magnetic field MRCI
   Miquel Garcia          : C-PCM and meta-GGA Hessian, CCSD/C-PCM, Gaussian charge scheme
   Tiago L. C. Gouveia    : GS-ROHF, GS-ROCIS
   Yang Guo               : DLPNO-NEVPT2, F12-NEVPT2, CIM, IAO-localization
   Andreas Hansen         : Spin unrestricted coupled pair/coupled cluster methods
   Ingolf Harden          : AUTO-CI MPn and infrastructure 
   Benjamin Helmich-Paris : MC-RPA, TRAH-(SCF,CASSCF), AVAS, COSX integrals, SCF dyn. polar.
   Lee Huntington         : MR-EOM, pCC
   Robert Izsak           : Overlap fitted RIJCOSX, COSX-SCS-MP3, EOM
   Riya Kayal             : Wick's Theorem for AUTO-CI, AUTO-CI UHF-CCSDT
   Emily Kempfer          : AUTO-CI, RHF CISDT and CCSDT
   Christian Kollmar      : KDIIS, OOCD, Brueckner-CCSD(T), CCSD density, CASPT2, CASPT2-K, improved NEVPT2
   Axel Koslowski         : Symmetry handling
   Simone Kossmann        : Meta GGA functionals, TD-DFT gradient, OOMP2, (MP2 Hessian; deprecated post 5.0)
   Lucas Lang             : DCDCAS
   Marvin Lechner         : AUTO-CI (C++ implementation), FIC-MRCC
   Spencer Leger          : CASSCF response
   Dagmar Lenk            : GEPOL surface, SMD, ORCA-2-JSON
   Dimitrios Liakos       : Extrapolation schemes; Compound Job, initial MDCI parallelization
   Dimitrios Manganas     : Further ROCIS development; embedding schemes. LFT, Crystal Embedding
   Dimitrios Pantazis     : SARC Basis sets
   Anastasios Papadopoulos: AUTO-CI, single reference methods and gradients
   Taras Petrenko         : pre 6.0 DFT Hessian and TD-DFT gradient, (ASA, deprecated), ECA, 1-Electron XAS/XES, NRVS
   Peter Pinski           : DLPNO-MP2, DLPNO-MP2 Gradient
   Christoph Reimann      : Effective Core Potentials
   Marius Retegan         : Local ZFS, SOC
   Christoph Riplinger    : Optimizer, TS searches, QM/MM, DLPNO-CCSD(T), (RO)-DLPNO pert. Triples
   Michael Roemelt        : Original ROCIS implementation
   Masaaki Saitow         : Open-shell DLPNO-CCSD energy and density
   Barbara Sandhoefer     : DKH picture change effects
   Kantharuban Sivalingam : CASSCF convergence/infrastructure, NEVPT2 and variants, FIC-MRCI
   Bernardo de Souza      : ESD, SOC TD-DFT
   Georgi Stoychev        : AutoAux, RI-MP2 NMR, DLPNO-MP2 response, X2C
   Van Anh Tran           : RI-MP2 g-tensors
   Willem Van den Heuvel  : Paramagnetic NMR
   Zikuan Wang            : NOTCH, Electric field optimization 
   Frank Wennmohs         : Technical directorship and infrastructure
   Hang Xu                : AUTO-CI-Response properties 


 We gratefully acknowledge several colleagues who have allowed us to
 interface, adapt or use parts of their codes:
   Stefan Grimme, W. Hujo, H. Kruse, P. Pracht,  : VdW corrections, initial TS optimization,
                  C. Bannwarth, S. Ehlert,         DFT functionals, gCP, sTDA/sTD-DF
                  L. Wittmann, M. Mueller
   Ed Valeev, F. Pavosevic, A. Kumar             : LibInt (2-el integral package), F12 methods
   Garnet Chan, S. Sharma, J. Yang, R. Olivares  : DMRG
   Ulf Ekstrom                                   : XCFun DFT Library
   Mihaly Kallay                                 : mrcc  (arbitrary order and MRCC methods)
   Frank Weinhold                                : gennbo (NPA and NBO analysis)
   Simon Mueller                                 : openCOSMO-RS
   Christopher J. Cramer and Donald G. Truhlar   : smd solvation model
   Lars Goerigk                                  : TD-DFT with DH, B97 family of functionals
   V. Asgeirsson, H. Jonsson                     : NEB implementation
   FAccTs GmbH                                   : IRC, NEB, NEB-TS, DLPNO-Multilevel, CI-OPT
                                                   MM, QMMM, 2- and 3-layer-ONIOM, Crystal-QMMM,
                                                   LR-CPCM, SF, NACMEs, symmetry and pop. for TD-DFT,
                                                   nearIR, NL-DFT gradient (VV10), updates on ESD,
                                                   ML-optimized integration grids, MBIS, APM,
                                                   GOAT, DOCKER, SOLVATOR, interface openCOSMO-RS
   S Lehtola, MJT Oliveira, MAL Marques          : LibXC Library
   Liviu Ungur et al                             : ANISO software


 Your calculation uses the libint2 library for the computation of 2-el integrals
 For citations please refer to: http://libint.valeyev.net

 Your ORCA version has been built with support for libXC version: 6.2.2
 For citations please refer to: https://libxc.gitlab.io

 This ORCA versions uses:
   CBLAS   interface :  Fast vector & matrix operations
   LAPACKE interface :  Fast linear algebra routines
   Shared memory     :  Shared parallel matrices


Your calculation utilizes the atom-pairwise dispersion correction
with the zero-damping scheme (D30)


XCFun DFT library Copyright 2009-2010 Ulf Ekstrom and contributors.
See http://admol.org/xcfun for more information.
This is free software; see the source code for copying conditions.
There is ABSOLUTELY NO WARRANTY; not even for MERCHANTABILITY or FITNESS FOR A PARTICULAR PURPOSE.
For details see the documentation.
Scientific users of this library should cite U. Ekstrom, L. Visscher, R. Bast, A. J. Thorvaldsen and K. Ruud;
J.Chem.Theor.Comp. 2010, DOI: 10.1021/ct100117s
XCFun Version 0.99 

Warning: RI is on but no J-basis has been assigned. Assigning Def2/J (nothing to worry about!)
================================================================================

----- Orbital basis set information -----
Your calculation utilizes the basis: def2-TZVP
   F. Weigend and R. Ahlrichs, Phys. Chem. Chem. Phys. 7, 3297 (2005).

----- AuxJ basis set information -----
Your calculation utilizes the auxiliary basis: def2/J
   F. Weigend, Phys. Chem. Chem. Phys. 8, 1057 (2006).

================================================================================
                                        WARNINGS
                       Please study these warnings very carefully!
================================================================================

WARNING: Functional chosen is sensitive to the integration grid.
         DEFGRID3 seems to be a minimum grid for robust results!

================================================================================
                                       INPUT FILE
================================================================================
NAME = data/single_point_PO_M06-2x/80757/80757.inp
|  1> ! RIJCOSX M062X def2-TZVP D3ZERO NormalSCF
|  2> %pal
|  3> nprocs 6
|  4> end
|  5> 
|  6> * xyz 0 1
|  7>   C           5.22051783441943     -0.21606785429760      0.74939679869469
|  8>   C           4.15293752573314     -0.71846111115664     -0.22722947305117
|  9>   C           2.72299959584200     -0.44827369840549      0.25729139749912
| 10>   C           1.64382333177851     -0.94347400430031     -0.71354643730880
| 11>   P          -0.03725780644501     -0.75063320560819      0.01539502946370
| 12>   O          -0.17217685280375     -1.37519462851257      1.39801947788019
| 13>   C          -1.20302656519620     -1.38330466014251     -1.26778319284941
| 14>   C          -2.67997052925210     -1.11350661025168     -0.93661158401134
| 15>   C          -3.20334377705210     -1.91170000428746      0.26679863371145
| 16>   C          -4.64567228075900     -1.55489168209880      0.63275287099823
| 17>   C          -0.33278221686798      1.06127141197902      0.06153925828076
| 18>   C          -0.62213069100565      1.62061278240601      1.32122951905584
| 19>   C          -0.86008432675806      2.99955253708357      1.43930104450569
| 20>   C          -0.81011868741944      3.82199168661974      0.30107921131483
| 21>   C          -0.52184537614404      3.26631309909264     -0.95849990292616
| 22>   C          -0.28346576962355      1.88841519680659     -1.07947285244445
| 23>   H           5.11200388564549     -0.69712623746687      1.74404719826023
| 24>   H           5.14077797361328      0.88066931088082      0.90369603824224
| 25>   H           6.24530490156939     -0.42917319349541      0.38300227881688
| 26>   H           4.30046554292101     -0.24358193111831     -1.22350279164321
| 27>   H           4.28014499810588     -1.81176023724328     -0.39397499518499
| 28>   H           2.55469855721611     -0.93399475093105      1.24280247373623
| 29>   H           2.58773127351299      0.64274941803683      0.43014877139504
| 30>   H           1.77142972237364     -2.02768509851492     -0.92645410175241
| 31>   H           1.68662045529397     -0.40944825816409     -1.68786356256219
| 32>   H          -1.00369697482951     -2.47346980189840     -1.35970922498849
| 33>   H          -0.91501974702242     -0.91844084296893     -2.23558761864901
| 34>   H          -2.81566226411779     -0.02449448644800     -0.74864808083447
| 35>   H          -3.29640113022923     -1.34136285262177     -1.83473791152362
| 36>   H          -3.12792762616614     -2.99833673600561      0.03632804088920
| 37>   H          -2.52648195900531     -1.74530838732336      1.13110332264239
| 38>   H          -4.73407956353108     -0.48417799909537      0.91461081609866
| 39>   H          -5.34077590007904     -1.73067091165332     -0.21629572830960
| 40>   H          -5.00859660565698     -2.15525947295574      1.49155910022819
| 41>   H          -0.65262321115980      0.94699128540581      2.19221062643619
| 42>   H          -1.08599136816279      3.43563484380957      2.42471874877667
| 43>   H          -0.99711749880708      4.90300849504510      0.39353952128187
| 44>   H          -0.48348073667456      3.91109646382116     -1.85007064321614
| 45>   H          -0.05972313325626      1.46149312597883     -2.07058407695280
| 46> **                         ****END OF INPUT****
================================================================================

                       ****************************
                       * Single Point Calculation *
                       ****************************

---------------------------------
CARTESIAN COORDINATES (ANGSTROEM)
---------------------------------
  C      5.220518   -0.216068    0.749397
  C      4.152938   -0.718461   -0.227229
  C      2.723000   -0.448274    0.257291
  C      1.643823   -0.943474   -0.713546
  P     -0.037258   -0.750633    0.015395
  O     -0.172177   -1.375195    1.398019
  C     -1.203027   -1.383305   -1.267783
  C     -2.679971   -1.113507   -0.936612
  C     -3.203344   -1.911700    0.266799
  C     -4.645672   -1.554892    0.632753
  C     -0.332782    1.061271    0.061539
  C     -0.622131    1.620613    1.321230
  C     -0.860084    2.999553    1.439301
  C     -0.810119    3.821992    0.301079
  C     -0.521845    3.266313   -0.958500
  C     -0.283466    1.888415   -1.079473
  H      5.112004   -0.697126    1.744047
  H      5.140778    0.880669    0.903696
  H      6.245305   -0.429173    0.383002
  H      4.300466   -0.243582   -1.223503
  H      4.280145   -1.811760   -0.393975
  H      2.554699   -0.933995    1.242802
  H      2.587731    0.642749    0.430149
  H      1.771430   -2.027685   -0.926454
  H      1.686620   -0.409448   -1.687864
  H     -1.003697   -2.473470   -1.359709
  H     -0.915020   -0.918441   -2.235588
  H     -2.815662   -0.024494   -0.748648
  H     -3.296401   -1.341363   -1.834738
  H     -3.127928   -2.998337    0.036328
  H     -2.526482   -1.745308    1.131103
  H     -4.734080   -0.484178    0.914611
  H     -5.340776   -1.730671   -0.216296
  H     -5.008597   -2.155259    1.491559
  H     -0.652623    0.946991    2.192211
  H     -1.085991    3.435635    2.424719
  H     -0.997117    4.903008    0.393540
  H     -0.483481    3.911096   -1.850071
  H     -0.059723    1.461493   -2.070584

----------------------------
CARTESIAN COORDINATES (A.U.)
----------------------------
  NO LB      ZA    FRAG     MASS         X           Y           Z
   0 C     6.0000    0    12.011    9.865349   -0.408309    1.416155
   1 C     6.0000    0    12.011    7.847915   -1.357695   -0.429401
   2 C     6.0000    0    12.011    5.145723   -0.847115    0.486210
   3 C     6.0000    0    12.011    3.106376   -1.782907   -1.348407
   4 P    15.0000    0    30.974   -0.070407   -1.418491    0.029092
   5 O     8.0000    0    15.999   -0.325367   -2.598741    2.641874
   6 C     6.0000    0    12.011   -2.273391   -2.614067   -2.395763
   7 C     6.0000    0    12.011   -5.064410   -2.104223   -1.769939
   8 C     6.0000    0    12.011   -6.053442   -3.612589    0.504176
   9 C     6.0000    0    12.011   -8.779048   -2.938319    1.195730
  10 C     6.0000    0    12.011   -0.628867    2.005512    0.116292
  11 C     6.0000    0    12.011   -1.175657    3.062514    2.496762
  12 C     6.0000    0    12.011   -1.625324    5.668333    2.719885
  13 C     6.0000    0    12.011   -1.530902    7.222518    0.568957
  14 C     6.0000    0    12.011   -0.986145    6.172437   -1.811302
  15 C     6.0000    0    12.011   -0.535673    3.568588   -2.039908
  16 H     1.0000    0     1.008    9.660287   -1.317378    3.295772
  17 H     1.0000    0     1.008    9.714662    1.664224    1.707738
  18 H     1.0000    0     1.008   11.801916   -0.811020    0.723769
  19 H     1.0000    0     1.008    8.126702   -0.460303   -2.312085
  20 H     1.0000    0     1.008    8.088302   -3.423731   -0.744505
  21 H     1.0000    0     1.008    4.827681   -1.764994    2.348556
  22 H     1.0000    0     1.008    4.890103    1.214620    0.812863
  23 H     1.0000    0     1.008    3.347517   -3.831770   -1.750745
  24 H     1.0000    0     1.008    3.187251   -0.773745   -3.189600
  25 H     1.0000    0     1.008   -1.896712   -4.674181   -2.569478
  26 H     1.0000    0     1.008   -1.729137   -1.735602   -4.224648
  27 H     1.0000    0     1.008   -5.320831   -0.046288   -1.414740
  28 H     1.0000    0     1.008   -6.229295   -2.534808   -3.467152
  29 H     1.0000    0     1.008   -5.910927   -5.666035    0.068650
  30 H     1.0000    0     1.008   -4.774359   -3.298155    2.137476
  31 H     1.0000    0     1.008   -8.946114   -0.914964    1.728364
  32 H     1.0000    0     1.008  -10.092604   -3.270494   -0.408740
  33 H     1.0000    0     1.008   -9.464876   -4.072850    2.818638
  34 H     1.0000    0     1.008   -1.233279    1.789554    4.142678
  35 H     1.0000    0     1.008   -2.052226    6.492409    4.582054
  36 H     1.0000    0     1.008   -1.884279    9.265343    0.743682
  37 H     1.0000    0     1.008   -0.913646    7.390901   -3.496127
  38 H     1.0000    0     1.008   -0.112860    2.761822   -3.912837

--------------------------------
INTERNAL COORDINATES (ANGSTROEM)
--------------------------------
 C      0   0   0     0.000000000000     0.00000000     0.00000000
 C      1   0   0     1.531641464148     0.00000000     0.00000000
 C      2   1   0     1.533781012840   112.99286885     0.00000000
 C      3   2   1     1.533744063842   113.52493327   179.85492031
 P      4   3   2     1.842437795127   110.96347189   173.84653498
 O      5   4   3     1.523131801720   113.39365538   307.51580691
 C      5   4   3     1.845490806935   105.39022539   179.90776903
 C      7   5   4     1.537474908799   113.38379929   188.70594825
 C      8   7   5     1.535977995583   113.88472012   291.82858973
 C      9   8   7     1.530211160323   112.79105992   176.12477490
 C      5   4   3     1.836426505538   105.07244142    69.60215706
 C     11   5   4     1.408334073027   116.57695944   237.29709443
 C     12  11   5     1.404292585226   120.00088904   179.99313317
 C     13  12  11     1.405151828578   120.03993345     0.00000000
 C     14  13  12     1.406563094803   120.09561585     0.00000000
 C     15  14  13     1.403588942833   119.98805844     0.00000000
 H      1   2   3     1.110190011868   111.16251662    59.25731544
 H      1   2   3     1.110404930739   111.25519300   299.80559712
 H      1   2   3     1.108984834337   111.74028915   179.53760654
 H      2   1   3     1.113478907222   109.77186029   122.32170726
 H      2   1   3     1.113233483723   109.75488334   238.01793095
 H      3   2   1     1.111522497233   110.13732833   301.45060014
 H      3   2   1     1.112883026804   109.57756854    57.44078318
 H      4   3   2     1.112262002101   110.80376394    55.86928066
 H      4   3   2     1.111894307873   111.87065974   296.28284240
 H      7   5   4     1.112044386380   106.27959391    66.21479207
 H      7   5   4     1.111616706617   107.35710979   312.04165206
 H      8   7   5     1.113413638873   108.96985081    54.44651495
 H      8   7   5     1.112895346912   108.80396376   169.12461272
 H      9   8   7     1.113365922188   108.77934774   298.36481367
 H      9   8   7     1.110338095462   108.92210630    52.80123395
 H     10   9   8     1.110714877831   111.13029162   298.82858466
 H     10   9   8     1.111283448595   111.71383855    58.57370443
 H     10   9   8     1.108920055399   111.55859832   178.97852888
 H     12  11   5     1.101500705592   118.03860460     0.05283637
 H     13  12  11     1.101022171206   119.92975433   180.01214649
 H     14  13  12     1.100960855107   120.04183836   179.97233155
 H     15  14  13     1.100961315366   120.06347656   179.95989334
 H     16  15  14     1.102100123054   119.48981010   179.91571202

---------------------------
INTERNAL COORDINATES (A.U.)
---------------------------
 C      0   0   0     0.000000000000     0.00000000     0.00000000
 C      1   0   0     2.894382902597     0.00000000     0.00000000
 C      2   1   0     2.898426063676   112.99286885     0.00000000
 C      3   2   1     2.898356240189   113.52493327   179.85492031
 P      4   3   2     3.481702851575   110.96347189   173.84653498
 O      5   4   3     2.878301971116   113.39365538   307.51580691
 C      5   4   3     3.487472207776   105.39022539   179.90776903
 C      7   5   4     2.905406515406   113.38379929   188.70594825
 C      8   7   5     2.902577759381   113.88472012   291.82858973
 C      9   8   7     2.891680020080   112.79105992   176.12477490
 C      5   4   3     3.470343160541   105.07244142    69.60215706
 C     11   5   4     2.661365703091   116.57695944   237.29709443
 C     12  11   5     2.653728397973   120.00088904   179.99313317
 C     13  12  11     2.655352132591   120.03993345     0.00000000
 C     14  13  12     2.658019039258   120.09561585     0.00000000
 C     15  14  13     2.652398706555   119.98805844     0.00000000
 H      1   2   3     2.097955079046   111.16251662    59.25731544
 H      1   2   3     2.098361216853   111.25519300   299.80559712
 H      1   2   3     2.095677623568   111.74028915   179.53760654
 H      2   1   3     2.104170190547   109.77186029   122.32170726
 H      2   1   3     2.103706407347   109.75488334   238.01793095
 H      3   2   1     2.100473111463   110.13732833   301.45060014
 H      3   2   1     2.103044139748   109.57756854    57.44078318
 H      4   3   2     2.101870573138   110.80376394    55.86928066
 H      4   3   2     2.101175731745   111.87065974   296.28284240
 H      7   5   4     2.101459339024   106.27959391    66.21479207
 H      7   5   4     2.100651141397   107.35710979   312.04165206
 H      8   7   5     2.104046851243   108.96985081    54.44651495
 H      8   7   5     2.103067421379   108.80396376   169.12461272
 H      9   8   7     2.103956679776   108.77934774   298.36481367
 H      9   8   7     2.098234916482   108.92210630    52.80123395
 H     10   9   8     2.098946931972   111.13029162   298.82858466
 H     10   9   8     2.100021375004   111.71383855    58.57370443
 H     10   9   8     2.095555209116   111.55859832   178.97852888
 H     12  11   5     2.081534669890   118.03860460     0.05283637
 H     13  12  11     2.080630370954   119.92975433   180.01214649
 H     14  13  12     2.080514500320   120.04183836   179.97233155
 H     15  14  13     2.080515370084   120.06347656   179.95989334
 H     16  15  14     2.082667404732   119.48981010   179.91571202

---------------------
BASIS SET INFORMATION
---------------------
There are 4 groups of distinct atoms

 Group   1 Type C   : 11s6p2d1f contracted to 5s3p2d1f pattern {62111/411/11/1}
 Group   2 Type P   : 14s9p3d1f contracted to 5s5p2d1f pattern {73211/51111/21/1}
 Group   3 Type O   : 11s6p2d1f contracted to 5s3p2d1f pattern {62111/411/11/1}
 Group   4 Type H   : 5s1p contracted to 3s1p pattern {311/1}

Atom   0C    basis set group =>   1
Atom   1C    basis set group =>   1
Atom   2C    basis set group =>   1
Atom   3C    basis set group =>   1
Atom   4P    basis set group =>   2
Atom   5O    basis set group =>   3
Atom   6C    basis set group =>   1
Atom   7C    basis set group =>   1
Atom   8C    basis set group =>   1
Atom   9C    basis set group =>   1
Atom  10C    basis set group =>   1
Atom  11C    basis set group =>   1
Atom  12C    basis set group =>   1
Atom  13C    basis set group =>   1
Atom  14C    basis set group =>   1
Atom  15C    basis set group =>   1
Atom  16H    basis set group =>   4
Atom  17H    basis set group =>   4
Atom  18H    basis set group =>   4
Atom  19H    basis set group =>   4
Atom  20H    basis set group =>   4
Atom  21H    basis set group =>   4
Atom  22H    basis set group =>   4
Atom  23H    basis set group =>   4
Atom  24H    basis set group =>   4
Atom  25H    basis set group =>   4
Atom  26H    basis set group =>   4
Atom  27H    basis set group =>   4
Atom  28H    basis set group =>   4
Atom  29H    basis set group =>   4
Atom  30H    basis set group =>   4
Atom  31H    basis set group =>   4
Atom  32H    basis set group =>   4
Atom  33H    basis set group =>   4
Atom  34H    basis set group =>   4
Atom  35H    basis set group =>   4
Atom  36H    basis set group =>   4
Atom  37H    basis set group =>   4
Atom  38H    basis set group =>   4
---------------------------------
AUXILIARY/J BASIS SET INFORMATION
---------------------------------
There are 4 groups of distinct atoms

 Group   1 Type C   : 12s5p4d2f1g contracted to 6s4p3d1f1g pattern {711111/2111/211/2/1}
 Group   2 Type P   : 14s5p5d2f1g contracted to 8s4p3d1f1g pattern {71111111/2111/311/2/1}
 Group   3 Type O   : 12s5p4d2f1g contracted to 6s4p3d1f1g pattern {711111/2111/211/2/1}
 Group   4 Type H   : 5s2p1d contracted to 3s1p1d pattern {311/2/1}

Atom   0C    basis set group =>   1
Atom   1C    basis set group =>   1
Atom   2C    basis set group =>   1
Atom   3C    basis set group =>   1
Atom   4P    basis set group =>   2
Atom   5O    basis set group =>   3
Atom   6C    basis set group =>   1
Atom   7C    basis set group =>   1
Atom   8C    basis set group =>   1
Atom   9C    basis set group =>   1
Atom  10C    basis set group =>   1
Atom  11C    basis set group =>   1
Atom  12C    basis set group =>   1
Atom  13C    basis set group =>   1
Atom  14C    basis set group =>   1
Atom  15C    basis set group =>   1
Atom  16H    basis set group =>   4
Atom  17H    basis set group =>   4
Atom  18H    basis set group =>   4
Atom  19H    basis set group =>   4
Atom  20H    basis set group =>   4
Atom  21H    basis set group =>   4
Atom  22H    basis set group =>   4
Atom  23H    basis set group =>   4
Atom  24H    basis set group =>   4
Atom  25H    basis set group =>   4
Atom  26H    basis set group =>   4
Atom  27H    basis set group =>   4
Atom  28H    basis set group =>   4
Atom  29H    basis set group =>   4
Atom  30H    basis set group =>   4
Atom  31H    basis set group =>   4
Atom  32H    basis set group =>   4
Atom  33H    basis set group =>   4
Atom  34H    basis set group =>   4
Atom  35H    basis set group =>   4
Atom  36H    basis set group =>   4
Atom  37H    basis set group =>   4
Atom  38H    basis set group =>   4


           ************************************************************
           *        Program running with 6 parallel MPI-processes     *
           *              working on a common directory               *
           ************************************************************
------------------------------------------------------------------------------
                             ORCA STARTUP CALCULATIONS
                           -- RI-GTO INTEGRALS CHOSEN --
------------------------------------------------------------------------------
------------------------------------------------------------------------------
                   ___                                                        
                  /   \      - P O W E R E D   B Y -                         
                 /     \                                                     
                 |  |  |   _    _      __       _____    __    __             
                 |  |  |  | |  | |    /  \     |  _  \  |  |  /  |          
                  \  \/   | |  | |   /    \    | | | |  |  | /  /          
                 / \  \   | |__| |  /  /\  \   | |_| |  |  |/  /          
                |  |  |   |  __  | /  /__\  \  |    /   |      \           
                |  |  |   | |  | | |   __   |  |    \   |  |\   \          
                \     /   | |  | | |  |  |  |  | |\  \  |  | \   \       
                 \___/    |_|  |_| |__|  |__|  |_| \__\ |__|  \__/        
                                                                              
                      - O R C A' S   B I G   F R I E N D -                    
                                      &                                       
                       - I N T E G R A L  F E E D E R -                       
                                                                              
 v1 FN, 2020, v2 2021, v3 2022-2024                                           
------------------------------------------------------------------------------


----------------------
SHARK INTEGRAL PACKAGE
----------------------

Number of atoms                             ...     39
Number of basis functions                   ...    640
Number of shells                            ...    270
Maximum angular momentum                    ...      3
Integral batch strategy                     ... SHARK/LIBINT Hybrid
RI-J (if used) integral strategy            ... SPLIT-RIJ (Revised 2003 algorithm where possible)
Printlevel                                  ...      1
Contraction scheme used                     ... SEGMENTED contraction
Prescreening option                         ... SCHWARTZ
   Thresh                                   ... 1.000e-10
   Tcut                                     ... 1.000e-11
   Tpresel                                  ... 1.000e-11 
Coulomb Range Separation                    ... NOT USED
Exchange Range Separation                   ... NOT USED
Multipole approximations                    ... NOT USED
Finite Nucleus Model                        ... NOT USED
CABS basis                                  ... NOT available
Auxiliary Coulomb fitting basis             ... AVAILABLE
   # of basis functions in Aux-J            ...   1039
   # of shells in Aux-J                     ...    357
   Maximum angular momentum in Aux-J        ...      4
Auxiliary J/K fitting basis                 ... NOT available
Auxiliary Correlation fitting basis         ... NOT available
Auxiliary 'external' fitting basis          ... NOT available

Checking pre-screening integrals            ... done (  0.0 sec) Dimension = 270
Check shell pair data                       ... done (  0.0 sec)
Shell pair information
Shell pair cut-off parameter TPreSel        ...   1.0e-11
Total number of shell pairs                 ...     36585
Shell pairs after pre-screening             ...     26574
Total number of primitive shell pairs       ...    108780
Primitive shell pairs kept                  ...     53640
          la=0 lb=0:   7972 shell pairs
          la=1 lb=0:   7997 shell pairs
          la=1 lb=1:   2071 shell pairs
          la=2 lb=0:   3438 shell pairs
          la=2 lb=1:   1780 shell pairs
          la=2 lb=2:    412 shell pairs
          la=3 lb=0:   1613 shell pairs
          la=3 lb=1:    835 shell pairs
          la=3 lb=2:    368 shell pairs
          la=3 lb=3:     88 shell pairs

Calculating one electron integrals          ... done (  0.0 sec)
Calculating RI/J V-Matrix + Cholesky decomp.... done (  0.1 sec)
Calculating Nuclear repulsion               ... done (  0.0 sec) ENN=   1250.458554188288 Eh

Diagonalization of the overlap matrix:
Smallest eigenvalue                        ... 8.576e-06
Time for diagonalization                   ...    0.073 sec
Threshold for overlap eigenvalues          ... 1.000e-07
Number of eigenvalues below threshold      ... 0
Time for construction of square roots      ...    0.035 sec
Total time needed                          ...    0.112 sec

-------------------
DFT GRID GENERATION
-------------------

General Integration Accuracy     IntAcc      ... 4.388
Radial Grid Type                 RadialGrid  ... OptM3 with GC (2021)
Angular Grid (max. ang.)         AngularGrid ... 4 (Lebedev-302)
Angular grid pruning method      GridPruning ... 4 (adaptive)
Weight generation scheme         WeightScheme... mBecke (2022)
Basis function cutoff            BFCut       ... 1.0000e-10
Integration weight cutoff        WCut        ... 1.0000e-14
Partially contracted basis set               ... off
Rotationally invariant grid construction     ... off
Angular grids for H and He will be reduced by one unit

Total number of grid points                  ...   170067
Total number of batches                      ...     2677
Average number of points per batch           ...       63
Average number of grid points per atom       ...     4361

--------------------
COSX GRID GENERATION
--------------------

GRIDX 1
-------
General Integration Accuracy     IntAcc      ... 3.816
Radial Grid Type                 RadialGrid  ... OptM3 with GC (2021)
Angular Grid (max. ang.)         AngularGrid ... 1 (Lebedev-50)
Angular grid pruning method      GridPruning ... 4 (adaptive)
Weight generation scheme         WeightScheme... mBecke (2022)
Basis function cutoff            BFCut       ... 1.0000e-10
Integration weight cutoff        WCut        ... 1.0000e-14
Partially contracted basis set               ... on
Rotationally invariant grid construction     ... off
Angular grids for H and He will be reduced by one unit

Total number of grid points                  ...    22721
Total number of batches                      ...      200
Average number of points per batch           ...      113
Average number of grid points per atom       ...      583
UseSFitting                                  ... on

GRIDX 2
-------
General Integration Accuracy     IntAcc      ... 4.020
Radial Grid Type                 RadialGrid  ... OptM3 with GC (2021)
Angular Grid (max. ang.)         AngularGrid ... 2 (Lebedev-110)
Angular grid pruning method      GridPruning ... 4 (adaptive)
Weight generation scheme         WeightScheme... mBecke (2022)
Basis function cutoff            BFCut       ... 1.0000e-10
Integration weight cutoff        WCut        ... 1.0000e-14
Partially contracted basis set               ... on
Rotationally invariant grid construction     ... off
Angular grids for H and He will be reduced by one unit

Total number of grid points                  ...    45329
Total number of batches                      ...      376
Average number of points per batch           ...      120
Average number of grid points per atom       ...     1162
UseSFitting                                  ... on

GRIDX 3
-------
General Integration Accuracy     IntAcc      ... 4.338
Radial Grid Type                 RadialGrid  ... OptM3 with GC (2021)
Angular Grid (max. ang.)         AngularGrid ... 3 (Lebedev-194)
Angular grid pruning method      GridPruning ... 4 (adaptive)
Weight generation scheme         WeightScheme... mBecke (2022)
Basis function cutoff            BFCut       ... 1.0000e-10
Integration weight cutoff        WCut        ... 1.0000e-14
Partially contracted basis set               ... on
Rotationally invariant grid construction     ... off
Angular grids for H and He will be reduced by one unit

Total number of grid points                  ...    98887
Total number of batches                      ...      792
Average number of points per batch           ...      124
Average number of grid points per atom       ...     2536
UseSFitting                                  ... on
Initializing property integral containers    ... done (  0.0 sec)

SHARK setup successfully completed in   3.3 seconds

Maximum memory used throughout the entire STARTUP-calculation: 66.3 MB


           ************************************************************
           *        Program running with 6 parallel MPI-processes     *
           *              working on a common directory               *
           ************************************************************
-------------------------------------------------------------------------------
                                 ORCA GUESS
                   Start orbitals & Density for SCF / CASSCF
-------------------------------------------------------------------------------

------------
SCF SETTINGS
------------
Hamiltonian:
 Density Functional     Method          .... DFT(GTOs)
 Exchange Functional    Exchange        .... M062X
 Correlation Functional Correlation     .... M062X
 Gradients option       PostSCFGGA      .... off
 Hybrid DFT is turned on
   Fraction HF Exchange ScalHFX         ....  0.540000
   Scaling of DF-GGA-X  ScalDFX         ....  0.460000
   Scaling of DF-GGA-C  ScalDFC         ....  1.000000
   Scaling of DF-LDA-C  ScalLDAC        ....  1.000000
   Perturbative correction              ....  0.000000
 RI-approximation to the Coulomb term is turned on
   Number of AuxJ basis functions       .... 1039
   RIJ-COSX (HFX calculated with COS-X)).... on


General Settings:
 Integral files         IntName         .... data/single_point_PO_M06-2x/80757/80757
 Hartree-Fock type      HFTyp           .... RHF
 Total Charge           Charge          ....    0
 Multiplicity           Mult            ....    1
 Number of Electrons    NEL             ....  130
 Basis Dimension        Dim             ....  640
 Nuclear Repulsion      ENuc            ....   1250.4585541883 Eh

Convergence Acceleration:
 AO-DIIS                CNVDIIS         .... on
   Start iteration      DIISMaxIt       ....    12
   Startup error        DIISStart       ....  0.200000
   # of expansion vecs  DIISMaxEq       ....     5
   Bias factor          DIISBfac        ....   1.050
   Max. coefficient     DIISMaxC        ....  10.000
 MO-DIIS                CNVKDIIS        .... off
 Trust-Rad. Augm. Hess. CNVTRAH         .... auto
   Auto Start mean grad. ratio tolernc. ....  1.125000
   Auto Start start iteration           ....    50
   Auto Start num. interpolation iter.  ....    10
   Max. Number of Micro iterations      ....    24
   Max. Number of Macro iterations      .... Maxiter - #DIIS iter
   Number of Davidson start vectors     ....     2
   Converg. threshold    (grad. norm)   ....   5.000e-05
   Grad. Scal. Fac. for Micro threshold ....   0.100
   Minimum threshold for Micro iter.    ....   1.000e-02
   NR start threshold (gradient norm)   ....   1.000e-04
   Initial trust radius                 ....   0.400
   Minimum AH scaling param. (alpha)    ....   1.000
   Maximum AH scaling param. (alpha)    .... 1000.000
   Quad. conv. algorithm                .... NR
   White noise on init. David. guess    .... on
   Maximum white noise                  ....   0.010
   Pseudo random numbers                .... off
   Inactive MOs                         .... canonical
   Orbital update algorithm             .... Taylor
   Preconditioner                       .... Diag
   Full preconditioner red. dimension   ....   250
 SOSCF                  CNVSOSCF        .... on
   Start iteration      SOSCFMaxIt      ....   150
   Startup grad/error   SOSCFStart      ....  0.003300
   Hessian update       SOSCFHessUp     .... L-BFGS
 Level Shifting         CNVShift        .... on
   Level shift para.    LevelShift      ....    0.2500
   Turn off err/grad.   ShiftErr        ....    0.0010
 Zerner damping         CNVZerner       .... off
 Static damping         CNVDamp         .... on
   Fraction old density DampFac         ....    0.7000
   Max. Damping (<1)    DampMax         ....    0.9800
   Min. Damping (>=0)   DampMin         ....    0.0000
   Turn off err/grad.   DampErr         ....    0.1000

SCF Procedure:
 Maximum # iterations   MaxIter         ....   125
 SCF integral mode      SCFMode         .... Direct
   Integral package                     .... SHARK and LIBINT hybrid scheme
 Reset frequency        DirectResetFreq ....    20
 Integral Threshold     Thresh          ....  1.000e-10 Eh
 Primitive CutOff       TCut            ....  1.000e-11 Eh

Convergence Tolerance:
 Convergence Check Mode ConvCheckMode   .... Total+1el-Energy
 Convergence forced     ConvForced      .... 0
 Energy Change          TolE            ....  1.000e-06 Eh
 1-El. energy change                    ....  1.000e-03 Eh
 Orbital Gradient       TolG            ....  5.000e-05
 Orbital Rotation angle TolX            ....  5.000e-05
 DIIS Error             TolErr          ....  1.000e-05

------------------------------
INITIAL GUESS: MODEL POTENTIAL
------------------------------
Loading Hartree-Fock densities                     ... done
Calculating cut-offs                               ... done
Initializing the effective Hamiltonian             ... done
Setting up the integral package (SHARK)            ... done
Starting the Coulomb interaction                   ... done (   0.5 sec)
Making the grid                                    ... done (   0.2 sec)
Mapping shells                                     ... done
Starting the XC term evaluation                    ... done (   0.3 sec)
  promolecular density results
     # of electrons  =    129.994604645
     EX              =   -109.007264677
     EC              =     -4.353462272
     EX+EC           =   -113.360726949
Transforming the Hamiltonian                       ... done (   0.0 sec)
Diagonalizing the Hamiltonian                      ... done (   0.1 sec)
Back transforming the eigenvectors                 ... done (   0.0 sec)
Now organizing SCF variables                       ... done
                      ------------------
                      INITIAL GUESS DONE (   1.3 sec)
                      ------------------
             **** ENERGY FILE WAS UPDATED (data/single_point_PO_M06-2x/80757/80757.en.tmp) ****
Finished Guess after   1.5 sec
Maximum memory used throughout the entire GUESS-calculation: 46.0 MB


           ************************************************************
           *        Program running with 6 parallel MPI-processes     *
           *              working on a common directory               *
           ************************************************************

-------------------------------------------------------------------------------------------
                                      ORCA LEAN-SCF
                              memory conserving SCF solver
-------------------------------------------------------------------------------------------

----------------------------------------D-I-I-S--------------------------------------------
Iteration    Energy (Eh)           Delta-E    RMSDP     MaxDP     DIISErr   Damp  Time(sec)
-------------------------------------------------------------------------------------------
               ***  Starting incremental Fock matrix formation  ***
    1    -963.3198098345035305     0.00e+00  1.32e-03  1.12e-01  3.60e-01  0.700  11.9
    2    -963.5751233450025666    -2.55e-01  1.05e-03  1.05e-01  1.55e-01  0.700   7.1
                               ***Turning on AO-DIIS***
    3    -963.6891098242083444    -1.14e-01  5.69e-04  1.95e-02  4.76e-02  0.700   6.8
    4    -963.7564846391226183    -6.74e-02  1.27e-03  5.25e-02  3.28e-02  0.000   6.3
    5    -963.9017343887260267    -1.45e-01  1.33e-04  1.67e-02  5.06e-03  0.000   6.6
    6    -963.9020958172243354    -3.61e-04  5.32e-05  7.32e-03  3.40e-03  0.000   6.1
                              *** Initializing SOSCF ***
---------------------------------------S-O-S-C-F--------------------------------------
Iteration    Energy (Eh)           Delta-E    RMSDP     MaxDP     MaxGrad    Time(sec)
--------------------------------------------------------------------------------------
    7    -963.9021271802891988    -3.14e-05  1.95e-05  1.45e-03  1.13e-03     5.6
               *** Restarting incremental Fock matrix formation ***
    8    -963.9021166734244161     1.05e-05  7.42e-05  3.89e-03  4.65e-05    11.5
    9    -963.9021174840152071    -8.11e-07  2.03e-05  1.04e-03  2.61e-05     8.3
                 **** Energy Check signals convergence ****

               *****************************************************
               *                     SUCCESS                       *
               *           SCF CONVERGED AFTER   9 CYCLES          *
               *****************************************************

Recomputing exchange energy using gridx3       ... done (   17.526 sec)
Old exchange energy                            :    -60.252205171 Eh
New exchange energy                            :    -60.252228363 Eh
Exchange energy change after final integration :     -0.000023192 Eh
Total energy after final integration           :   -963.902140676 Eh
             **** ENERGY FILE WAS UPDATED (data/single_point_PO_M06-2x/80757/80757.en.tmp) ****

----------------
TOTAL SCF ENERGY
----------------

Total Energy       :       -963.90214067591455 Eh          -26229.11071 eV

Components:
Nuclear Repulsion  :       1250.45855418828774 Eh           34026.70714 eV
Electronic Energy  :      -2214.36067167230294 Eh          -60255.81722 eV
One Electron Energy:      -3798.14230418738771 Eh         -103352.70645 eV
Two Electron Energy:       1583.78163251508477 Eh           43096.88922 eV

Virial components:
Potential Energy   :      -1922.94305686903226 Eh          -52325.94078 eV
Kinetic Energy     :        959.04091619311771 Eh           26096.83007 eV
Virial Ratio       :          2.00506883950488

DFT components:
N(Alpha)           :       65.000047244872 electrons
N(Beta)            :       65.000047244872 electrons
N(Total)           :      130.000094489744 electrons
E(XC)              :      -55.879282767835 Eh       

---------------
SCF CONVERGENCE
---------------

  Last Energy change         ...    8.1059e-07  Tolerance :   1.0000e-06
  Last MAX-Density change    ...    1.0417e-03  Tolerance :   1.0000e-05
  Last RMS-Density change    ...    2.0310e-05  Tolerance :   1.0000e-06
  Last DIIS Error            ...    1.1326e-03  Tolerance :   1.0000e-05
  Last Orbital Gradient      ...    2.6146e-05  Tolerance :   5.0000e-05
  Last Orbital Rotation      ...    7.5321e-05  Tolerance :   5.0000e-05


----------------
ORBITAL ENERGIES
----------------

  NO   OCC          E(Eh)            E(eV) 
   0   2.0000     -78.087801     -2124.8771 
   1   2.0000     -19.561219      -532.2878 
   2   2.0000     -10.565601      -287.5046 
   3   2.0000     -10.560781      -287.3734 
   4   2.0000     -10.560036      -287.3532 
   5   2.0000     -10.557839      -287.2934 
   6   2.0000     -10.557104      -287.2734 
   7   2.0000     -10.555919      -287.2412 
   8   2.0000     -10.551307      -287.1157 
   9   2.0000     -10.549675      -287.0712 
  10   2.0000     -10.541577      -286.8509 
  11   2.0000     -10.540070      -286.8099 
  12   2.0000     -10.537958      -286.7524 
  13   2.0000     -10.528342      -286.4908 
  14   2.0000     -10.523480      -286.3584 
  15   2.0000     -10.520955      -286.2898 
  16   2.0000      -6.894601      -187.6116 
  17   2.0000      -5.011808      -136.3782 
  18   2.0000      -5.011341      -136.3655 
  19   2.0000      -5.009898      -136.3262 
  20   2.0000      -1.056601       -28.7516 
  21   2.0000      -0.964300       -26.2399 
  22   2.0000      -0.902356       -24.5544 
  23   2.0000      -0.894522       -24.3412 
  24   2.0000      -0.857146       -23.3241 
  25   2.0000      -0.849266       -23.1097 
  26   2.0000      -0.831314       -22.6212 
  27   2.0000      -0.818268       -22.2662 
  28   2.0000      -0.745763       -20.2932 
  29   2.0000      -0.712225       -19.3806 
  30   2.0000      -0.698371       -19.0037 
  31   2.0000      -0.692162       -18.8347 
  32   2.0000      -0.663152       -18.0453 
  33   2.0000      -0.653846       -17.7921 
  34   2.0000      -0.622880       -16.9494 
  35   2.0000      -0.582930       -15.8623 
  36   2.0000      -0.547542       -14.8994 
  37   2.0000      -0.537223       -14.6186 
  38   2.0000      -0.526915       -14.3381 
  39   2.0000      -0.525542       -14.3007 
  40   2.0000      -0.513197       -13.9648 
  41   2.0000      -0.501630       -13.6500 
  42   2.0000      -0.496638       -13.5142 
  43   2.0000      -0.494193       -13.4477 
  44   2.0000      -0.488783       -13.3005 
  45   2.0000      -0.476909       -12.9773 
  46   2.0000      -0.468654       -12.7527 
  47   2.0000      -0.454738       -12.3741 
  48   2.0000      -0.446056       -12.1378 
  49   2.0000      -0.437362       -11.9012 
  50   2.0000      -0.428741       -11.6666 
  51   2.0000      -0.421853       -11.4792 
  52   2.0000      -0.417537       -11.3618 
  53   2.0000      -0.408457       -11.1147 
  54   2.0000      -0.401118       -10.9150 
  55   2.0000      -0.396563       -10.7910 
  56   2.0000      -0.395277       -10.7560 
  57   2.0000      -0.389875       -10.6090 
  58   2.0000      -0.383206       -10.4276 
  59   2.0000      -0.380584       -10.3562 
  60   2.0000      -0.378607       -10.3024 
  61   2.0000      -0.328751        -8.9458 
  62   2.0000      -0.322402        -8.7730 
  63   2.0000      -0.317579        -8.6418 
  64   2.0000      -0.313945        -8.5429 
  65   0.0000      -0.006407        -0.1743 
  66   0.0000       0.006857         0.1866 
  67   0.0000       0.050020         1.3611 
  68   0.0000       0.070150         1.9089 
  69   0.0000       0.072423         1.9707 
  70   0.0000       0.082660         2.2493 
  71   0.0000       0.087336         2.3765 
  72   0.0000       0.097079         2.6417 
  73   0.0000       0.099957         2.7200 
  74   0.0000       0.104575         2.8456 
  75   0.0000       0.110710         3.0126 
*Only the first 10 virtual orbitals were printed.

                    ********************************
                    * MULLIKEN POPULATION ANALYSIS *
                    ********************************

-----------------------
MULLIKEN ATOMIC CHARGES
-----------------------
   0 C :   -0.429879
   1 C :   -0.232761
   2 C :   -0.296871
   3 C :   -0.382053
   4 P :    0.619804
   5 O :   -0.609145
   6 C :   -0.386246
   7 C :   -0.294081
   8 C :   -0.256912
   9 C :   -0.432574
  10 C :   -0.127172
  11 C :   -0.129483
  12 C :   -0.139965
  13 C :   -0.133528
  14 C :   -0.153944
  15 C :   -0.169267
  16 H :    0.141971
  17 H :    0.138139
  18 H :    0.142343
  19 H :    0.128154
  20 H :    0.133795
  21 H :    0.179256
  22 H :    0.153992
  23 H :    0.169695
  24 H :    0.169501
  25 H :    0.178940
  26 H :    0.175701
  27 H :    0.169704
  28 H :    0.148115
  29 H :    0.124650
  30 H :    0.185700
  31 H :    0.138427
  32 H :    0.130305
  33 H :    0.144157
  34 H :    0.199621
  35 H :    0.151082
  36 H :    0.149002
  37 H :    0.146674
  38 H :    0.155147
Sum of atomic charges:   -0.0000000

--------------------------------
MULLIKEN REDUCED ORBITAL CHARGES
--------------------------------
  0 C s       :     3.317001  s :     3.317001
      pz      :     1.006205  p :     3.054826
      px      :     1.000985
      py      :     1.047636
      dz2     :     0.018148  d :     0.054761
      dxz     :     0.006052
      dyz     :     0.008818
      dx2y2   :     0.017938
      dxy     :     0.003805
      f0      :     0.000404  f :     0.003290
      f+1     :     0.000529
      f-1     :     0.000507
      f+2     :     0.000608
      f-2     :     0.000381
      f+3     :     0.000389
      f-3     :     0.000474

  1 C s       :     3.247676  s :     3.247676
      pz      :     0.975983  p :     2.891221
      px      :     0.884028
      py      :     1.031210
      dz2     :     0.025037  d :     0.088894
      dxz     :     0.015162
      dyz     :     0.011142
      dx2y2   :     0.024446
      dxy     :     0.013106
      f0      :     0.000478  f :     0.004969
      f+1     :     0.000991
      f-1     :     0.000533
      f+2     :     0.000819
      f-2     :     0.000561
      f+3     :     0.000718
      f-3     :     0.000870

  2 C s       :     3.284710  s :     3.284710
      pz      :     0.979155  p :     2.917969
      px      :     0.892782
      py      :     1.046032
      dz2     :     0.024064  d :     0.089009
      dxz     :     0.016609
      dyz     :     0.011760
      dx2y2   :     0.023068
      dxy     :     0.013508
      f0      :     0.000454  f :     0.005183
      f+1     :     0.001077
      f-1     :     0.000525
      f+2     :     0.000847
      f-2     :     0.000592
      f+3     :     0.000814
      f-3     :     0.000874

  3 C s       :     3.239814  s :     3.239814
      pz      :     0.991605  p :     3.068791
      px      :     0.980859
      py      :     1.096326
      dz2     :     0.021320  d :     0.069745
      dxz     :     0.008795
      dyz     :     0.012535
      dx2y2   :     0.019698
      dxy     :     0.007396
      f0      :     0.000414  f :     0.003703
      f+1     :     0.000619
      f-1     :     0.000527
      f+2     :     0.000748
      f-2     :     0.000420
      f+3     :     0.000505
      f-3     :     0.000469

  4 P s       :     5.326123  s :     5.326123
      pz      :     2.641169  p :     8.303138
      px      :     2.885769
      py      :     2.776199
      dz2     :     0.151374  d :     0.685218
      dxz     :     0.209543
      dyz     :     0.121126
      dx2y2   :     0.135857
      dxy     :     0.067318
      f0      :     0.014862  f :     0.065717
      f+1     :     0.013498
      f-1     :     0.008334
      f+2     :     0.008271
      f-2     :     0.010091
      f+3     :     0.006022
      f-3     :     0.004640

  5 O s       :     3.882897  s :     3.882897
      pz      :     1.416464  p :     4.700632
      px      :     1.662976
      py      :     1.621192
      dz2     :     0.008264  d :     0.024378
      dxz     :     0.005875
      dyz     :     0.007415
      dx2y2   :     0.001386
      dxy     :     0.001438
      f0      :     0.000357  f :     0.001238
      f+1     :     0.000221
      f-1     :     0.000370
      f+2     :     0.000136
      f-2     :     0.000129
      f+3     :     0.000013
      f-3     :     0.000011

  6 C s       :     3.256080  s :     3.256080
      pz      :     1.001779  p :     3.058276
      px      :     0.955665
      py      :     1.100832
      dz2     :     0.010001  d :     0.068284
      dxz     :     0.021250
      dyz     :     0.006381
      dx2y2   :     0.014132
      dxy     :     0.016521
      f0      :     0.000365  f :     0.003606
      f+1     :     0.000539
      f-1     :     0.000376
      f+2     :     0.000573
      f-2     :     0.000359
      f+3     :     0.000623
      f-3     :     0.000771

  7 C s       :     3.274869  s :     3.274869
      pz      :     1.002196  p :     2.921930
      px      :     0.897932
      py      :     1.021802
      dz2     :     0.022083  d :     0.092133
      dxz     :     0.027208
      dyz     :     0.005386
      dx2y2   :     0.024606
      dxy     :     0.012849
      f0      :     0.000727  f :     0.005149
      f+1     :     0.000909
      f-1     :     0.000574
      f+2     :     0.000970
      f-2     :     0.000476
      f+3     :     0.000605
      f-3     :     0.000888

  8 C s       :     3.261372  s :     3.261372
      pz      :     0.983850  p :     2.904189
      px      :     0.942298
      py      :     0.978041
      dz2     :     0.016301  d :     0.086426
      dxz     :     0.026666
      dyz     :     0.007212
      dx2y2   :     0.023942
      dxy     :     0.012305
      f0      :     0.000751  f :     0.004926
      f+1     :     0.000829
      f-1     :     0.000495
      f+2     :     0.000979
      f-2     :     0.000476
      f+3     :     0.000559
      f-3     :     0.000836

  9 C s       :     3.314716  s :     3.314716
      pz      :     1.059336  p :     3.058955
      px      :     0.935447
      py      :     1.064173
      dz2     :     0.005135  d :     0.055615
      dxz     :     0.020286
      dyz     :     0.006118
      dx2y2   :     0.014340
      dxy     :     0.009735
      f0      :     0.000247  f :     0.003287
      f+1     :     0.000650
      f-1     :     0.000304
      f+2     :     0.000634
      f-2     :     0.000282
      f+3     :     0.000512
      f-3     :     0.000659

 10 C s       :     3.252323  s :     3.252323
      pz      :     0.867114  p :     2.795413
      px      :     0.984898
      py      :     0.943401
      dz2     :     0.017629  d :     0.072332
      dxz     :     0.020268
      dyz     :     0.013797
      dx2y2   :     0.010590
      dxy     :     0.010048
      f0      :     0.001596  f :     0.007105
      f+1     :     0.001025
      f-1     :     0.000986
      f+2     :     0.001107
      f-2     :     0.000933
      f+3     :     0.000708
      f-3     :     0.000750

 11 C s       :     3.197864  s :     3.197864
      pz      :     0.986857  p :     2.861993
      px      :     0.915605
      py      :     0.959530
      dz2     :     0.011386  d :     0.063152
      dxz     :     0.009124
      dyz     :     0.020403
      dx2y2   :     0.007436
      dxy     :     0.014803
      f0      :     0.001247  f :     0.006474
      f+1     :     0.000674
      f-1     :     0.000907
      f+2     :     0.001288
      f-2     :     0.000382
      f+3     :     0.001102
      f-3     :     0.000875

 12 C s       :     3.226409  s :     3.226409
      pz      :     0.980198  p :     2.847700
      px      :     0.962700
      py      :     0.904803
      dz2     :     0.012688  d :     0.059625
      dxz     :     0.008324
      dyz     :     0.014264
      dx2y2   :     0.007657
      dxy     :     0.016693
      f0      :     0.001153  f :     0.006230
      f+1     :     0.000592
      f-1     :     0.000866
      f+2     :     0.001049
      f-2     :     0.000625
      f+3     :     0.001133
      f-3     :     0.000813

 13 C s       :     3.225457  s :     3.225457
      pz      :     0.882901  p :     2.840655
      px      :     0.951738
      py      :     1.006016
      dz2     :     0.013633  d :     0.061134
      dxz     :     0.019794
      dyz     :     0.014172
      dx2y2   :     0.007878
      dxy     :     0.005656
      f0      :     0.001422  f :     0.006282
      f+1     :     0.000962
      f-1     :     0.001008
      f+2     :     0.000892
      f-2     :     0.000889
      f+3     :     0.000464
      f-3     :     0.000646

 14 C s       :     3.233121  s :     3.233121
      pz      :     0.963171  p :     2.854645
      px      :     0.961972
      py      :     0.929503
      dz2     :     0.012190  d :     0.059868
      dxz     :     0.009607
      dyz     :     0.015546
      dx2y2   :     0.008648
      dxy     :     0.013877
      f0      :     0.001185  f :     0.006310
      f+1     :     0.000752
      f-1     :     0.000950
      f+2     :     0.001174
      f-2     :     0.000334
      f+3     :     0.001087
      f-3     :     0.000828

 15 C s       :     3.189396  s :     3.189396
      pz      :     0.966325  p :     2.906094
      px      :     0.973427
      py      :     0.966342
      dz2     :     0.013942  d :     0.067253
      dxz     :     0.008172
      dyz     :     0.017782
      dx2y2   :     0.008596
      dxy     :     0.018761
      f0      :     0.001216  f :     0.006523
      f+1     :     0.000561
      f-1     :     0.000885
      f+2     :     0.001093
      f-2     :     0.000651
      f+3     :     0.001212
      f-3     :     0.000906

 16 H s       :     0.839708  s :     0.839708
      pz      :     0.010033  p :     0.018321
      px      :     0.003463
      py      :     0.004825

 17 H s       :     0.843596  s :     0.843596
      pz      :     0.003730  p :     0.018265
      px      :     0.003459
      py      :     0.011076

 18 H s       :     0.839170  s :     0.839170
      pz      :     0.004154  p :     0.018486
      px      :     0.010539
      py      :     0.003793

 19 H s       :     0.853487  s :     0.853487
      pz      :     0.010238  p :     0.018359
      px      :     0.003486
      py      :     0.004634

 20 H s       :     0.847778  s :     0.847778
      pz      :     0.003707  p :     0.018426
      px      :     0.003430
      py      :     0.011289

 21 H s       :     0.801640  s :     0.801640
      pz      :     0.010700  p :     0.019105
      px      :     0.003605
      py      :     0.004799

 22 H s       :     0.827512  s :     0.827512
      pz      :     0.003733  p :     0.018497
      px      :     0.003404
      py      :     0.011360

 23 H s       :     0.810789  s :     0.810789
      pz      :     0.003898  p :     0.019517
      px      :     0.004199
      py      :     0.011420

 24 H s       :     0.811160  s :     0.811160
      pz      :     0.010061  p :     0.019339
      px      :     0.004048
      py      :     0.005230

 25 H s       :     0.801542  s :     0.801542
      pz      :     0.003863  p :     0.019518
      px      :     0.003998
      py      :     0.011656

 26 H s       :     0.804796  s :     0.804796
      pz      :     0.010287  p :     0.019503
      px      :     0.004358
      py      :     0.004858

 27 H s       :     0.811680  s :     0.811680
      pz      :     0.003610  p :     0.018616
      px      :     0.003410
      py      :     0.011596

 28 H s       :     0.833450  s :     0.833450
      pz      :     0.008700  p :     0.018435
      px      :     0.006066
      py      :     0.003668

 29 H s       :     0.856850  s :     0.856850
      pz      :     0.003657  p :     0.018500
      px      :     0.003473
      py      :     0.011370

 30 H s       :     0.794090  s :     0.794090
      pz      :     0.008876  p :     0.020209
      px      :     0.007871
      py      :     0.003462

 31 H s       :     0.843356  s :     0.843356
      pz      :     0.004061  p :     0.018216
      px      :     0.003574
      py      :     0.010581

 32 H s       :     0.851574  s :     0.851574
      pz      :     0.007616  p :     0.018120
      px      :     0.006844
      py      :     0.003661

 33 H s       :     0.837334  s :     0.837334
      pz      :     0.008272  p :     0.018508
      px      :     0.004587
      py      :     0.005650

 34 H s       :     0.779563  s :     0.779563
      pz      :     0.009379  p :     0.020815
      px      :     0.003450
      py      :     0.007986

 35 H s       :     0.829188  s :     0.829188
      pz      :     0.011213  p :     0.019730
      px      :     0.004177
      py      :     0.004340

 36 H s       :     0.831343  s :     0.831343
      pz      :     0.002765  p :     0.019655
      px      :     0.003998
      py      :     0.012892

 37 H s       :     0.833625  s :     0.833625
      pz      :     0.009590  p :     0.019701
      px      :     0.003769
      py      :     0.006342

 38 H s       :     0.825181  s :     0.825181
      pz      :     0.011160  p :     0.019672
      px      :     0.004245
      py      :     0.004267



                     *******************************
                     * LOEWDIN POPULATION ANALYSIS *
                     *******************************

----------------------
LOEWDIN ATOMIC CHARGES
----------------------
   0 C :   -0.323817
   1 C :   -0.304900
   2 C :   -0.293906
   3 C :   -0.367179
   4 P :    0.615238
   5 O :   -0.323931
   6 C :   -0.367950
   7 C :   -0.293706
   8 C :   -0.305318
   9 C :   -0.326099
  10 C :   -0.239978
  11 C :   -0.121209
  12 C :   -0.135825
  13 C :   -0.133377
  14 C :   -0.141721
  15 C :   -0.139569
  16 H :    0.124158
  17 H :    0.122592
  18 H :    0.122043
  19 H :    0.135743
  20 H :    0.137576
  21 H :    0.151219
  22 H :    0.144421
  23 H :    0.146033
  24 H :    0.139029
  25 H :    0.147317
  26 H :    0.141516
  27 H :    0.144768
  28 H :    0.139615
  29 H :    0.136848
  30 H :    0.149407
  31 H :    0.122150
  32 H :    0.119438
  33 H :    0.122988
  34 H :    0.162518
  35 H :    0.149531
  36 H :    0.148596
  37 H :    0.148427
  38 H :    0.147315

-------------------------------
LOEWDIN REDUCED ORBITAL CHARGES
-------------------------------
  0 C s       :     2.844743  s :     2.844743
      pz      :     1.067678  p :     3.194676
      px      :     1.053950
      py      :     1.073049
      dz2     :     0.073684  d :     0.260284
      dxz     :     0.041266
      dyz     :     0.040970
      dx2y2   :     0.081651
      dxy     :     0.022713
      f0      :     0.002854  f :     0.024115
      f+1     :     0.003802
      f-1     :     0.004061
      f+2     :     0.003386
      f-2     :     0.003977
      f+3     :     0.002574
      f-3     :     0.003461

  1 C s       :     2.791580  s :     2.791580
      pz      :     1.030024  p :     3.075370
      px      :     1.015141
      py      :     1.030205
      dz2     :     0.093736  d :     0.400128
      dxz     :     0.085754
      dyz     :     0.049153
      dx2y2   :     0.107818
      dxy     :     0.063666
      f0      :     0.003772  f :     0.037822
      f+1     :     0.007220
      f-1     :     0.004368
      f+2     :     0.005250
      f-2     :     0.005604
      f+3     :     0.004657
      f-3     :     0.006951

  2 C s       :     2.787603  s :     2.787603
      pz      :     1.032645  p :     3.070231
      px      :     1.005398
      py      :     1.032188
      dz2     :     0.089082  d :     0.398050
      dxz     :     0.088215
      dyz     :     0.048233
      dx2y2   :     0.109348
      dxy     :     0.063172
      f0      :     0.003622  f :     0.038022
      f+1     :     0.007504
      f-1     :     0.004286
      f+2     :     0.005200
      f-2     :     0.005807
      f+3     :     0.004761
      f-3     :     0.006842

  3 C s       :     2.839427  s :     2.839427
      pz      :     1.056124  p :     3.182228
      px      :     1.075929
      py      :     1.050175
      dz2     :     0.076857  d :     0.318890
      dxz     :     0.059614
      dyz     :     0.052146
      dx2y2   :     0.094944
      dxy     :     0.035329
      f0      :     0.003107  f :     0.026634
      f+1     :     0.004779
      f-1     :     0.003976
      f+2     :     0.003926
      f-2     :     0.003855
      f+3     :     0.003329
      f-3     :     0.003663

  4 P s       :     4.662228  s :     4.662228
      pz      :     2.749682  p :     8.308531
      px      :     2.794430
      py      :     2.764419
      dz2     :     0.280810  d :     1.191167
      dxz     :     0.329742
      dyz     :     0.221110
      dx2y2   :     0.235694
      dxy     :     0.123810
      f0      :     0.049982  f :     0.222836
      f+1     :     0.042387
      f-1     :     0.035963
      f+2     :     0.029097
      f-2     :     0.031220
      f+3     :     0.018681
      f-3     :     0.015506

  5 O s       :     3.542458  s :     3.542458
      pz      :     1.543406  p :     4.737872
      px      :     1.603443
      py      :     1.591022
      dz2     :     0.017045  d :     0.041529
      dxz     :     0.007082
      dyz     :     0.013923
      dx2y2   :     0.001971
      dxy     :     0.001507
      f0      :     0.000573  f :     0.002072
      f+1     :     0.000306
      f-1     :     0.000764
      f+2     :     0.000244
      f-2     :     0.000146
      f+3     :     0.000017
      f-3     :     0.000023

  6 C s       :     2.839833  s :     2.839833
      pz      :     1.066469  p :     3.185274
      px      :     1.062901
      py      :     1.055905
      dz2     :     0.050954  d :     0.316653
      dxz     :     0.091765
      dyz     :     0.031420
      dx2y2   :     0.079049
      dxy     :     0.063465
      f0      :     0.002622  f :     0.026189
      f+1     :     0.003987
      f-1     :     0.003014
      f+2     :     0.003368
      f-2     :     0.003682
      f+3     :     0.003725
      f-3     :     0.005790

  7 C s       :     2.789093  s :     2.789093
      pz      :     1.031937  p :     3.066123
      px      :     0.999558
      py      :     1.034627
      dz2     :     0.084175  d :     0.400750
      dxz     :     0.113718
      dyz     :     0.040345
      dx2y2   :     0.106797
      dxy     :     0.055714
      f0      :     0.005266  f :     0.037740
      f+1     :     0.006749
      f-1     :     0.004334
      f+2     :     0.005624
      f-2     :     0.004813
      f+3     :     0.004239
      f-3     :     0.006716

  8 C s       :     2.789468  s :     2.789468
      pz      :     1.031001  p :     3.086030
      px      :     1.032014
      py      :     1.023015
      dz2     :     0.077327  d :     0.392193
      dxz     :     0.111820
      dyz     :     0.044609
      dx2y2   :     0.103975
      dxy     :     0.054462
      f0      :     0.005563  f :     0.037627
      f+1     :     0.006159
      f-1     :     0.004311
      f+2     :     0.005736
      f-2     :     0.004887
      f+3     :     0.004343
      f-3     :     0.006627

  9 C s       :     2.844604  s :     2.844604
      pz      :     1.068373  p :     3.193929
      px      :     1.051242
      py      :     1.074315
      dz2     :     0.028670  d :     0.263326
      dxz     :     0.086608
      dyz     :     0.029818
      dx2y2   :     0.071636
      dxy     :     0.046595
      f0      :     0.002158  f :     0.024240
      f+1     :     0.004702
      f-1     :     0.002341
      f+2     :     0.002803
      f-2     :     0.003024
      f+3     :     0.003774
      f-3     :     0.005437

 10 C s       :     2.773286  s :     2.773286
      pz      :     1.062562  p :     2.990783
      px      :     0.891778
      py      :     1.036444
      dz2     :     0.140180  d :     0.432147
      dxz     :     0.077768
      dyz     :     0.113321
      dx2y2   :     0.064720
      dxy     :     0.036156
      f0      :     0.011656  f :     0.043763
      f+1     :     0.003849
      f-1     :     0.008262
      f+2     :     0.008065
      f-2     :     0.007138
      f+3     :     0.002106
      f-3     :     0.002688

 11 C s       :     2.777200  s :     2.777200
      pz      :     1.018042  p :     2.923558
      px      :     0.866844
      py      :     1.038672
      dz2     :     0.080852  d :     0.379489
      dxz     :     0.035325
      dyz     :     0.154758
      dx2y2   :     0.052804
      dxy     :     0.055750
      f0      :     0.009892  f :     0.040962
      f+1     :     0.004484
      f-1     :     0.006834
      f+2     :     0.007401
      f-2     :     0.002910
      f+3     :     0.004841
      f-3     :     0.004601

 12 C s       :     2.778420  s :     2.778420
      pz      :     1.004280  p :     2.944616
      px      :     0.888188
      py      :     1.052147
      dz2     :     0.091399  d :     0.372405
      dxz     :     0.029314
      dyz     :     0.132703
      dx2y2   :     0.057208
      dxy     :     0.061782
      f0      :     0.009093  f :     0.040384
      f+1     :     0.003096
      f-1     :     0.006872
      f+2     :     0.007544
      f-2     :     0.004321
      f+3     :     0.004425
      f-3     :     0.005034

 13 C s       :     2.779514  s :     2.779514
      pz      :     1.064327  p :     2.939610
      px      :     0.882508
      py      :     0.992775
      dz2     :     0.133205  d :     0.373845
      dxz     :     0.074436
      dyz     :     0.098976
      dx2y2   :     0.048499
      dxy     :     0.018730
      f0      :     0.010797  f :     0.040410
      f+1     :     0.003948
      f-1     :     0.008124
      f+2     :     0.007102
      f-2     :     0.006962
      f+3     :     0.001186
      f-3     :     0.002291

 14 C s       :     2.778154  s :     2.778154
      pz      :     1.015582  p :     2.949139
      px      :     0.897318
      py      :     1.036238
      dz2     :     0.081794  d :     0.373876
      dxz     :     0.034599
      dyz     :     0.151187
      dx2y2   :     0.051340
      dxy     :     0.054957
      f0      :     0.009814  f :     0.040552
      f+1     :     0.004512
      f-1     :     0.006833
      f+2     :     0.007156
      f-2     :     0.002733
      f+3     :     0.004875
      f-3     :     0.004629

 15 C s       :     2.774792  s :     2.774792
      pz      :     0.999099  p :     2.940635
      px      :     0.892309
      py      :     1.049226
      dz2     :     0.094822  d :     0.383231
      dxz     :     0.030587
      dyz     :     0.132765
      dx2y2   :     0.058570
      dxy     :     0.066486
      f0      :     0.009204  f :     0.040912
      f+1     :     0.003186
      f-1     :     0.006784
      f+2     :     0.007620
      f-2     :     0.004534
      f+3     :     0.004504
      f-3     :     0.005081

 16 H s       :     0.818197  s :     0.818197
      pz      :     0.029364  p :     0.057645
      px      :     0.011994
      py      :     0.016286

 17 H s       :     0.819883  s :     0.819883
      pz      :     0.012341  p :     0.057525
      px      :     0.011913
      py      :     0.033271

 18 H s       :     0.820235  s :     0.820235
      pz      :     0.014445  p :     0.057722
      px      :     0.030252
      py      :     0.013024

 19 H s       :     0.809323  s :     0.809323
      pz      :     0.027463  p :     0.054934
      px      :     0.011684
      py      :     0.015787

 20 H s       :     0.807415  s :     0.807415
      pz      :     0.012053  p :     0.055009
      px      :     0.011540
      py      :     0.031415

 21 H s       :     0.791657  s :     0.791657
      pz      :     0.029017  p :     0.057124
      px      :     0.011781
      py      :     0.016326

 22 H s       :     0.799534  s :     0.799534
      pz      :     0.012372  p :     0.056045
      px      :     0.011518
      py      :     0.032155

 23 H s       :     0.794884  s :     0.794884
      pz      :     0.012634  p :     0.059083
      px      :     0.013530
      py      :     0.032919

 24 H s       :     0.801921  s :     0.801921
      pz      :     0.028506  p :     0.059049
      px      :     0.013359
      py      :     0.017185

 25 H s       :     0.793451  s :     0.793451
      pz      :     0.012636  p :     0.059232
      px      :     0.012810
      py      :     0.033785

 26 H s       :     0.799398  s :     0.799398
      pz      :     0.029262  p :     0.059086
      px      :     0.013569
      py      :     0.016255

 27 H s       :     0.799045  s :     0.799045
      pz      :     0.012584  p :     0.056187
      px      :     0.011244
      py      :     0.032359

 28 H s       :     0.804867  s :     0.804867
      pz      :     0.024934  p :     0.055518
      px      :     0.017459
      py      :     0.013125

 29 H s       :     0.807955  s :     0.807955
      pz      :     0.012885  p :     0.055196
      px      :     0.011752
      py      :     0.030559

 30 H s       :     0.790423  s :     0.790423
      pz      :     0.025868  p :     0.060170
      px      :     0.021974
      py      :     0.012328

 31 H s       :     0.820468  s :     0.820468
      pz      :     0.013445  p :     0.057382
      px      :     0.011640
      py      :     0.032297

 32 H s       :     0.823312  s :     0.823312
      pz      :     0.024859  p :     0.057250
      px      :     0.019686
      py      :     0.012705

 33 H s       :     0.819330  s :     0.819330
      pz      :     0.025265  p :     0.057682
      px      :     0.013733
      py      :     0.018684

 34 H s       :     0.778506  s :     0.778506
      pz      :     0.026013  p :     0.058976
      px      :     0.011114
      py      :     0.021849

 35 H s       :     0.794581  s :     0.794581
      pz      :     0.029500  p :     0.055888
      px      :     0.012765
      py      :     0.013623

 36 H s       :     0.795614  s :     0.795614
      pz      :     0.010089  p :     0.055790
      px      :     0.012338
      py      :     0.033363

 37 H s       :     0.795683  s :     0.795683
      pz      :     0.025757  p :     0.055890
      px      :     0.011935
      py      :     0.018198

 38 H s       :     0.796698  s :     0.796698
      pz      :     0.029339  p :     0.055987
      px      :     0.013136
      py      :     0.013513



                      *****************************
                      * MAYER POPULATION ANALYSIS *
                      *****************************

  NA   - Mulliken gross atomic population
  ZA   - Total nuclear charge
  QA   - Mulliken gross atomic charge
  VA   - Mayer's total valence
  BVA  - Mayer's bonded valence
  FA   - Mayer's free valence

  ATOM       NA         ZA         QA         VA         BVA        FA
  0 C      6.4299     6.0000    -0.4299     3.8541     3.8541     0.0000
  1 C      6.2328     6.0000    -0.2328     3.7752     3.7752    -0.0000
  2 C      6.2969     6.0000    -0.2969     3.7119     3.7119    -0.0000
  3 C      6.3821     6.0000    -0.3821     3.7141     3.7141    -0.0000
  4 P     14.3802    15.0000     0.6198     4.8122     4.8122    -0.0000
  5 O      8.6091     8.0000    -0.6091     1.9387     1.9387    -0.0000
  6 C      6.3862     6.0000    -0.3862     3.7083     3.7083    -0.0000
  7 C      6.2941     6.0000    -0.2941     3.7378     3.7378    -0.0000
  8 C      6.2569     6.0000    -0.2569     3.7235     3.7235    -0.0000
  9 C      6.4326     6.0000    -0.4326     3.8503     3.8503    -0.0000
 10 C      6.1272     6.0000    -0.1272     3.7042     3.7042    -0.0000
 11 C      6.1295     6.0000    -0.1295     3.9019     3.9019    -0.0000
 12 C      6.1400     6.0000    -0.1400     3.9213     3.9213    -0.0000
 13 C      6.1335     6.0000    -0.1335     3.9314     3.9314    -0.0000
 14 C      6.1539     6.0000    -0.1539     4.0146     4.0146    -0.0000
 15 C      6.1693     6.0000    -0.1693     3.9310     3.9310    -0.0000
 16 H      0.8580     1.0000     0.1420     0.9567     0.9567     0.0000
 17 H      0.8619     1.0000     0.1381     0.9564     0.9564     0.0000
 18 H      0.8577     1.0000     0.1423     0.9582     0.9582     0.0000
 19 H      0.8718     1.0000     0.1282     0.9490     0.9490    -0.0000
 20 H      0.8662     1.0000     0.1338     0.9505     0.9505     0.0000
 21 H      0.8207     1.0000     0.1793     0.9636     0.9636    -0.0000
 22 H      0.8460     1.0000     0.1540     0.9538     0.9538    -0.0000
 23 H      0.8303     1.0000     0.1697     0.9588     0.9588    -0.0000
 24 H      0.8305     1.0000     0.1695     0.9511     0.9511    -0.0000
 25 H      0.8211     1.0000     0.1789     0.9566     0.9566    -0.0000
 26 H      0.8243     1.0000     0.1757     0.9475     0.9475     0.0000
 27 H      0.8303     1.0000     0.1697     0.9488     0.9488    -0.0000
 28 H      0.8519     1.0000     0.1481     0.9515     0.9515    -0.0000
 29 H      0.8753     1.0000     0.1247     0.9527     0.9527    -0.0000
 30 H      0.8143     1.0000     0.1857     0.9716     0.9716    -0.0000
 31 H      0.8616     1.0000     0.1384     0.9561     0.9561    -0.0000
 32 H      0.8697     1.0000     0.1303     0.9550     0.9550     0.0000
 33 H      0.8558     1.0000     0.1442     0.9588     0.9588    -0.0000
 34 H      0.8004     1.0000     0.1996     0.9729     0.9729    -0.0000
 35 H      0.8489     1.0000     0.1511     0.9650     0.9650    -0.0000
 36 H      0.8510     1.0000     0.1490     0.9631     0.9631    -0.0000
 37 H      0.8533     1.0000     0.1467     0.9653     0.9653    -0.0000
 38 H      0.8449     1.0000     0.1551     0.9637     0.9637    -0.0000

  Mayer bond orders larger than 0.100000
B(  0-C ,  1-C ) :   0.9536 B(  0-C , 16-H ) :   0.9726 B(  0-C , 17-H ) :   0.9740 
B(  0-C , 18-H ) :   0.9799 B(  1-C ,  2-C ) :   0.9260 B(  1-C , 19-H ) :   0.9744 
B(  1-C , 20-H ) :   0.9744 B(  2-C ,  3-C ) :   0.9150 B(  2-C , 21-H ) :   0.9644 
B(  2-C , 22-H ) :   0.9645 B(  3-C ,  4-P ) :   0.9215 B(  3-C , 23-H ) :   0.9440 
B(  3-C , 24-H ) :   0.9531 B(  4-P ,  5-O ) :   1.8914 B(  4-P ,  6-C ) :   0.9085 
B(  4-P , 10-C ) :   0.8973 B(  6-C ,  7-C ) :   0.9234 B(  6-C , 25-H ) :   0.9416 
B(  6-C , 26-H ) :   0.9551 B(  7-C ,  8-C ) :   0.9140 B(  7-C , 27-H ) :   0.9736 
B(  7-C , 28-H ) :   0.9708 B(  8-C ,  9-C ) :   0.9427 B(  8-C , 29-H ) :   0.9684 
B(  8-C , 30-H ) :   0.9577 B(  9-C , 31-H ) :   0.9757 B(  9-C , 32-H ) :   0.9715 
B(  9-C , 33-H ) :   0.9817 B( 10-C , 11-C ) :   1.3997 B( 10-C , 15-C ) :   1.3564 
B( 11-C , 12-C ) :   1.4283 B( 11-C , 34-H ) :   0.9080 B( 12-C , 13-C ) :   1.4398 
B( 12-C , 35-H ) :   0.9472 B( 13-C , 14-C ) :   1.4343 B( 13-C , 36-H ) :   0.9459 
B( 14-C , 15-C ) :   1.4979 B( 14-C , 37-H ) :   0.9468 B( 15-C , 38-H ) :   0.9217 


-------
TIMINGS
-------

Total SCF time: 0 days 0 hours 1 min 28 sec 

Total time                  ....      88.284 sec
Sum of individual times     ....      88.320 sec  (100.0%)

SCF preparation             ....       0.252 sec  (  0.3%)
Fock matrix formation       ....      85.296 sec  ( 96.6%)
  Startup                   ....       0.088 sec  (  0.1% of F)
  Split-RI-J                ....       6.080 sec  (  7.1% of F)
  Chain of spheres X        ....      59.630 sec  ( 69.9% of F)
  XC integration            ....      19.249 sec  ( 22.6% of F)
    Basis function eval.    ....       2.684 sec  ( 13.9% of XC)
    Density eval.           ....       7.516 sec  ( 39.0% of XC)
    XC-Functional eval.     ....       0.427 sec  (  2.2% of XC)
    XC-Potential eval.      ....       6.891 sec  ( 35.8% of XC)
Diagonalization             ....       0.000 sec  (  0.0%)
Density matrix formation    ....       0.248 sec  (  0.3%)
Total Energy calculation    ....       0.084 sec  (  0.1%)
Population analysis         ....       0.154 sec  (  0.2%)
Orbital Transformation      ....       0.324 sec  (  0.4%)
Orbital Orthonormalization  ....       0.000 sec  (  0.0%)
DIIS solution               ....       1.567 sec  (  1.8%)
SOSCF solution              ....       0.395 sec  (  0.4%)
Finished LeanSCF after  88.3 sec

Maximum memory used throughout the entire LEANSCF-calculation: 88.2 MB


-------------------------------------------------------------------------------
                          DFT DISPERSION CORRECTION                            
                                                                               
                              DFTD3 V3.1  Rev 1                                
                              USING zero damping                               
-------------------------------------------------------------------------------
The M062X functional is recognized
Active option DFTDOPT                   ...         3   

molecular C6(AA) [au] = 14459.084855 


            DFT-D V3
 parameters
 s6 scaling factor         :     1.0000 
 rs6 scaling factor        :     1.6190 
 s8 scaling factor         :     0.0000 
 rs8 scaling factor        :     1.0000 
 Damping factor alpha6     :    14.0000 
 Damping factor alpha8     :    16.0000 
 ad hoc parameters k1-k3   :    16.0000     1.3333    -4.0000 

 Edisp/kcal,au: -1.454880478357  -0.002318499375 
 E6   /kcal   :  -1.454880478 
 E8   /kcal   :  -0.000000000 
 % E8         :   0.000000000 

-------------------------   ----------------
Dispersion correction           -0.002318499
-------------------------   ----------------


-------------------------   --------------------
FINAL SINGLE POINT ENERGY      -963.904459175289
-------------------------   --------------------



           ************************************************************
           *        Program running with 6 parallel MPI-processes     *
           *              working on a common directory               *
           ************************************************************

------------------------------------------------------------------------------
                              ORCA PROPERTY CALCULATIONS
------------------------------------------------------------------------------

GBWName                                 ... data/single_point_PO_M06-2x/80757/80757.gbw
Number of atoms                         ...     39
Number of basis functions               ...    640
Max core memory                         ...   1024 MB

Electric properties:
Dipole moment                           ... YES
Quadrupole moment                       ...  NO
Static polarizability (Dipole/Dipole)   ...  NO
Static polarizability (Dipole/Quad.)    ...  NO
Static polarizability (Quad./Quad.)     ...  NO
Static polarizability (Velocity)        ...  NO

Atomic electric properties:
Dipole moment                           ...  NO
Quadrupole moment                       ...  NO
Static polarizability                   ...  NO

Choice of electric origin               ... Center of mass
Position of electric origin             ...    -0.153404     0.213810     0.156431

General magnetic properties:
Magnetizability                         ...  NO

EPR properties:
g-Tensor (aka g-matrix)                 ...  NO
Zero-Field splitting spin-orbit         ...  NO
Zero-field splitting spin-spin          ...  NO
Hyperfine couplings                     ...  NO (   0 nuclei)
Quadrupole couplings                    ...  NO (   0 nuclei)
Contact density                         ...  NO (   0 nuclei)

NMR properties:
Chemical shifts                         ...  NO (   0 nuclei)
Spin-rotation constants                 ...  NO (   0 nuclei)
Spin-spin couplings                     ...  NO (   0 nuclei,    0 pairs)

Choice of magnetic origin               ... GIAO
Position of magnetic origin             ...     0.000000     0.000000     0.000000

Properties with geometric perturbations:
SCF Hessian                             ...  NO
IR spectrum                             ...  NO
VCD spectrum                            ...  NO
X-ray spectroscopy properties:
SCF XES/XAS/RIXS spectra                ...  NO


-------------
DIPOLE MOMENT
-------------

Method             : SCF
Type of density    : Electron Density
Multiplicity       :   1
Irrep              :   0
Energy             :  -963.9021406759145520 Eh
Relativity type    : 
Basis              : AO
                                X                 Y                 Z
Electronic contribution:     -3.035505194       6.488337588       1.573489601
Nuclear contribution   :      3.241804017      -5.672001482      -2.888347326
                        -----------------------------------------
Total Dipole Moment    :      0.206298823       0.816336106      -1.314857725
                        -----------------------------------------
Magnitude (a.u.)       :      1.561350274
Magnitude (Debye)      :      3.968637004



--------------------
Rotational spectrum 
--------------------
 
Rotational constants in cm-1:             0.017523             0.010329             0.007650 
Rotational constants in MHz :           525.340458           309.640682           229.344652 

Dipole components along the rotational axes: 
x,y,z [a.u.] :     0.244024     0.742165    -1.351835 
x,y,z [Debye]:     0.620261     1.886434    -3.436091 

 

Dipole moment calculation done in   0.0 sec 

Maximum memory used throughout the entire PROP-calculation: 45.9 MB

--------------------------------
SUGGESTED CITATIONS FOR THIS RUN
--------------------------------

Below you find a list of papers that are relevant to this ORCA run
We neither can nor want to force you to cite these papers, but we appreciate if you do
You receive ORCA, which is the product of decades of hard work by many enthusiastic individuals, for free
The only thing we kindly ask in return is that you cite our papers,
We deeply appreciate it, if you show your appreciation for ORCA by not just citing the generic ORCA reference.

Please note that relegating all ORCA citations to the supporting information does *not* help us.
SI sections are not indexed - citations you put there will not count into any citation statistics
But we need these citations in order to attract the funding resources that allow us to do what we are doing

Therefore, if you are a happy ORCA user, please consider citing a few of the papers listed below in the main body of your paper

In addition to the list printed below, the program has created the file data/single_point_PO_M06-2x/80757/80757.bibtex that contains the list in bibtex format
You can import this file easily into all common literature databanks and citation aid programs


List of essential papers. We consider these as the minimum necessary citations

  1. Neese,F.
     Software update: the ORCA program system, version 5.0
     WIRES Comput. Molec. Sci., 2022 12(1)e1606
     doi.org/10.1002/wcms.1606

List of papers to cite with high priority. The work reported in these papers was absolutely
necessary for this run to complete.
Our perspective: the developers of density functionals and basis sets usually get cited in chemistry papers
Good! But without the algorithms to do something with them, the functionals or basis sets would not do anything.
Hence, in our opinion, the algorithm design and method developments papers are equally worthy of getting cited

  1. Neese,F.
     An improvement of the resolution of the identity approximation for the formation of the Coulomb matrix
     J. Comp. Chem., 2003 24(14)1740-1747
     doi.org/10.1002/jcc.10318
  2. Neese,F.; Wennmohs,F.; Hansen,A.; Becker,U.
     Efficient, approximate and parallel Hartree-Fock and hybrid DFT calculations. A 'chain-of-spheres' algorithm for the Hartree-Fock exchange
     Chem. Phys., 2009 356(1-3)98-109
     doi.org/10.1016/j.chemphys.2008.10.036
  3. Helmich-Paris,B.; de Souza,B.; Neese,F.; Izsák,R.
     An improved chain of spheres for exchange algorithm
     J. Chem. Phys., 2021 155 104109
     doi.org/doi: 10.1063/5.0058766.
  4. Neese,F.
     The SHARK Integral Generation and Digestion System
     J. Comp. Chem., 2022  1-16
     doi.org/10.1002/jcc.26942
  5. Grimme,S.; Antony,J.; Ehrlich,S.; Krieg,H.
     A consistent and accurate ab initio parametrization of density functional dispersion correction (DFT-D) for the 94 elements H-Pu
     J. Chem. Phys., 2010 132 154104-XXXX
     doi.org/10.1063/1.3382344

List of suggested additional citations. These are papers that are important in the 'surrounding' of 
of this run, or papers that preceded the highly important papers. If you like your results we are grateful for a citation.

  1. Izsak,R.; Neese,F.
     An overlap fitted chain of spheres exchange method
     J. Chem. Phys., 2011 135 144105
     doi.org/10.1063/1.3646921
  2. Izsak,R.; Hansen,A.; Neese,F.
     The resolution of identity and chain of spheres approximations for the LPNO-CCSD singles Fock term
     Molec. Phys., 2012 110 2413-2417
     doi.org/10.1080/00268976.2012.687466
  3. Neese,F.
     The ORCA program system
     WIRES Comput. Molec. Sci., 2012 2(1)73-78
     doi.org/10.1002/wcms.81
  4. Izsak,R.; Neese,F.; Klopper,W.
     Robust fitting techniques in the chain of spheres approximation to the Fock exchange: The role of the complementary space
     J. Chem. Phys., 2013 139 
     doi.org/10.1063/1.4819264
  5. Neese,F.
     Software update: the ORCA program system, version 4.0
     WIRES Comput. Molec. Sci., 2018 8(1)1-6
     doi.org/10.1002/wcms.1327
  6. Neese,F.; Wennmohs,F.; Becker,U.; Riplinger,C.
     The ORCA quantum chemistry program package
     J. Chem. Phys., 2020 152 Art. No. L224108
     doi.org/10.1063/5.0004608

List of optional additional citations

  1. Neese,F.
     Approximate second-order SCF convergence for spin unrestricted wavefunctions
     Chem. Phys. Lett., 2000 325(1-3)93-98
     doi.org/10.1016/s0009-2614(00)00662-x

Timings for individual modules:

Sum of individual times          ...       93.646 sec (=   1.561 min)
Startup calculation              ...        3.393 sec (=   0.057 min)   3.6 %
SCF iterations                   ...       89.989 sec (=   1.500 min)  96.1 %
Property calculations            ...        0.264 sec (=   0.004 min)   0.3 %
                             ****ORCA TERMINATED NORMALLY****
TOTAL RUN TIME: 0 days 0 hours 1 minutes 33 seconds 899 msec
