
                                 *****************
                                 * O   R   C   A *
                                 *****************

                                            #,                                       
                                            ###                                      
                                            ####                                     
                                            #####                                    
                                            ######                                   
                                           ########,                                 
                                     ,,################,,,,,                         
                               ,,#################################,,                 
                          ,,##########################################,,             
                       ,#########################################, ''#####,          
                    ,#############################################,,   '####,        
                  ,##################################################,,,,####,       
                ,###########''''           ''''###############################       
              ,#####''   ,,,,##########,,,,          '''####'''          '####       
            ,##' ,,,,###########################,,,                        '##       
           ' ,,###''''                  '''############,,,                           
         ,,##''                                '''############,,,,        ,,,,,,###''
      ,#''                                            '''#######################'''  
     '                                                          ''''####''''         
             ,#######,   #######,   ,#######,      ##                                
            ,#'     '#,  ##    ##  ,#'     '#,    #''#        ,####,   ,####,        
            ##       ##  ##   ,#'  ##            #'  '#       #'       #'  '#        
            ##       ##  #######   ##           ,######,      #####,   #    #        
            '#,     ,#'  ##    ##  '#,     ,#' ,#      #,     #,   #   #,  ,#        
             '#######'   ##     ##  '#######'  #'      '#     '####' # '####'        



                #########################################################
                #                        -***-                          #
                #          Department of theory and spectroscopy        #
                #                                                       #
                #                      Frank Neese                      #
                #                                                       #
                #     Directorship, Architecture, Infrastructure        #
                #                    SHARK, DRIVERS                     #
                #        Core code/Algorithms in most modules           #
                #                                                       #
                #        Max Planck Institute fuer Kohlenforschung      #
                #                Kaiser Wilhelm Platz 1                 #
                #                 D-45470 Muelheim/Ruhr                 #
                #                      Germany                          #
                #                                                       #
                #                  All rights reserved                  #
                #                        -***-                          #
                #########################################################


                         Program Version 6.0.0  -   RELEASE   -


 With contributions from (in alphabetic order):
   Daniel Aravena         : Magnetic Suceptibility
   Michael Atanasov       : Ab Initio Ligand Field Theory (pilot matlab implementation)
   Alexander A. Auer      : GIAO ZORA, VPT2 properties, NMR spectrum
   Ute Becker             : All parallelization in ORCA, NUMFREQ, NUMCALC
   Giovanni Bistoni       : ED, misc. LED, open-shell LED, HFLD
   Martin Brehm           : Molecular dynamics
   Dmytro Bykov           : pre 5.0 version of the SCF Hessian
   Marcos Casanova-Páez   : Triplet and SCS-CIS(D). UHF-(DLPNO)-IP/EA/STEOM-CCSD. UHF-CVS-IP/STEOM-CCSD
   Vijay G. Chilkuri      : MRCI spin determinant printing, contributions to CSF-ICE
   Pauline Colinet        : FMM embedding
   Dipayan Datta          : RHF DLPNO-CCSD density
   Achintya Kumar Dutta   : EOM-CC, STEOM-CC
   Nicolas Foglia         : Exact transition moments, OPA infrastructure, MCD improvements
   Dmitry Ganyushin       : Spin-Orbit,Spin-Spin,Magnetic field MRCI
   Miquel Garcia          : C-PCM and meta-GGA Hessian, CCSD/C-PCM, Gaussian charge scheme
   Tiago L. C. Gouveia    : GS-ROHF, GS-ROCIS
   Yang Guo               : DLPNO-NEVPT2, F12-NEVPT2, CIM, IAO-localization
   Andreas Hansen         : Spin unrestricted coupled pair/coupled cluster methods
   Ingolf Harden          : AUTO-CI MPn and infrastructure 
   Benjamin Helmich-Paris : MC-RPA, TRAH-(SCF,CASSCF), AVAS, COSX integrals, SCF dyn. polar.
   Lee Huntington         : MR-EOM, pCC
   Robert Izsak           : Overlap fitted RIJCOSX, COSX-SCS-MP3, EOM
   Riya Kayal             : Wick's Theorem for AUTO-CI, AUTO-CI UHF-CCSDT
   Emily Kempfer          : AUTO-CI, RHF CISDT and CCSDT
   Christian Kollmar      : KDIIS, OOCD, Brueckner-CCSD(T), CCSD density, CASPT2, CASPT2-K, improved NEVPT2
   Axel Koslowski         : Symmetry handling
   Simone Kossmann        : Meta GGA functionals, TD-DFT gradient, OOMP2, (MP2 Hessian; deprecated post 5.0)
   Lucas Lang             : DCDCAS
   Marvin Lechner         : AUTO-CI (C++ implementation), FIC-MRCC
   Spencer Leger          : CASSCF response
   Dagmar Lenk            : GEPOL surface, SMD, ORCA-2-JSON
   Dimitrios Liakos       : Extrapolation schemes; Compound Job, initial MDCI parallelization
   Dimitrios Manganas     : Further ROCIS development; embedding schemes. LFT, Crystal Embedding
   Dimitrios Pantazis     : SARC Basis sets
   Anastasios Papadopoulos: AUTO-CI, single reference methods and gradients
   Taras Petrenko         : pre 6.0 DFT Hessian and TD-DFT gradient, (ASA, deprecated), ECA, 1-Electron XAS/XES, NRVS
   Peter Pinski           : DLPNO-MP2, DLPNO-MP2 Gradient
   Christoph Reimann      : Effective Core Potentials
   Marius Retegan         : Local ZFS, SOC
   Christoph Riplinger    : Optimizer, TS searches, QM/MM, DLPNO-CCSD(T), (RO)-DLPNO pert. Triples
   Michael Roemelt        : Original ROCIS implementation
   Masaaki Saitow         : Open-shell DLPNO-CCSD energy and density
   Barbara Sandhoefer     : DKH picture change effects
   Kantharuban Sivalingam : CASSCF convergence/infrastructure, NEVPT2 and variants, FIC-MRCI
   Bernardo de Souza      : ESD, SOC TD-DFT
   Georgi Stoychev        : AutoAux, RI-MP2 NMR, DLPNO-MP2 response, X2C
   Van Anh Tran           : RI-MP2 g-tensors
   Willem Van den Heuvel  : Paramagnetic NMR
   Zikuan Wang            : NOTCH, Electric field optimization 
   Frank Wennmohs         : Technical directorship and infrastructure
   Hang Xu                : AUTO-CI-Response properties 


 We gratefully acknowledge several colleagues who have allowed us to
 interface, adapt or use parts of their codes:
   Stefan Grimme, W. Hujo, H. Kruse, P. Pracht,  : VdW corrections, initial TS optimization,
                  C. Bannwarth, S. Ehlert,         DFT functionals, gCP, sTDA/sTD-DF
                  L. Wittmann, M. Mueller
   Ed Valeev, F. Pavosevic, A. Kumar             : LibInt (2-el integral package), F12 methods
   Garnet Chan, S. Sharma, J. Yang, R. Olivares  : DMRG
   Ulf Ekstrom                                   : XCFun DFT Library
   Mihaly Kallay                                 : mrcc  (arbitrary order and MRCC methods)
   Frank Weinhold                                : gennbo (NPA and NBO analysis)
   Simon Mueller                                 : openCOSMO-RS
   Christopher J. Cramer and Donald G. Truhlar   : smd solvation model
   Lars Goerigk                                  : TD-DFT with DH, B97 family of functionals
   V. Asgeirsson, H. Jonsson                     : NEB implementation
   FAccTs GmbH                                   : IRC, NEB, NEB-TS, DLPNO-Multilevel, CI-OPT
                                                   MM, QMMM, 2- and 3-layer-ONIOM, Crystal-QMMM,
                                                   LR-CPCM, SF, NACMEs, symmetry and pop. for TD-DFT,
                                                   nearIR, NL-DFT gradient (VV10), updates on ESD,
                                                   ML-optimized integration grids, MBIS, APM,
                                                   GOAT, DOCKER, SOLVATOR, interface openCOSMO-RS
   S Lehtola, MJT Oliveira, MAL Marques          : LibXC Library
   Liviu Ungur et al                             : ANISO software


 Your calculation uses the libint2 library for the computation of 2-el integrals
 For citations please refer to: http://libint.valeyev.net

 Your ORCA version has been built with support for libXC version: 6.2.2
 For citations please refer to: https://libxc.gitlab.io

 This ORCA versions uses:
   CBLAS   interface :  Fast vector & matrix operations
   LAPACKE interface :  Fast linear algebra routines
   Shared memory     :  Shared parallel matrices


Your calculation utilizes the atom-pairwise dispersion correction
with the zero-damping scheme (D30)


XCFun DFT library Copyright 2009-2010 Ulf Ekstrom and contributors.
See http://admol.org/xcfun for more information.
This is free software; see the source code for copying conditions.
There is ABSOLUTELY NO WARRANTY; not even for MERCHANTABILITY or FITNESS FOR A PARTICULAR PURPOSE.
For details see the documentation.
Scientific users of this library should cite U. Ekstrom, L. Visscher, R. Bast, A. J. Thorvaldsen and K. Ruud;
J.Chem.Theor.Comp. 2010, DOI: 10.1021/ct100117s
XCFun Version 0.99 

Warning: RI is on but no J-basis has been assigned. Assigning Def2/J (nothing to worry about!)
================================================================================

----- Orbital basis set information -----
Your calculation utilizes the basis: def2-TZVP
   F. Weigend and R. Ahlrichs, Phys. Chem. Chem. Phys. 7, 3297 (2005).

----- AuxJ basis set information -----
Your calculation utilizes the auxiliary basis: def2/J
   F. Weigend, Phys. Chem. Chem. Phys. 8, 1057 (2006).

================================================================================
                                        WARNINGS
                       Please study these warnings very carefully!
================================================================================

WARNING: Functional chosen is sensitive to the integration grid.
         DEFGRID3 seems to be a minimum grid for robust results!

================================================================================
                                       INPUT FILE
================================================================================
NAME = data/single_point_P_M06-2x/80970/80970.inp
|  1> ! RIJCOSX M062X def2-TZVP D3ZERO NormalSCF
|  2> %pal
|  3> nprocs 6
|  4> end
|  5> 
|  6> * xyz 0 1
|  7>   C           4.35174069058687     -1.51322454390768      0.43141649741193
|  8>   C           3.09492384184834     -2.38535270607946      0.56577873432253
|  9>   C           1.95021169728808     -1.87306454858415     -0.32377296575383
| 10>   C           1.62991366719269     -0.39213574119455     -0.04066141451531
| 11>   C           2.89672437102116      0.47707308595042     -0.17214377504981
| 12>   C           4.03645765515010     -0.03811785314375      0.72020809031004
| 13>   P           0.31481639293786      0.23135427142720     -1.23248560508608
| 14>   C          -1.18683989942934     -0.82442758145405     -0.75627291109619
| 15>   C          -1.52791292697086     -0.90494253113200      0.73959469403382
| 16>   C          -2.74446829816446     -1.81184480418847      0.99494816305632
| 17>   C          -3.96341373961721     -1.36410774467294      0.17515187610887
| 18>   C          -3.62644187444922     -1.28538988864145     -1.32131068989557
| 19>   C          -2.41293486131799     -0.37674558171726     -1.57551899902682
| 20>   C          -0.16699535428617      1.85156115301672     -0.46630728035646
| 21>   C          -0.77841347763262      2.80059123016031     -1.31667914249194
| 22>   C          -1.21510026047085      4.04072068738629     -0.82349659844695
| 23>   C          -1.02661266927697      4.36435936151815      0.53033035617651
| 24>   C          -0.40370474447804      3.43870273196646      1.38478439473854
| 25>   C           0.01754788311194      2.19310958219910      0.89222412132296
| 26>   H           5.15357976496905     -1.88093530593252      1.10643005884888
| 27>   H           4.74831302885037     -1.60391027866122     -0.60540744590459
| 28>   H           3.32499879559657     -3.44327672568837      0.31708016889042
| 29>   H           2.75794583281840     -2.37988410747618      1.62747707694057
| 30>   H           1.04756901945357     -2.50205083649312     -0.17364295389896
| 31>   H           2.23303058046455     -1.98273411526853     -1.39591530481971
| 32>   H           1.26119242193767     -0.31963091311491      1.00801775770535
| 33>   H           2.66169357249360      1.53443791250330      0.07038890292568
| 34>   H           3.22506177081374      0.46850669365492     -1.23643952931195
| 35>   H           3.74226126046114      0.07177431267737      1.78905201637972
| 36>   H           4.94248388813416      0.58935114214035      0.58130529843114
| 37>   H          -0.90316926430358     -1.84370465361911     -1.10959567921901
| 38>   H          -1.74937251303123      0.11931721087984      1.11323555693292
| 39>   H          -0.65621883969259     -1.27106801922764      1.32180922377727
| 40>   H          -2.48296207061708     -2.85903466859470      0.71927592401146
| 41>   H          -2.98733971967068     -1.82659693057339      2.07906485362365
| 42>   H          -4.82044977611103     -2.04986140977305      0.34593184188053
| 43>   H          -4.29060575781970     -0.35932181913506      0.52740538076300
| 44>   H          -4.50256471801873     -0.92226517257447     -1.89976418011611
| 45>   H          -3.40177308118309     -2.30824843102207     -1.70078552775112
| 46>   H          -2.67374051365922      0.66781428649670     -1.29171005706098
| 47>   H          -2.15924162327067     -0.35321024045786     -2.65686919343088
| 48>   H          -0.90469485935692      2.55806344594719     -2.38431080570658
| 49>   H          -1.69406742620518      4.76256790062111     -1.50316396043451
| 50>   H          -1.35831745616503      5.33967639790405      0.91847094890395
| 51>   H          -0.24790113469503      3.68668268949803      2.44640253244910
| 52>   H           0.49479072476363      1.47942305638045      1.58046654942818
| 53> **                         ****END OF INPUT****
================================================================================

                       ****************************
                       * Single Point Calculation *
                       ****************************

---------------------------------
CARTESIAN COORDINATES (ANGSTROEM)
---------------------------------
  C      4.351741   -1.513225    0.431416
  C      3.094924   -2.385353    0.565779
  C      1.950212   -1.873065   -0.323773
  C      1.629914   -0.392136   -0.040661
  C      2.896724    0.477073   -0.172144
  C      4.036458   -0.038118    0.720208
  P      0.314816    0.231354   -1.232486
  C     -1.186840   -0.824428   -0.756273
  C     -1.527913   -0.904943    0.739595
  C     -2.744468   -1.811845    0.994948
  C     -3.963414   -1.364108    0.175152
  C     -3.626442   -1.285390   -1.321311
  C     -2.412935   -0.376746   -1.575519
  C     -0.166995    1.851561   -0.466307
  C     -0.778413    2.800591   -1.316679
  C     -1.215100    4.040721   -0.823497
  C     -1.026613    4.364359    0.530330
  C     -0.403705    3.438703    1.384784
  C      0.017548    2.193110    0.892224
  H      5.153580   -1.880935    1.106430
  H      4.748313   -1.603910   -0.605407
  H      3.324999   -3.443277    0.317080
  H      2.757946   -2.379884    1.627477
  H      1.047569   -2.502051   -0.173643
  H      2.233031   -1.982734   -1.395915
  H      1.261192   -0.319631    1.008018
  H      2.661694    1.534438    0.070389
  H      3.225062    0.468507   -1.236440
  H      3.742261    0.071774    1.789052
  H      4.942484    0.589351    0.581305
  H     -0.903169   -1.843705   -1.109596
  H     -1.749373    0.119317    1.113236
  H     -0.656219   -1.271068    1.321809
  H     -2.482962   -2.859035    0.719276
  H     -2.987340   -1.826597    2.079065
  H     -4.820450   -2.049861    0.345932
  H     -4.290606   -0.359322    0.527405
  H     -4.502565   -0.922265   -1.899764
  H     -3.401773   -2.308248   -1.700786
  H     -2.673741    0.667814   -1.291710
  H     -2.159242   -0.353210   -2.656869
  H     -0.904695    2.558063   -2.384311
  H     -1.694067    4.762568   -1.503164
  H     -1.358317    5.339676    0.918471
  H     -0.247901    3.686683    2.446403
  H      0.494791    1.479423    1.580467

----------------------------
CARTESIAN COORDINATES (A.U.)
----------------------------
  NO LB      ZA    FRAG     MASS         X           Y           Z
   0 C     6.0000    0    12.011    8.223598   -2.859580    0.815259
   1 C     6.0000    0    12.011    5.848558   -4.507663    1.069167
   2 C     6.0000    0    12.011    3.685366   -3.539579   -0.611842
   3 C     6.0000    0    12.011    3.080090   -0.741029   -0.076839
   4 C     6.0000    0    12.011    5.474016    0.901537   -0.325305
   5 C     6.0000    0    12.011    7.627800   -0.072032    1.360996
   6 P    15.0000    0    30.974    0.594917    0.437196   -2.329060
   7 C     6.0000    0    12.011   -2.242802   -1.557942   -1.429149
   8 C     6.0000    0    12.011   -2.887337   -1.710094    1.397631
   9 C     6.0000    0    12.011   -5.186293   -3.423890    1.880180
  10 C     6.0000    0    12.011   -7.489767   -2.577790    0.330989
  11 C     6.0000    0    12.011   -6.852982   -2.429035   -2.496915
  12 C     6.0000    0    12.011   -4.559786   -0.711946   -2.977299
  13 C     6.0000    0    12.011   -0.315575    3.498943   -0.881193
  14 C     6.0000    0    12.011   -1.470988    5.292350   -2.488163
  15 C     6.0000    0    12.011   -2.296207    7.635855   -1.556183
  16 C     6.0000    0    12.011   -1.940017    8.247444    1.002179
  17 C     6.0000    0    12.011   -0.762891    6.498206    2.616863
  18 C     6.0000    0    12.011    0.033161    4.144376    1.686059
  19 H     1.0000    0     1.008    9.738854   -3.554453    2.090850
  20 H     1.0000    0     1.008    8.973011   -3.030951   -1.144054
  21 H     1.0000    0     1.008    6.283337   -6.506850    0.599195
  22 H     1.0000    0     1.008    5.211762   -4.497329    3.075486
  23 H     1.0000    0     1.008    1.979619   -4.728191   -0.328138
  24 H     1.0000    0     1.008    4.219816   -3.746824   -2.637898
  25 H     1.0000    0     1.008    2.383308   -0.604015    1.904878
  26 H     1.0000    0     1.008    5.029872    2.899667    0.133016
  27 H     1.0000    0     1.008    6.094484    0.885349   -2.336532
  28 H     1.0000    0     1.008    7.071849    0.135634    3.380818
  29 H     1.0000    0     1.008    9.339941    1.113712    1.098508
  30 H     1.0000    0     1.008   -1.706743   -3.484097   -2.096832
  31 H     1.0000    0     1.008   -3.305835    0.225477    2.103710
  32 H     1.0000    0     1.008   -1.240074   -2.401970    2.497857
  33 H     1.0000    0     1.008   -4.692118   -5.402793    1.359235
  34 H     1.0000    0     1.008   -5.645254   -3.451768    3.928863
  35 H     1.0000    0     1.008   -9.109330   -3.873677    0.653716
  36 H     1.0000    0     1.008   -8.108070   -0.679020    0.996652
  37 H     1.0000    0     1.008   -8.508614   -1.742829   -3.590034
  38 H     1.0000    0     1.008   -6.428419   -4.361957   -3.214019
  39 H     1.0000    0     1.008   -5.052637    1.261986   -2.440978
  40 H     1.0000    0     1.008   -4.080375   -0.667471   -5.020755
  41 H     1.0000    0     1.008   -1.709626    4.834039   -4.505694
  42 H     1.0000    0     1.008   -3.201323    8.999949   -2.840568
  43 H     1.0000    0     1.008   -2.566848   10.090526    1.735659
  44 H     1.0000    0     1.008   -0.468465    6.966821    4.623031
  45 H     1.0000    0     1.008    0.935019    2.795704    2.986649

--------------------------------
INTERNAL COORDINATES (ANGSTROEM)
--------------------------------
 C      0   0   0     0.000000000000     0.00000000     0.00000000
 C      1   0   0     1.535659250366     0.00000000     0.00000000
 C      2   1   0     1.537565373349   111.68310551     0.00000000
 C      3   2   1     1.541393237005   111.62643049   305.01634707
 C      4   3   2     1.541953616570   110.80650704    54.43555144
 C      1   2   3     1.535820212687   111.16185997    54.96854214
 P      4   3   2     1.881134109473   110.32496609   175.84813182
 C      7   4   3     1.896424391110   102.11960630    64.33111248
 C      8   7   4     1.536370189543   116.70861889    48.96510383
 C      9   8   7     1.538728078056   111.59117298   181.17341315
 C     10   9   8     1.535696068822   111.53841267   304.82466411
 C     11  10   9     1.535951415321   111.15585659    54.97767914
 C     12  11  10     1.537158291086   111.38392474   304.95903008
 C      7   4   3     1.855866946793   102.08079298   167.67962605
 C     14   7   4     1.413372743756   116.75133319   158.41648348
 C     15  14   7     1.404224141202   121.07876807   178.10436319
 C     16  15  14     1.404676826353   120.01633862     1.08944531
 C     17  16  15     1.405327784762   119.58525655   359.79707696
 C     18  17  16     1.404126665919   120.26502289   359.44464010
 H      1   2   3     1.110765688090   110.46445593   178.14368104
 H      1   2   3     1.113776194483   109.06356144   294.70221282
 H      2   1   3     1.110850436403   110.59516326   122.85791631
 H      2   1   3     1.113906394119   109.15920150   239.47532784
 H      3   2   1     1.110372268514   109.77069486   182.11803899
 H      3   2   1     1.114227593338   109.56814228    65.73847841
 H      4   3   2     1.113975005575   107.71125223   296.03219102
 H      5   4   3     1.109991870499   110.14455560   182.08496477
 H      5   4   3     1.113824170917   108.62217517    66.19291256
 H      6   1   2     1.114026545937   109.23044065    65.65647938
 H      6   1   2     1.110808201487   110.58466638   182.23277474
 H      8   7   4     1.115451369423   103.16815482   290.14065456
 H      9   8   7     1.112546566123   108.84035522    60.54539903
 H      9   8   7     1.110347789422   110.70317754   303.83635753
 H     10   9   8     1.113996096286   109.10961702    65.50640981
 H     10   9   8     1.111086473405   110.03353052   181.74261441
 H     11  10   9     1.110826113195   110.50797266   178.08658834
 H     11  10   9     1.113881458897   109.10707170   294.68840850
 H     12  11  10     1.110882188529   110.55179139   182.23988771
 H     12  11  10     1.113874686378   109.21474521    65.53272076
 H     13  12  11     1.113405776039   109.11665563   294.94561128
 H     13  12  11     1.110960131713   110.71776797   178.20996735
 H     15  14   7     1.102090777470   118.98980105   357.69913264
 H     16  15  14     1.101099753909   119.83100498   180.34886390
 H     17  16  15     1.100874428276   120.23202549   179.37481175
 H     18  17  16     1.101272851965   120.03361651   179.71028391
 H     19  18  17     1.100357590462   119.08275586   180.55807158

---------------------------
INTERNAL COORDINATES (A.U.)
---------------------------
 C      0   0   0     0.000000000000     0.00000000     0.00000000
 C      1   0   0     2.901975418214     0.00000000     0.00000000
 C      2   1   0     2.905577468630   111.68310551     0.00000000
 C      3   2   1     2.912811082617   111.62643049   305.01634707
 C      4   3   2     2.913870046526   110.80650704    54.43555144
 C      1   2   3     2.902279592920   111.16185997    54.96854214
 P      4   3   2     3.554828288081   110.32496609   175.84813182
 C      7   4   3     3.583722732886   102.11960630    64.33111248
 C      8   7   4     2.903318898556   116.70861889    48.96510383
 C      9   8   7     2.907774662100   111.59117298   181.17341315
 C     10   9   8     2.902044995013   111.53841267   304.82466411
 C     11  10   9     2.902527529965   111.15585659    54.97767914
 C     12  11  10     2.904808194640   111.38392474   304.95903008
 C      7   4   3     3.507080270435   102.08079298   167.67962605
 C     14   7   4     2.670887410847   116.75133319   158.41648348
 C     15  14   7     2.653599057513   121.07876807   178.10436319
 C     16  15  14     2.654454508473   120.01633862     1.08944531
 C     17  16  15     2.655684641591   119.58525655   359.79707696
 C     18  17  16     2.653414855924   120.26502289   359.44464010
 H      1   2   3     2.099042949447   110.46445593   178.14368104
 H      1   2   3     2.104731982055   109.06356144   294.70221282
 H      2   1   3     2.099203100548   110.59516326   122.85791631
 H      2   1   3     2.104978023708   109.15920150   239.47532784
 H      3   2   1     2.098299494193   109.77069486   182.11803899
 H      3   2   1     2.105585002267   109.56814228    65.73847841
 H      4   3   2     2.105107680571   107.71125223   296.03219102
 H      5   4   3     2.097580646122   110.14455560   182.08496477
 H      5   4   3     2.104822644376   108.62217517    66.19291256
 H      6   1   2     2.105205077740   109.23044065    65.65647938
 H      6   1   2     2.099123288123   110.58466638   182.23277474
 H      8   7   4     2.107897603917   103.16815482   290.14065456
 H      9   8   7     2.102408321207   108.84035522    60.54539903
 H      9   8   7     2.098253235412   110.70317754   303.83635753
 H     10   9   8     2.105147536239   109.10961702    65.50640981
 H     10   9   8     2.099649145840   110.03353052   181.74261441
 H     11  10   9     2.099157136347   110.50797266   178.08658834
 H     11  10   9     2.104930902969   109.10707170   294.68840850
 H     12  11  10     2.099263103371   110.55179139   182.23988771
 H     12  11  10     2.104918104762   109.21474521    65.53272076
 H     13  12  11     2.104031992639   109.11665563   294.94561128
 H     13  12  11     2.099410394644   110.71776797   178.20996735
 H     15  14   7     2.082649744138   118.98980105   357.69913264
 H     16  15  14     2.080776981015   119.83100498   180.34886390
 H     17  16  15     2.080351177279   120.23202549   179.37481175
 H     18  17  16     2.081104088936   120.03361651   179.71028391
 H     19  18  17     2.079374495354   119.08275586   180.55807158

---------------------
BASIS SET INFORMATION
---------------------
There are 3 groups of distinct atoms

 Group   1 Type C   : 11s6p2d1f contracted to 5s3p2d1f pattern {62111/411/11/1}
 Group   2 Type P   : 14s9p3d1f contracted to 5s5p2d1f pattern {73211/51111/21/1}
 Group   3 Type H   : 5s1p contracted to 3s1p pattern {311/1}

Atom   0C    basis set group =>   1
Atom   1C    basis set group =>   1
Atom   2C    basis set group =>   1
Atom   3C    basis set group =>   1
Atom   4C    basis set group =>   1
Atom   5C    basis set group =>   1
Atom   6P    basis set group =>   2
Atom   7C    basis set group =>   1
Atom   8C    basis set group =>   1
Atom   9C    basis set group =>   1
Atom  10C    basis set group =>   1
Atom  11C    basis set group =>   1
Atom  12C    basis set group =>   1
Atom  13C    basis set group =>   1
Atom  14C    basis set group =>   1
Atom  15C    basis set group =>   1
Atom  16C    basis set group =>   1
Atom  17C    basis set group =>   1
Atom  18C    basis set group =>   1
Atom  19H    basis set group =>   3
Atom  20H    basis set group =>   3
Atom  21H    basis set group =>   3
Atom  22H    basis set group =>   3
Atom  23H    basis set group =>   3
Atom  24H    basis set group =>   3
Atom  25H    basis set group =>   3
Atom  26H    basis set group =>   3
Atom  27H    basis set group =>   3
Atom  28H    basis set group =>   3
Atom  29H    basis set group =>   3
Atom  30H    basis set group =>   3
Atom  31H    basis set group =>   3
Atom  32H    basis set group =>   3
Atom  33H    basis set group =>   3
Atom  34H    basis set group =>   3
Atom  35H    basis set group =>   3
Atom  36H    basis set group =>   3
Atom  37H    basis set group =>   3
Atom  38H    basis set group =>   3
Atom  39H    basis set group =>   3
Atom  40H    basis set group =>   3
Atom  41H    basis set group =>   3
Atom  42H    basis set group =>   3
Atom  43H    basis set group =>   3
Atom  44H    basis set group =>   3
Atom  45H    basis set group =>   3
---------------------------------
AUXILIARY/J BASIS SET INFORMATION
---------------------------------
There are 3 groups of distinct atoms

 Group   1 Type C   : 12s5p4d2f1g contracted to 6s4p3d1f1g pattern {711111/2111/211/2/1}
 Group   2 Type P   : 14s5p5d2f1g contracted to 8s4p3d1f1g pattern {71111111/2111/311/2/1}
 Group   3 Type H   : 5s2p1d contracted to 3s1p1d pattern {311/2/1}

Atom   0C    basis set group =>   1
Atom   1C    basis set group =>   1
Atom   2C    basis set group =>   1
Atom   3C    basis set group =>   1
Atom   4C    basis set group =>   1
Atom   5C    basis set group =>   1
Atom   6P    basis set group =>   2
Atom   7C    basis set group =>   1
Atom   8C    basis set group =>   1
Atom   9C    basis set group =>   1
Atom  10C    basis set group =>   1
Atom  11C    basis set group =>   1
Atom  12C    basis set group =>   1
Atom  13C    basis set group =>   1
Atom  14C    basis set group =>   1
Atom  15C    basis set group =>   1
Atom  16C    basis set group =>   1
Atom  17C    basis set group =>   1
Atom  18C    basis set group =>   1
Atom  19H    basis set group =>   3
Atom  20H    basis set group =>   3
Atom  21H    basis set group =>   3
Atom  22H    basis set group =>   3
Atom  23H    basis set group =>   3
Atom  24H    basis set group =>   3
Atom  25H    basis set group =>   3
Atom  26H    basis set group =>   3
Atom  27H    basis set group =>   3
Atom  28H    basis set group =>   3
Atom  29H    basis set group =>   3
Atom  30H    basis set group =>   3
Atom  31H    basis set group =>   3
Atom  32H    basis set group =>   3
Atom  33H    basis set group =>   3
Atom  34H    basis set group =>   3
Atom  35H    basis set group =>   3
Atom  36H    basis set group =>   3
Atom  37H    basis set group =>   3
Atom  38H    basis set group =>   3
Atom  39H    basis set group =>   3
Atom  40H    basis set group =>   3
Atom  41H    basis set group =>   3
Atom  42H    basis set group =>   3
Atom  43H    basis set group =>   3
Atom  44H    basis set group =>   3
Atom  45H    basis set group =>   3


           ************************************************************
           *        Program running with 6 parallel MPI-processes     *
           *              working on a common directory               *
           ************************************************************
------------------------------------------------------------------------------
                             ORCA STARTUP CALCULATIONS
                           -- RI-GTO INTEGRALS CHOSEN --
------------------------------------------------------------------------------
------------------------------------------------------------------------------
                   ___                                                        
                  /   \      - P O W E R E D   B Y -                         
                 /     \                                                     
                 |  |  |   _    _      __       _____    __    __             
                 |  |  |  | |  | |    /  \     |  _  \  |  |  /  |          
                  \  \/   | |  | |   /    \    | | | |  |  | /  /          
                 / \  \   | |__| |  /  /\  \   | |_| |  |  |/  /          
                |  |  |   |  __  | /  /__\  \  |    /   |      \           
                |  |  |   | |  | | |   __   |  |    \   |  |\   \          
                \     /   | |  | | |  |  |  |  | |\  \  |  | \   \       
                 \___/    |_|  |_| |__|  |__|  |_| \__\ |__|  \__/        
                                                                              
                      - O R C A' S   B I G   F R I E N D -                    
                                      &                                       
                       - I N T E G R A L  F E E D E R -                       
                                                                              
 v1 FN, 2020, v2 2021, v3 2022-2024                                           
------------------------------------------------------------------------------


----------------------
SHARK INTEGRAL PACKAGE
----------------------

Number of atoms                             ...     46
Number of basis functions                   ...    757
Number of shells                            ...    319
Maximum angular momentum                    ...      3
Integral batch strategy                     ... SHARK/LIBINT Hybrid
RI-J (if used) integral strategy            ... SPLIT-RIJ (Revised 2003 algorithm where possible)
Printlevel                                  ...      1
Contraction scheme used                     ... SEGMENTED contraction
Prescreening option                         ... SCHWARTZ
   Thresh                                   ... 1.000e-10
   Tcut                                     ... 1.000e-11
   Tpresel                                  ... 1.000e-11 
Coulomb Range Separation                    ... NOT USED
Exchange Range Separation                   ... NOT USED
Multipole approximations                    ... NOT USED
Finite Nucleus Model                        ... NOT USED
CABS basis                                  ... NOT available
Auxiliary Coulomb fitting basis             ... AVAILABLE
   # of basis functions in Aux-J            ...   1230
   # of shells in Aux-J                     ...    422
   Maximum angular momentum in Aux-J        ...      4
Auxiliary J/K fitting basis                 ... NOT available
Auxiliary Correlation fitting basis         ... NOT available
Auxiliary 'external' fitting basis          ... NOT available

Checking pre-screening integrals            ... done (  0.0 sec) Dimension = 319
Check shell pair data                       ... done (  0.0 sec)
Shell pair information
Shell pair cut-off parameter TPreSel        ...   1.0e-11
Total number of shell pairs                 ...     51040
Shell pairs after pre-screening             ...     37252
Total number of primitive shell pairs       ...    151488
Primitive shell pairs kept                  ...     74793
          la=0 lb=0:  11214 shell pairs
          la=1 lb=0:  11236 shell pairs
          la=1 lb=1:   2883 shell pairs
          la=2 lb=0:   4822 shell pairs
          la=2 lb=1:   2465 shell pairs
          la=2 lb=2:    567 shell pairs
          la=3 lb=0:   2289 shell pairs
          la=3 lb=1:   1154 shell pairs
          la=3 lb=2:    498 shell pairs
          la=3 lb=3:    124 shell pairs

Calculating one electron integrals          ... done (  0.1 sec)
Calculating RI/J V-Matrix + Cholesky decomp.... done (  0.1 sec)
Calculating Nuclear repulsion               ... done (  0.0 sec) ENN=   1619.044255562019 Eh

Diagonalization of the overlap matrix:
Smallest eigenvalue                        ... 8.159e-06
Time for diagonalization                   ...    0.131 sec
Threshold for overlap eigenvalues          ... 1.000e-07
Number of eigenvalues below threshold      ... 0
Time for construction of square roots      ...    0.055 sec
Total time needed                          ...    0.194 sec

-------------------
DFT GRID GENERATION
-------------------

General Integration Accuracy     IntAcc      ... 4.388
Radial Grid Type                 RadialGrid  ... OptM3 with GC (2021)
Angular Grid (max. ang.)         AngularGrid ... 4 (Lebedev-302)
Angular grid pruning method      GridPruning ... 4 (adaptive)
Weight generation scheme         WeightScheme... mBecke (2022)
Basis function cutoff            BFCut       ... 1.0000e-10
Integration weight cutoff        WCut        ... 1.0000e-14
Partially contracted basis set               ... off
Rotationally invariant grid construction     ... off
Angular grids for H and He will be reduced by one unit

Total number of grid points                  ...   199147
Total number of batches                      ...     3133
Average number of points per batch           ...       63
Average number of grid points per atom       ...     4329

--------------------
COSX GRID GENERATION
--------------------

GRIDX 1
-------
General Integration Accuracy     IntAcc      ... 3.816
Radial Grid Type                 RadialGrid  ... OptM3 with GC (2021)
Angular Grid (max. ang.)         AngularGrid ... 1 (Lebedev-50)
Angular grid pruning method      GridPruning ... 4 (adaptive)
Weight generation scheme         WeightScheme... mBecke (2022)
Basis function cutoff            BFCut       ... 1.0000e-10
Integration weight cutoff        WCut        ... 1.0000e-14
Partially contracted basis set               ... on
Rotationally invariant grid construction     ... off
Angular grids for H and He will be reduced by one unit

Total number of grid points                  ...    26339
Total number of batches                      ...      235
Average number of points per batch           ...      112
Average number of grid points per atom       ...      573
UseSFitting                                  ... on

GRIDX 2
-------
General Integration Accuracy     IntAcc      ... 4.020
Radial Grid Type                 RadialGrid  ... OptM3 with GC (2021)
Angular Grid (max. ang.)         AngularGrid ... 2 (Lebedev-110)
Angular grid pruning method      GridPruning ... 4 (adaptive)
Weight generation scheme         WeightScheme... mBecke (2022)
Basis function cutoff            BFCut       ... 1.0000e-10
Integration weight cutoff        WCut        ... 1.0000e-14
Partially contracted basis set               ... on
Rotationally invariant grid construction     ... off
Angular grids for H and He will be reduced by one unit

Total number of grid points                  ...    52739
Total number of batches                      ...      435
Average number of points per batch           ...      121
Average number of grid points per atom       ...     1147
UseSFitting                                  ... on

GRIDX 3
-------
General Integration Accuracy     IntAcc      ... 4.338
Radial Grid Type                 RadialGrid  ... OptM3 with GC (2021)
Angular Grid (max. ang.)         AngularGrid ... 3 (Lebedev-194)
Angular grid pruning method      GridPruning ... 4 (adaptive)
Weight generation scheme         WeightScheme... mBecke (2022)
Basis function cutoff            BFCut       ... 1.0000e-10
Integration weight cutoff        WCut        ... 1.0000e-14
Partially contracted basis set               ... on
Rotationally invariant grid construction     ... off
Angular grids for H and He will be reduced by one unit

Total number of grid points                  ...   114915
Total number of batches                      ...      923
Average number of points per batch           ...      124
Average number of grid points per atom       ...     2498
UseSFitting                                  ... on
Initializing property integral containers    ... done (  0.0 sec)

SHARK setup successfully completed in   5.0 seconds

Maximum memory used throughout the entire STARTUP-calculation: 82.4 MB


           ************************************************************
           *        Program running with 6 parallel MPI-processes     *
           *              working on a common directory               *
           ************************************************************
-------------------------------------------------------------------------------
                                 ORCA GUESS
                   Start orbitals & Density for SCF / CASSCF
-------------------------------------------------------------------------------

------------
SCF SETTINGS
------------
Hamiltonian:
 Density Functional     Method          .... DFT(GTOs)
 Exchange Functional    Exchange        .... M062X
 Correlation Functional Correlation     .... M062X
 Gradients option       PostSCFGGA      .... off
 Hybrid DFT is turned on
   Fraction HF Exchange ScalHFX         ....  0.540000
   Scaling of DF-GGA-X  ScalDFX         ....  0.460000
   Scaling of DF-GGA-C  ScalDFC         ....  1.000000
   Scaling of DF-LDA-C  ScalLDAC        ....  1.000000
   Perturbative correction              ....  0.000000
 RI-approximation to the Coulomb term is turned on
   Number of AuxJ basis functions       .... 1230
   RIJ-COSX (HFX calculated with COS-X)).... on


General Settings:
 Integral files         IntName         .... data/single_point_P_M06-2x/80970/80970
 Hartree-Fock type      HFTyp           .... RHF
 Total Charge           Charge          ....    0
 Multiplicity           Mult            ....    1
 Number of Electrons    NEL             ....  150
 Basis Dimension        Dim             ....  757
 Nuclear Repulsion      ENuc            ....   1619.0442555620 Eh

Convergence Acceleration:
 AO-DIIS                CNVDIIS         .... on
   Start iteration      DIISMaxIt       ....    12
   Startup error        DIISStart       ....  0.200000
   # of expansion vecs  DIISMaxEq       ....     5
   Bias factor          DIISBfac        ....   1.050
   Max. coefficient     DIISMaxC        ....  10.000
 MO-DIIS                CNVKDIIS        .... off
 Trust-Rad. Augm. Hess. CNVTRAH         .... auto
   Auto Start mean grad. ratio tolernc. ....  1.125000
   Auto Start start iteration           ....    50
   Auto Start num. interpolation iter.  ....    10
   Max. Number of Micro iterations      ....    24
   Max. Number of Macro iterations      .... Maxiter - #DIIS iter
   Number of Davidson start vectors     ....     2
   Converg. threshold    (grad. norm)   ....   5.000e-05
   Grad. Scal. Fac. for Micro threshold ....   0.100
   Minimum threshold for Micro iter.    ....   1.000e-02
   NR start threshold (gradient norm)   ....   1.000e-04
   Initial trust radius                 ....   0.400
   Minimum AH scaling param. (alpha)    ....   1.000
   Maximum AH scaling param. (alpha)    .... 1000.000
   Quad. conv. algorithm                .... NR
   White noise on init. David. guess    .... on
   Maximum white noise                  ....   0.010
   Pseudo random numbers                .... off
   Inactive MOs                         .... canonical
   Orbital update algorithm             .... Taylor
   Preconditioner                       .... Diag
   Full preconditioner red. dimension   ....   250
 SOSCF                  CNVSOSCF        .... on
   Start iteration      SOSCFMaxIt      ....   150
   Startup grad/error   SOSCFStart      ....  0.003300
   Hessian update       SOSCFHessUp     .... L-BFGS
 Level Shifting         CNVShift        .... on
   Level shift para.    LevelShift      ....    0.2500
   Turn off err/grad.   ShiftErr        ....    0.0010
 Zerner damping         CNVZerner       .... off
 Static damping         CNVDamp         .... on
   Fraction old density DampFac         ....    0.7000
   Max. Damping (<1)    DampMax         ....    0.9800
   Min. Damping (>=0)   DampMin         ....    0.0000
   Turn off err/grad.   DampErr         ....    0.1000

SCF Procedure:
 Maximum # iterations   MaxIter         ....   125
 SCF integral mode      SCFMode         .... Direct
   Integral package                     .... SHARK and LIBINT hybrid scheme
 Reset frequency        DirectResetFreq ....    20
 Integral Threshold     Thresh          ....  1.000e-10 Eh
 Primitive CutOff       TCut            ....  1.000e-11 Eh

Convergence Tolerance:
 Convergence Check Mode ConvCheckMode   .... Total+1el-Energy
 Convergence forced     ConvForced      .... 0
 Energy Change          TolE            ....  1.000e-06 Eh
 1-El. energy change                    ....  1.000e-03 Eh
 Orbital Gradient       TolG            ....  5.000e-05
 Orbital Rotation angle TolX            ....  5.000e-05
 DIIS Error             TolErr          ....  1.000e-05

------------------------------
INITIAL GUESS: MODEL POTENTIAL
------------------------------
Loading Hartree-Fock densities                     ... done
Calculating cut-offs                               ... done
Initializing the effective Hamiltonian             ... done
Setting up the integral package (SHARK)            ... done
Starting the Coulomb interaction                   ... done (   0.6 sec)
Making the grid                                    ... done (   0.3 sec)
Mapping shells                                     ... done
Starting the XC term evaluation                    ... done (   0.5 sec)
  promolecular density results
     # of electrons  =    149.989067216
     EX              =   -122.511940088
     EC              =     -5.056508927
     EX+EC           =   -127.568449016
Transforming the Hamiltonian                       ... done (   0.1 sec)
Diagonalizing the Hamiltonian                      ... done (   0.1 sec)
Back transforming the eigenvectors                 ... done (   0.0 sec)
Now organizing SCF variables                       ... done
                      ------------------
                      INITIAL GUESS DONE (   1.7 sec)
                      ------------------
             **** ENERGY FILE WAS UPDATED (data/single_point_P_M06-2x/80970/80970.en.tmp) ****
Finished Guess after   2.0 sec
Maximum memory used throughout the entire GUESS-calculation: 60.4 MB


           ************************************************************
           *        Program running with 6 parallel MPI-processes     *
           *              working on a common directory               *
           ************************************************************

-------------------------------------------------------------------------------------------
                                      ORCA LEAN-SCF
                              memory conserving SCF solver
-------------------------------------------------------------------------------------------

----------------------------------------D-I-I-S--------------------------------------------
Iteration    Energy (Eh)           Delta-E    RMSDP     MaxDP     DIISErr   Damp  Time(sec)
-------------------------------------------------------------------------------------------
               ***  Starting incremental Fock matrix formation  ***
    1    -1042.9078164754437239     0.00e+00  1.09e-03  5.02e-02  1.62e-01  0.700  20.2
    2    -1043.1481405366535000    -2.40e-01  8.71e-04  3.90e-02  8.99e-02  0.700  12.8
                               ***Turning on AO-DIIS***
    3    -1043.2596788534719963    -1.12e-01  5.69e-04  2.50e-02  4.09e-02  0.700  10.3
    4    -1043.3251835310502429    -6.55e-02  1.32e-03  6.18e-02  2.43e-02  0.000  10.1
    5    -1043.4654734072605606    -1.40e-01  1.09e-04  1.18e-02  3.76e-03  0.000  10.6
                              *** Initializing SOSCF ***
---------------------------------------S-O-S-C-F--------------------------------------
Iteration    Energy (Eh)           Delta-E    RMSDP     MaxDP     MaxGrad    Time(sec)
--------------------------------------------------------------------------------------
    6    -1043.4658250760853662    -3.52e-04  5.07e-05  5.46e-03  5.29e-04     9.4
               *** Restarting incremental Fock matrix formation ***
    7    -1043.4659752700281388    -1.50e-04  7.12e-05  5.23e-03  2.21e-04    18.7
    8    -1043.4659794384720044    -4.17e-06  2.71e-05  1.81e-03  1.23e-04    12.3
    9    -1043.4659802316632522    -7.93e-07  2.01e-05  1.53e-03  8.32e-05    11.4
                 **** Energy Check signals convergence ****

               *****************************************************
               *                     SUCCESS                       *
               *           SCF CONVERGED AFTER   9 CYCLES          *
               *****************************************************

Recomputing exchange energy using gridx3       ... done (   27.733 sec)
Old exchange energy                            :    -67.774369274 Eh
New exchange energy                            :    -67.774426223 Eh
Exchange energy change after final integration :     -0.000056949 Eh
Total energy after final integration           :  -1043.466037181 Eh
             **** ENERGY FILE WAS UPDATED (data/single_point_P_M06-2x/80970/80970.en.tmp) ****

----------------
TOTAL SCF ENERGY
----------------

Total Energy       :      -1043.46603718112283 Eh          -28394.15440 eV

Components:
Nuclear Repulsion  :       1619.04425556201932 Eh           44056.43398 eV
Electronic Energy  :      -2662.51023579368302 Eh          -72450.58683 eV
One Electron Energy:      -4637.73284693180449 Eh         -126199.12660 eV
Two Electron Energy:       1975.22261113812169 Eh           53748.53977 eV

Virial components:
Potential Energy   :      -2081.53742744933515 Eh          -56641.51300 eV
Kinetic Energy     :       1038.07139026821255 Eh           28247.35860 eV
Virial Ratio       :          2.00519679760321

DFT components:
N(Alpha)           :       75.000027067620 electrons
N(Beta)            :       75.000027067620 electrons
N(Total)           :      150.000054135240 electrons
E(XC)              :      -62.955960287480 Eh       

---------------
SCF CONVERGENCE
---------------

  Last Energy change         ...    7.9319e-07  Tolerance :   1.0000e-06
  Last MAX-Density change    ...    1.5281e-03  Tolerance :   1.0000e-05
  Last RMS-Density change    ...    2.0072e-05  Tolerance :   1.0000e-06
  Last DIIS Error            ...    5.2855e-04  Tolerance :   1.0000e-05
  Last Orbital Gradient      ...    8.3169e-05  Tolerance :   5.0000e-05
  Last Orbital Rotation      ...    1.4839e-04  Tolerance :   5.0000e-05


----------------
ORBITAL ENERGIES
----------------

  NO   OCC          E(Eh)            E(eV) 
   0   2.0000     -78.013742     -2122.8618 
   1   2.0000     -10.550143      -287.0840 
   2   2.0000     -10.549942      -287.0785 
   3   2.0000     -10.549464      -287.0655 
   4   2.0000     -10.548797      -287.0474 
   5   2.0000     -10.548722      -287.0453 
   6   2.0000     -10.548105      -287.0285 
   7   2.0000     -10.540918      -286.8330 
   8   2.0000     -10.540481      -286.8211 
   9   2.0000     -10.536327      -286.7080 
  10   2.0000     -10.533330      -286.6265 
  11   2.0000     -10.532319      -286.5990 
  12   2.0000     -10.531671      -286.5813 
  13   2.0000     -10.531455      -286.5755 
  14   2.0000     -10.531211      -286.5688 
  15   2.0000     -10.531183      -286.5681 
  16   2.0000     -10.530994      -286.5629 
  17   2.0000     -10.530156      -286.5401 
  18   2.0000     -10.529433      -286.5204 
  19   2.0000      -6.830106      -185.8566 
  20   2.0000      -4.944576      -134.5488 
  21   2.0000      -4.944282      -134.5408 
  22   2.0000      -4.944038      -134.5341 
  23   2.0000      -0.954282       -25.9673 
  24   2.0000      -0.931849       -25.3569 
  25   2.0000      -0.925385       -25.1810 
  26   2.0000      -0.856925       -23.3181 
  27   2.0000      -0.839470       -22.8431 
  28   2.0000      -0.834141       -22.6981 
  29   2.0000      -0.830160       -22.5898 
  30   2.0000      -0.828749       -22.5514 
  31   2.0000      -0.825152       -22.4535 
  32   2.0000      -0.721853       -19.6426 
  33   2.0000      -0.692919       -18.8553 
  34   2.0000      -0.691344       -18.8124 
  35   2.0000      -0.681048       -18.5323 
  36   2.0000      -0.676841       -18.4178 
  37   2.0000      -0.674370       -18.3505 
  38   2.0000      -0.630871       -17.1669 
  39   2.0000      -0.627893       -17.0858 
  40   2.0000      -0.610961       -16.6251 
  41   2.0000      -0.574692       -15.6382 
  42   2.0000      -0.544533       -14.8175 
  43   2.0000      -0.539128       -14.6704 
  44   2.0000      -0.515861       -14.0373 
  45   2.0000      -0.514032       -13.9875 
  46   2.0000      -0.508120       -13.8267 
  47   2.0000      -0.502507       -13.6739 
  48   2.0000      -0.500184       -13.6107 
  49   2.0000      -0.497710       -13.5434 
  50   2.0000      -0.496433       -13.5086 
  51   2.0000      -0.483189       -13.1482 
  52   2.0000      -0.482409       -13.1270 
  53   2.0000      -0.453922       -12.3518 
  54   2.0000      -0.442128       -12.0309 
  55   2.0000      -0.440981       -11.9997 
  56   2.0000      -0.438103       -11.9214 
  57   2.0000      -0.437003       -11.8914 
  58   2.0000      -0.431019       -11.7286 
  59   2.0000      -0.411324       -11.1927 
  60   2.0000      -0.407873       -11.0988 
  61   2.0000      -0.404749       -11.0138 
  62   2.0000      -0.400876       -10.9084 
  63   2.0000      -0.398751       -10.8506 
  64   2.0000      -0.396583       -10.7916 
  65   2.0000      -0.385460       -10.4889 
  66   2.0000      -0.373465       -10.1625 
  67   2.0000      -0.366207        -9.9650 
  68   2.0000      -0.359414        -9.7801 
  69   2.0000      -0.354981        -9.6595 
  70   2.0000      -0.343313        -9.3420 
  71   2.0000      -0.329155        -8.9568 
  72   2.0000      -0.307253        -8.3608 
  73   2.0000      -0.305433        -8.3113 
  74   2.0000      -0.267920        -7.2905 
  75   0.0000       0.005185         0.1411 
  76   0.0000       0.016920         0.4604 
  77   0.0000       0.053516         1.4562 
  78   0.0000       0.063884         1.7384 
  79   0.0000       0.067650         1.8409 
  80   0.0000       0.079647         2.1673 
  81   0.0000       0.080031         2.1777 
  82   0.0000       0.088732         2.4145 
  83   0.0000       0.089486         2.4350 
  84   0.0000       0.098888         2.6909 
  85   0.0000       0.100065         2.7229 
*Only the first 10 virtual orbitals were printed.

                    ********************************
                    * MULLIKEN POPULATION ANALYSIS *
                    ********************************

-----------------------
MULLIKEN ATOMIC CHARGES
-----------------------
   0 C :   -0.273566
   1 C :   -0.270215
   2 C :   -0.357066
   3 C :   -0.231776
   4 C :   -0.345353
   5 C :   -0.269059
   6 P :    0.165740
   7 C :   -0.168188
   8 C :   -0.357647
   9 C :   -0.278213
  10 C :   -0.269577
  11 C :   -0.274964
  12 C :   -0.371961
  13 C :   -0.030429
  14 C :   -0.164478
  15 C :   -0.146224
  16 C :   -0.138767
  17 C :   -0.156374
  18 C :   -0.210899
  19 H :    0.142856
  20 H :    0.143102
  21 H :    0.143120
  22 H :    0.141711
  23 H :    0.158451
  24 H :    0.170140
  25 H :    0.158845
  26 H :    0.177875
  27 H :    0.166422
  28 H :    0.139794
  29 H :    0.143726
  30 H :    0.166957
  31 H :    0.178486
  32 H :    0.155611
  33 H :    0.143900
  34 H :    0.141107
  35 H :    0.140871
  36 H :    0.142079
  37 H :    0.140828
  38 H :    0.143717
  39 H :    0.175835
  40 H :    0.158793
  41 H :    0.160432
  42 H :    0.144298
  43 H :    0.144433
  44 H :    0.143810
  45 H :    0.181818
Sum of atomic charges:    0.0000000

--------------------------------
MULLIKEN REDUCED ORBITAL CHARGES
--------------------------------
  0 C s       :     3.272285  s :     3.272285
      pz      :     1.063814  p :     2.908684
      px      :     0.945925
      py      :     0.898945
      dz2     :     0.012801  d :     0.087593
      dxz     :     0.020127
      dyz     :     0.013089
      dx2y2   :     0.020577
      dxy     :     0.021000
      f0      :     0.000703  f :     0.005004
      f+1     :     0.000538
      f-1     :     0.000461
      f+2     :     0.000533
      f-2     :     0.000664
      f+3     :     0.001235
      f-3     :     0.000869

  1 C s       :     3.281605  s :     3.281605
      pz      :     0.994505  p :     2.896749
      px      :     0.891589
      py      :     1.010655
      dz2     :     0.023845  d :     0.086856
      dxz     :     0.018012
      dyz     :     0.004815
      dx2y2   :     0.025995
      dxy     :     0.014190
      f0      :     0.000749  f :     0.005005
      f+1     :     0.000899
      f-1     :     0.000301
      f+2     :     0.000459
      f-2     :     0.000755
      f+3     :     0.001099
      f-3     :     0.000742

  2 C s       :     3.320036  s :     3.320036
      pz      :     1.024319  p :     2.943187
      px      :     1.020599
      py      :     0.898269
      dz2     :     0.027913  d :     0.088761
      dxz     :     0.008238
      dyz     :     0.012786
      dx2y2   :     0.014025
      dxy     :     0.025799
      f0      :     0.000750  f :     0.005082
      f+1     :     0.000803
      f-1     :     0.000484
      f+2     :     0.000741
      f-2     :     0.000483
      f+3     :     0.000896
      f-3     :     0.000925

  3 C s       :     3.199351  s :     3.199351
      pz      :     1.012933  p :     2.930770
      px      :     0.972767
      py      :     0.945070
      dz2     :     0.019809  d :     0.096398
      dxz     :     0.018084
      dyz     :     0.014217
      dx2y2   :     0.022151
      dxy     :     0.022136
      f0      :     0.000804  f :     0.005257
      f+1     :     0.000620
      f-1     :     0.000462
      f+2     :     0.000520
      f-2     :     0.000628
      f+3     :     0.001369
      f-3     :     0.000853

  4 C s       :     3.318254  s :     3.318254
      pz      :     1.025687  p :     2.933680
      px      :     0.890483
      py      :     1.017510
      dz2     :     0.025963  d :     0.088345
      dxz     :     0.017248
      dyz     :     0.005525
      dx2y2   :     0.024891
      dxy     :     0.014718
      f0      :     0.000808  f :     0.005074
      f+1     :     0.000881
      f-1     :     0.000297
      f+2     :     0.000473
      f-2     :     0.000780
      f+3     :     0.001123
      f-3     :     0.000712

  5 C s       :     3.279876  s :     3.279876
      pz      :     0.981583  p :     2.897465
      px      :     0.987580
      py      :     0.928302
      dz2     :     0.026342  d :     0.086726
      dxz     :     0.007717
      dyz     :     0.012665
      dx2y2   :     0.013855
      dxy     :     0.026148
      f0      :     0.000697  f :     0.004993
      f+1     :     0.000827
      f-1     :     0.000489
      f+2     :     0.000721
      f-2     :     0.000454
      f+3     :     0.000872
      f-3     :     0.000933

  6 P s       :     5.716368  s :     5.716368
      pz      :     3.347128  p :     8.858151
      px      :     2.797145
      py      :     2.713878
      dz2     :     0.028527  d :     0.234765
      dxz     :     0.046745
      dyz     :     0.041695
      dx2y2   :     0.056436
      dxy     :     0.061362
      f0      :     0.002916  f :     0.024976
      f+1     :     0.002936
      f-1     :     0.002482
      f+2     :     0.004164
      f-2     :     0.004648
      f+3     :     0.004414
      f-3     :     0.003416

  7 C s       :     3.173410  s :     3.173410
      pz      :     0.891979  p :     2.889837
      px      :     0.965355
      py      :     1.032503
      dz2     :     0.023551  d :     0.099681
      dxz     :     0.024165
      dyz     :     0.019496
      dx2y2   :     0.015210
      dxy     :     0.017258
      f0      :     0.000884  f :     0.005261
      f+1     :     0.001370
      f-1     :     0.000863
      f+2     :     0.000403
      f-2     :     0.000611
      f+3     :     0.000611
      f-3     :     0.000518

  8 C s       :     3.299097  s :     3.299097
      pz      :     0.887113  p :     2.964132
      px      :     1.024143
      py      :     1.052876
      dz2     :     0.013526  d :     0.089354
      dxz     :     0.025721
      dyz     :     0.019063
      dx2y2   :     0.020077
      dxy     :     0.010968
      f0      :     0.001032  f :     0.005064
      f+1     :     0.000866
      f-1     :     0.000840
      f+2     :     0.000340
      f-2     :     0.000635
      f+3     :     0.000719
      f-3     :     0.000633

  9 C s       :     3.291736  s :     3.291736
      pz      :     1.041701  p :     2.894158
      px      :     0.888596
      py      :     0.963861
      dz2     :     0.024651  d :     0.087324
      dxz     :     0.014679
      dyz     :     0.005256
      dx2y2   :     0.026228
      dxy     :     0.016509
      f0      :     0.000768  f :     0.004995
      f+1     :     0.000918
      f-1     :     0.000275
      f+2     :     0.000438
      f-2     :     0.000757
      f+3     :     0.001076
      f-3     :     0.000763

 10 C s       :     3.269759  s :     3.269759
      pz      :     0.895846  p :     2.907488
      px      :     0.954585
      py      :     1.057057
      dz2     :     0.022937  d :     0.087325
      dxz     :     0.018613
      dyz     :     0.016376
      dx2y2   :     0.010420
      dxy     :     0.018979
      f0      :     0.000834  f :     0.005005
      f+1     :     0.001282
      f-1     :     0.000818
      f+2     :     0.000480
      f-2     :     0.000506
      f+3     :     0.000543
      f-3     :     0.000543

 11 C s       :     3.282563  s :     3.282563
      pz      :     0.923564  p :     2.900957
      px      :     0.977713
      py      :     0.999680
      dz2     :     0.013550  d :     0.086476
      dxz     :     0.025196
      dyz     :     0.018909
      dx2y2   :     0.019437
      dxy     :     0.009384
      f0      :     0.001040  f :     0.004969
      f+1     :     0.000830
      f-1     :     0.000809
      f+2     :     0.000358
      f-2     :     0.000601
      f+3     :     0.000713
      f-3     :     0.000617

 12 C s       :     3.330130  s :     3.330130
      pz      :     1.043900  p :     2.947169
      px      :     0.907293
      py      :     0.995977
      dz2     :     0.025063  d :     0.089527
      dxz     :     0.014926
      dyz     :     0.006387
      dx2y2   :     0.026392
      dxy     :     0.016758
      f0      :     0.000762  f :     0.005134
      f+1     :     0.000955
      f-1     :     0.000276
      f+2     :     0.000420
      f-2     :     0.000786
      f+3     :     0.001123
      f-3     :     0.000812

 13 C s       :     3.266051  s :     3.266051
      pz      :     0.825669  p :     2.683200
      px      :     0.951398
      py      :     0.906133
      dz2     :     0.014948  d :     0.074333
      dxz     :     0.016803
      dyz     :     0.019468
      dx2y2   :     0.012462
      dxy     :     0.010651
      f0      :     0.001050  f :     0.006845
      f+1     :     0.001189
      f-1     :     0.001519
      f+2     :     0.000852
      f-2     :     0.000682
      f+3     :     0.000726
      f-3     :     0.000827

 14 C s       :     3.220692  s :     3.220692
      pz      :     1.003001  p :     2.872135
      px      :     0.945737
      py      :     0.923397
      dz2     :     0.014960  d :     0.065066
      dxz     :     0.006496
      dyz     :     0.015102
      dx2y2   :     0.014312
      dxy     :     0.014196
      f0      :     0.000736  f :     0.006584
      f+1     :     0.000479
      f-1     :     0.001324
      f+2     :     0.000951
      f-2     :     0.000803
      f+3     :     0.001014
      f-3     :     0.001277

 15 C s       :     3.222311  s :     3.222311
      pz      :     0.928720  p :     2.856664
      px      :     0.985142
      py      :     0.942802
      dz2     :     0.012953  d :     0.060954
      dxz     :     0.015063
      dyz     :     0.013384
      dx2y2   :     0.008223
      dxy     :     0.011330
      f0      :     0.000980  f :     0.006295
      f+1     :     0.001041
      f-1     :     0.001282
      f+2     :     0.000556
      f-2     :     0.000774
      f+3     :     0.000798
      f-3     :     0.000865

 16 C s       :     3.225253  s :     3.225253
      pz      :     0.900804  p :     2.846099
      px      :     0.958248
      py      :     0.987047
      dz2     :     0.013261  d :     0.061106
      dxz     :     0.016156
      dyz     :     0.015909
      dx2y2   :     0.009186
      dxy     :     0.006593
      f0      :     0.001055  f :     0.006310
      f+1     :     0.001157
      f-1     :     0.001222
      f+2     :     0.000873
      f-2     :     0.000657
      f+3     :     0.000665
      f-3     :     0.000682

 17 C s       :     3.226455  s :     3.226455
      pz      :     1.002330  p :     2.862622
      px      :     0.950110
      py      :     0.910182
      dz2     :     0.012713  d :     0.061004
      dxz     :     0.006426
      dyz     :     0.014133
      dx2y2   :     0.014513
      dxy     :     0.013220
      f0      :     0.000726  f :     0.006293
      f+1     :     0.000507
      f-1     :     0.001200
      f+2     :     0.000989
      f-2     :     0.000797
      f+3     :     0.000906
      f-3     :     0.001169

 18 C s       :     3.208227  s :     3.208227
      pz      :     0.889533  p :     2.928292
      px      :     0.987930
      py      :     1.050829
      dz2     :     0.012313  d :     0.067818
      dxz     :     0.015619
      dyz     :     0.019320
      dx2y2   :     0.008562
      dxy     :     0.012003
      f0      :     0.000965  f :     0.006562
      f+1     :     0.001019
      f-1     :     0.001407
      f+2     :     0.000640
      f-2     :     0.000805
      f+3     :     0.000850
      f-3     :     0.000877

 19 H s       :     0.838570  s :     0.838570
      pz      :     0.006098  p :     0.018574
      px      :     0.008036
      py      :     0.004439

 20 H s       :     0.838638  s :     0.838638
      pz      :     0.010274  p :     0.018260
      px      :     0.004564
      py      :     0.003421

 21 H s       :     0.838293  s :     0.838293
      pz      :     0.003648  p :     0.018587
      px      :     0.003788
      py      :     0.011151

 22 H s       :     0.840071  s :     0.840071
      pz      :     0.010777  p :     0.018218
      px      :     0.004078
      py      :     0.003363

 23 H s       :     0.822758  s :     0.822758
      pz      :     0.003495  p :     0.018791
      px      :     0.009268
      py      :     0.006028

 24 H s       :     0.811510  s :     0.811510
      pz      :     0.011213  p :     0.018349
      px      :     0.003695
      py      :     0.003441

 25 H s       :     0.820985  s :     0.820985
      pz      :     0.011440  p :     0.020170
      px      :     0.005076
      py      :     0.003654

 26 H s       :     0.803194  s :     0.803194
      pz      :     0.003628  p :     0.018930
      px      :     0.003896
      py      :     0.011406

 27 H s       :     0.815132  s :     0.815132
      pz      :     0.011097  p :     0.018447
      px      :     0.003979
      py      :     0.003371

 28 H s       :     0.841982  s :     0.841982
      pz      :     0.010925  p :     0.018224
      px      :     0.003819
      py      :     0.003480

 29 H s       :     0.837671  s :     0.837671
      pz      :     0.003436  p :     0.018603
      px      :     0.008958
      py      :     0.006209

 30 H s       :     0.813359  s :     0.813359
      pz      :     0.004240  p :     0.019684
      px      :     0.004542
      py      :     0.010902

 31 H s       :     0.802663  s :     0.802663
      pz      :     0.004268  p :     0.018851
      px      :     0.003507
      py      :     0.011076

 32 H s       :     0.825510  s :     0.825510
      pz      :     0.005718  p :     0.018879
      px      :     0.009002
      py      :     0.004159

 33 H s       :     0.837867  s :     0.837867
      pz      :     0.003723  p :     0.018233
      px      :     0.003792
      py      :     0.010717

 34 H s       :     0.840334  s :     0.840334
      pz      :     0.011315  p :     0.018559
      px      :     0.003857
      py      :     0.003387

 35 H s       :     0.840574  s :     0.840574
      pz      :     0.003723  p :     0.018555
      px      :     0.008627
      py      :     0.006204

 36 H s       :     0.839670  s :     0.839670
      pz      :     0.004209  p :     0.018250
      px      :     0.004205
      py      :     0.009836

 37 H s       :     0.840588  s :     0.840588
      pz      :     0.005874  p :     0.018584
      px      :     0.008631
      py      :     0.004080

 38 H s       :     0.838064  s :     0.838064
      pz      :     0.004433  p :     0.018219
      px      :     0.003602
      py      :     0.010184

 39 H s       :     0.805547  s :     0.805547
      pz      :     0.003795  p :     0.018618
      px      :     0.003601
      py      :     0.011223

 40 H s       :     0.822523  s :     0.822523
      pz      :     0.011380  p :     0.018684
      px      :     0.003910
      py      :     0.003395

 41 H s       :     0.819714  s :     0.819714
      pz      :     0.012700  p :     0.019854
      px      :     0.003620
      py      :     0.003534

 42 H s       :     0.836057  s :     0.836057
      pz      :     0.006692  p :     0.019645
      px      :     0.005587
      py      :     0.007366

 43 H s       :     0.835958  s :     0.835958
      pz      :     0.004013  p :     0.019609
      px      :     0.004521
      py      :     0.011075

 44 H s       :     0.836580  s :     0.836580
      pz      :     0.012421  p :     0.019610
      px      :     0.003801
      py      :     0.003389

 45 H s       :     0.798198  s :     0.798198
      pz      :     0.006719  p :     0.019984
      px      :     0.005642
      py      :     0.007623



                     *******************************
                     * LOEWDIN POPULATION ANALYSIS *
                     *******************************

----------------------
LOEWDIN ATOMIC CHARGES
----------------------
   0 C :   -0.272718
   1 C :   -0.270430
   2 C :   -0.273425
   3 C :   -0.386885
   4 C :   -0.273104
   5 C :   -0.270813
   6 P :    0.660578
   7 C :   -0.381374
   8 C :   -0.271086
   9 C :   -0.269327
  10 C :   -0.272866
  11 C :   -0.270738
  12 C :   -0.274106
  13 C :   -0.277102
  14 C :   -0.148829
  15 C :   -0.145345
  16 C :   -0.142904
  17 C :   -0.146500
  18 C :   -0.149859
  19 H :    0.136887
  20 H :    0.140317
  21 H :    0.137764
  22 H :    0.139353
  23 H :    0.138554
  24 H :    0.144204
  25 H :    0.140594
  26 H :    0.144017
  27 H :    0.144070
  28 H :    0.138741
  29 H :    0.138098
  30 H :    0.152502
  31 H :    0.149214
  32 H :    0.137911
  33 H :    0.139107
  34 H :    0.137202
  35 H :    0.136600
  36 H :    0.140455
  37 H :    0.137478
  38 H :    0.139231
  39 H :    0.146600
  40 H :    0.140146
  41 H :    0.149002
  42 H :    0.147157
  43 H :    0.146592
  44 H :    0.146815
  45 H :    0.148221

-------------------------------
LOEWDIN REDUCED ORBITAL CHARGES
-------------------------------
  0 C s       :     2.786010  s :     2.786010
      pz      :     1.028200  p :     3.057288
      px      :     1.009834
      py      :     1.019254
      dz2     :     0.061889  d :     0.391986
      dxz     :     0.081246
      dyz     :     0.058181
      dx2y2   :     0.093625
      dxy     :     0.097045
      f0      :     0.004757  f :     0.037433
      f+1     :     0.002857
      f-1     :     0.003748
      f+2     :     0.004978
      f-2     :     0.005627
      f+3     :     0.008977
      f-3     :     0.006489

  1 C s       :     2.785930  s :     2.785930
      pz      :     1.023796  p :     3.054154
      px      :     1.019277
      py      :     1.011081
      dz2     :     0.098774  d :     0.393018
      dxz     :     0.083547
      dyz     :     0.027171
      dx2y2   :     0.108239
      dxy     :     0.075287
      f0      :     0.004506  f :     0.037327
      f+1     :     0.006054
      f-1     :     0.002662
      f+2     :     0.004634
      f-2     :     0.006774
      f+3     :     0.007535
      f-3     :     0.005161

  2 C s       :     2.784596  s :     2.784596
      pz      :     1.032158  p :     3.053872
      px      :     1.016693
      py      :     1.005021
      dz2     :     0.107037  d :     0.397499
      dxz     :     0.045825
      dyz     :     0.058232
      dx2y2   :     0.071720
      dxy     :     0.114685
      f0      :     0.004204  f :     0.037458
      f+1     :     0.005223
      f-1     :     0.004079
      f+2     :     0.006902
      f-2     :     0.004570
      f+3     :     0.005876
      f-3     :     0.006605

  3 C s       :     2.789992  s :     2.789992
      pz      :     1.043877  p :     3.093519
      px      :     1.024837
      py      :     1.024806
      dz2     :     0.097367  d :     0.462295
      dxz     :     0.093549
      dyz     :     0.065898
      dx2y2   :     0.101626
      dxy     :     0.103855
      f0      :     0.005614  f :     0.041079
      f+1     :     0.004518
      f-1     :     0.004039
      f+2     :     0.004939
      f-2     :     0.005509
      f+3     :     0.009816
      f-3     :     0.006643

  4 C s       :     2.784401  s :     2.784401
      pz      :     1.032580  p :     3.054775
      px      :     1.010651
      py      :     1.011545
      dz2     :     0.099786  d :     0.396474
      dxz     :     0.083532
      dyz     :     0.027511
      dx2y2   :     0.109921
      dxy     :     0.075725
      f0      :     0.004604  f :     0.037454
      f+1     :     0.006054
      f-1     :     0.002693
      f+2     :     0.004610
      f-2     :     0.006690
      f+3     :     0.007604
      f-3     :     0.005198

  5 C s       :     2.785787  s :     2.785787
      pz      :     1.022807  p :     3.054456
      px      :     1.015073
      py      :     1.016576
      dz2     :     0.106115  d :     0.393184
      dxz     :     0.046353
      dyz     :     0.057173
      dx2y2   :     0.071935
      dxy     :     0.111608
      f0      :     0.004122  f :     0.037386
      f+1     :     0.005370
      f-1     :     0.004024
      f+2     :     0.006984
      f-2     :     0.004516
      f+3     :     0.005761
      f-3     :     0.006608

  6 P s       :     4.951309  s :     4.951309
      pz      :     3.295890  p :     8.816737
      px      :     2.781286
      py      :     2.739560
      dz2     :     0.078251  d :     0.479387
      dxz     :     0.087044
      dyz     :     0.076605
      dx2y2   :     0.112685
      dxy     :     0.124802
      f0      :     0.008726  f :     0.091990
      f+1     :     0.010969
      f-1     :     0.009384
      f+2     :     0.014892
      f-2     :     0.017620
      f+3     :     0.015646
      f-3     :     0.014752

  7 C s       :     2.790582  s :     2.790582
      pz      :     1.034634  p :     3.086885
      px      :     1.030918
      py      :     1.021333
      dz2     :     0.110375  d :     0.463297
      dxz     :     0.116031
      dyz     :     0.080782
      dx2y2   :     0.071814
      dxy     :     0.084295
      f0      :     0.006178  f :     0.040610
      f+1     :     0.009393
      f-1     :     0.006283
      f+2     :     0.005447
      f-2     :     0.005714
      f+3     :     0.003845
      f-3     :     0.003751

  8 C s       :     2.782853  s :     2.782853
      pz      :     1.008604  p :     3.054419
      px      :     1.014636
      py      :     1.031179
      dz2     :     0.076407  d :     0.396300
      dxz     :     0.107565
      dyz     :     0.076178
      dx2y2   :     0.080346
      dxy     :     0.055804
      f0      :     0.007027  f :     0.037513
      f+1     :     0.005847
      f-1     :     0.006371
      f+2     :     0.004192
      f-2     :     0.005108
      f+3     :     0.004984
      f-3     :     0.003985

  9 C s       :     2.786186  s :     2.786186
      pz      :     1.014754  p :     3.052582
      px      :     1.018410
      py      :     1.019418
      dz2     :     0.103096  d :     0.393259
      dxz     :     0.072432
      dyz     :     0.028115
      dx2y2   :     0.107210
      dxy     :     0.082407
      f0      :     0.004418  f :     0.037299
      f+1     :     0.005886
      f-1     :     0.002350
      f+2     :     0.004838
      f-2     :     0.006953
      f+3     :     0.007568
      f-3     :     0.005286

 10 C s       :     2.785979  s :     2.785979
      pz      :     1.019939  p :     3.057266
      px      :     1.009572
      py      :     1.027755
      dz2     :     0.106607  d :     0.392187
      dxz     :     0.086435
      dyz     :     0.069338
      dx2y2   :     0.048727
      dxy     :     0.081080
      f0      :     0.005338  f :     0.037433
      f+1     :     0.009139
      f-1     :     0.006515
      f+2     :     0.005364
      f-2     :     0.004306
      f+3     :     0.003315
      f-3     :     0.003456

 11 C s       :     2.786280  s :     2.786280
      pz      :     1.015822  p :     3.054197
      px      :     1.014417
      py      :     1.023959
      dz2     :     0.075981  d :     0.392897
      dxz     :     0.104075
      dyz     :     0.076095
      dx2y2   :     0.081811
      dxy     :     0.054935
      f0      :     0.006940  f :     0.037363
      f+1     :     0.005784
      f-1     :     0.006343
      f+2     :     0.004194
      f-2     :     0.005106
      f+3     :     0.005016
      f-3     :     0.003981

 12 C s       :     2.784927  s :     2.784927
      pz      :     1.014086  p :     3.055029
      px      :     1.014472
      py      :     1.026471
      dz2     :     0.101057  d :     0.396701
      dxz     :     0.073582
      dyz     :     0.029027
      dx2y2   :     0.109428
      dxy     :     0.083605
      f0      :     0.004377  f :     0.037449
      f+1     :     0.005928
[...]
      py      :     0.031203

 27 H s       :     0.800271  s :     0.800271
      pz      :     0.030862  p :     0.055659
      px      :     0.013062
      py      :     0.011735

 28 H s       :     0.806288  s :     0.806288
      pz      :     0.029987  p :     0.054972
      px      :     0.013245
      py      :     0.011740

 29 H s       :     0.806354  s :     0.806354
      pz      :     0.012162  p :     0.055548
      px      :     0.025328
      py      :     0.018058

 30 H s       :     0.790208  s :     0.790208
      pz      :     0.013719  p :     0.057290
      px      :     0.014147
      py      :     0.029424

 31 H s       :     0.793892  s :     0.793892
      pz      :     0.013547  p :     0.056893
      px      :     0.012604
      py      :     0.030743

 32 H s       :     0.805665  s :     0.805665
      pz      :     0.016947  p :     0.056424
      px      :     0.024921
      py      :     0.014557

 33 H s       :     0.805921  s :     0.805921
      pz      :     0.013111  p :     0.054972
      px      :     0.012728
      py      :     0.029133

 34 H s       :     0.807291  s :     0.807291
      pz      :     0.031115  p :     0.055507
      px      :     0.012645
      py      :     0.011747

 35 H s       :     0.807949  s :     0.807949
      pz      :     0.012049  p :     0.055451
      px      :     0.023500
      py      :     0.019903

 36 H s       :     0.804469  s :     0.804469
      pz      :     0.013526  p :     0.055076
      px      :     0.012976
      py      :     0.028575

 37 H s       :     0.807016  s :     0.807016
      pz      :     0.016987  p :     0.055505
      px      :     0.024383
      py      :     0.014135

 38 H s       :     0.805794  s :     0.805794
      pz      :     0.013718  p :     0.054975
      px      :     0.012524
      py      :     0.028733

 39 H s       :     0.796890  s :     0.796890
      pz      :     0.013294  p :     0.056510
      px      :     0.012643
      py      :     0.030574

 40 H s       :     0.803805  s :     0.803805
      pz      :     0.031570  p :     0.056049
      px      :     0.012524
      py      :     0.011954

 41 H s       :     0.794693  s :     0.794693
      pz      :     0.033156  p :     0.056305
      px      :     0.011720
      py      :     0.011429

 42 H s       :     0.797078  s :     0.797078
      pz      :     0.019128  p :     0.055765
      px      :     0.016112
      py      :     0.020525

 43 H s       :     0.797623  s :     0.797623
      pz      :     0.012972  p :     0.055785
      px      :     0.013721
      py      :     0.029092

 44 H s       :     0.797461  s :     0.797461
      pz      :     0.032191  p :     0.055724
      px      :     0.012098
      py      :     0.011436

 45 H s       :     0.794484  s :     0.794484
      pz      :     0.019235  p :     0.057295
      px      :     0.016499
      py      :     0.021561



                      *****************************
                      * MAYER POPULATION ANALYSIS *
                      *****************************

  NA   - Mulliken gross atomic population
  ZA   - Total nuclear charge
  QA   - Mulliken gross atomic charge
  VA   - Mayer's total valence
  BVA  - Mayer's bonded valence
  FA   - Mayer's free valence

  ATOM       NA         ZA         QA         VA         BVA        FA
  0 C      6.2736     6.0000    -0.2736     3.7488     3.7488    -0.0000
  1 C      6.2702     6.0000    -0.2702     3.7633     3.7633     0.0000
  2 C      6.3571     6.0000    -0.3571     3.7573     3.7573    -0.0000
  3 C      6.2318     6.0000    -0.2318     3.6290     3.6290     0.0000
  4 C      6.3454     6.0000    -0.3454     3.7357     3.7357    -0.0000
  5 C      6.2691     6.0000    -0.2691     3.7555     3.7555    -0.0000
  6 P     14.8343    15.0000     0.1657     3.0525     3.0525     0.0000
  7 C      6.1682     6.0000    -0.1682     3.5591     3.5591    -0.0000
  8 C      6.3576     6.0000    -0.3576     3.6919     3.6919    -0.0000
  9 C      6.2782     6.0000    -0.2782     3.7974     3.7974    -0.0000
 10 C      6.2696     6.0000    -0.2696     3.7489     3.7489    -0.0000
 11 C      6.2750     6.0000    -0.2750     3.7799     3.7799     0.0000
 12 C      6.3720     6.0000    -0.3720     3.7992     3.7992    -0.0000
 13 C      6.0304     6.0000    -0.0304     3.6677     3.6677     0.0000
 14 C      6.1645     6.0000    -0.1645     3.9301     3.9301     0.0000
 15 C      6.1462     6.0000    -0.1462     3.9590     3.9590     0.0000
 16 C      6.1388     6.0000    -0.1388     3.9369     3.9369     0.0000
 17 C      6.1564     6.0000    -0.1564     4.0185     4.0185     0.0000
 18 C      6.2109     6.0000    -0.2109     3.8310     3.8310     0.0000
 19 H      0.8571     1.0000     0.1429     0.9565     0.9565    -0.0000
 20 H      0.8569     1.0000     0.1431     0.9571     0.9571    -0.0000
 21 H      0.8569     1.0000     0.1431     0.9562     0.9562    -0.0000
 22 H      0.8583     1.0000     0.1417     0.9578     0.9578    -0.0000
 23 H      0.8415     1.0000     0.1585     0.9517     0.9517    -0.0000
 24 H      0.8299     1.0000     0.1701     0.9594     0.9594     0.0000
 25 H      0.8412     1.0000     0.1588     0.9365     0.9365     0.0000
 26 H      0.8221     1.0000     0.1779     0.9509     0.9509    -0.0000
 27 H      0.8336     1.0000     0.1664     0.9608     0.9608    -0.0000
 28 H      0.8602     1.0000     0.1398     0.9577     0.9577    -0.0000
 29 H      0.8563     1.0000     0.1437     0.9567     0.9567     0.0000
 30 H      0.8330     1.0000     0.1670     0.9369     0.9369    -0.0000
 31 H      0.8215     1.0000     0.1785     0.9430     0.9430    -0.0000
 32 H      0.8444     1.0000     0.1556     0.9503     0.9503    -0.0000
 33 H      0.8561     1.0000     0.1439     0.9569     0.9569    -0.0000
 34 H      0.8589     1.0000     0.1411     0.9564     0.9564     0.0000
 35 H      0.8591     1.0000     0.1409     0.9562     0.9562    -0.0000
 36 H      0.8579     1.0000     0.1421     0.9575     0.9575    -0.0000
 37 H      0.8592     1.0000     0.1408     0.9573     0.9573     0.0000
 38 H      0.8563     1.0000     0.1437     0.9565     0.9565     0.0000
 39 H      0.8242     1.0000     0.1758     0.9431     0.9431     0.0000
 40 H      0.8412     1.0000     0.1588     0.9621     0.9621    -0.0000
 41 H      0.8396     1.0000     0.1604     0.9711     0.9711    -0.0000
 42 H      0.8557     1.0000     0.1443     0.9649     0.9649     0.0000
 43 H      0.8556     1.0000     0.1444     0.9638     0.9638     0.0000
 44 H      0.8562     1.0000     0.1438     0.9654     0.9654     0.0000
 45 H      0.8182     1.0000     0.1818     0.9454     0.9454     0.0000

  Mayer bond orders larger than 0.100000
B(  0-C ,  1-C ) :   0.9223 B(  0-C ,  5-C ) :   0.9206 B(  0-C , 19-H ) :   0.9830 
B(  0-C , 20-H ) :   0.9800 B(  1-C ,  2-C ) :   0.9165 B(  1-C , 21-H ) :   0.9851 
B(  1-C , 22-H ) :   0.9809 B(  2-C ,  3-C ) :   0.8875 B(  2-C , 23-H ) :   0.9853 
B(  2-C , 24-H ) :   0.9775 B(  3-C ,  4-C ) :   0.8887 B(  3-C ,  6-P ) :   0.9740 
B(  3-C , 25-H ) :   0.9500 B(  4-C ,  5-C ) :   0.9096 B(  4-C , 26-H ) :   0.9860 
B(  4-C , 27-H ) :   0.9774 B(  5-C , 28-H ) :   0.9803 B(  5-C , 29-H ) :   0.9859 
B(  6-P ,  7-C ) :   0.9448 B(  6-P , 13-C ) :   0.9395 B(  7-C ,  8-C ) :   0.8416 
B(  7-C , 12-C ) :   0.9040 B(  7-C , 30-H ) :   0.9486 B(  8-C ,  9-C ) :   0.9270 
B(  8-C , 31-H ) :   0.9610 B(  8-C , 32-H ) :   0.9853 B(  9-C , 10-C ) :   0.9241 
B(  9-C , 33-H ) :   0.9864 B(  9-C , 34-H ) :   0.9844 B( 10-C , 11-C ) :   0.9215 
B( 10-C , 35-H ) :   0.9817 B( 10-C , 36-H ) :   0.9783 B( 11-C , 12-C ) :   0.9231 
B( 11-C , 37-H ) :   0.9831 B( 11-C , 38-H ) :   0.9840 B( 12-C , 39-H ) :   0.9785 
B( 12-C , 40-H ) :   0.9788 B( 13-C , 14-C ) :   1.3898 B( 13-C , 18-C ) :   1.2682 
B( 14-C , 15-C ) :   1.4594 B( 14-C , 41-H ) :   0.9389 B( 15-C , 16-C ) :   1.4415 
B( 15-C , 42-H ) :   0.9468 B( 16-C , 17-C ) :   1.4416 B( 16-C , 43-H ) :   0.9477 
B( 17-C , 18-C ) :   1.4878 B( 17-C , 44-H ) :   0.9409 B( 18-C , 45-H ) :   0.9387 


-------
TIMINGS
-------

Total SCF time: 0 days 0 hours 2 min 24 sec 

Total time                  ....     144.526 sec
Sum of individual times     ....     144.562 sec  (100.0%)

SCF preparation             ....       0.370 sec  (  0.3%)
Fock matrix formation       ....     140.048 sec  ( 96.9%)
  Startup                   ....       0.144 sec  (  0.1% of F)
  Split-RI-J                ....      10.110 sec  (  7.2% of F)
  Chain of spheres X        ....      98.510 sec  ( 70.3% of F)
  XC integration            ....      30.930 sec  ( 22.1% of F)
    Basis function eval.    ....       4.505 sec  ( 14.6% of XC)
    Density eval.           ....      13.240 sec  ( 42.8% of XC)
    XC-Functional eval.     ....       0.498 sec  (  1.6% of XC)
    XC-Potential eval.      ....      11.250 sec  ( 36.4% of XC)
Diagonalization             ....       0.000 sec  (  0.0%)
Density matrix formation    ....       0.351 sec  (  0.2%)
Total Energy calculation    ....       0.117 sec  (  0.1%)
Population analysis         ....       0.234 sec  (  0.2%)
Orbital Transformation      ....       0.499 sec  (  0.3%)
Orbital Orthonormalization  ....       0.000 sec  (  0.0%)
DIIS solution               ....       2.152 sec  (  1.5%)
SOSCF solution              ....       0.791 sec  (  0.5%)
Finished LeanSCF after 144.6 sec

Maximum memory used throughout the entire LEANSCF-calculation: 119.7 MB


-------------------------------------------------------------------------------
                          DFT DISPERSION CORRECTION                            
                                                                               
                              DFTD3 V3.1  Rev 1                                
                              USING zero damping                               
-------------------------------------------------------------------------------
The M062X functional is recognized
Active option DFTDOPT                   ...         3   

molecular C6(AA) [au] = 19822.027807 


            DFT-D V3
 parameters
 s6 scaling factor         :     1.0000 
 rs6 scaling factor        :     1.6190 
 s8 scaling factor         :     0.0000 
 rs8 scaling factor        :     1.0000 
 Damping factor alpha6     :    14.0000 
 Damping factor alpha8     :    16.0000 
 ad hoc parameters k1-k3   :    16.0000     1.3333    -4.0000 

 Edisp/kcal,au: -1.991080782422  -0.003172988859 
 E6   /kcal   :  -1.991080782 
 E8   /kcal   :  -0.000000000 
 % E8         :   0.000000000 

-------------------------   ----------------
Dispersion correction           -0.003172989
-------------------------   ----------------


-------------------------   --------------------
FINAL SINGLE POINT ENERGY     -1043.469210169982
-------------------------   --------------------



           ************************************************************
           *        Program running with 6 parallel MPI-processes     *
           *              working on a common directory               *
           ************************************************************

------------------------------------------------------------------------------
                              ORCA PROPERTY CALCULATIONS
------------------------------------------------------------------------------

GBWName                                 ... data/single_point_P_M06-2x/80970/80970.gbw
Number of atoms                         ...     46
Number of basis functions               ...    757
Max core memory                         ...   1024 MB

Electric properties:
Dipole moment                           ... YES
Quadrupole moment                       ...  NO
Static polarizability (Dipole/Dipole)   ...  NO
Static polarizability (Dipole/Quad.)    ...  NO
Static polarizability (Quad./Quad.)     ...  NO
Static polarizability (Velocity)        ...  NO

Atomic electric properties:
Dipole moment                           ...  NO
Quadrupole moment                       ...  NO
Static polarizability                   ...  NO

Choice of electric origin               ... Center of mass
Position of electric origin             ...    -0.016515     0.532482    -0.281768

General magnetic properties:
Magnetizability                         ...  NO

EPR properties:
g-Tensor (aka g-matrix)                 ...  NO
Zero-Field splitting spin-orbit         ...  NO
Zero-field splitting spin-spin          ...  NO
Hyperfine couplings                     ...  NO (   0 nuclei)
Quadrupole couplings                    ...  NO (   0 nuclei)
Contact density                         ...  NO (   0 nuclei)

NMR properties:
Chemical shifts                         ...  NO (   0 nuclei)
Spin-rotation constants                 ...  NO (   0 nuclei)
Spin-spin couplings                     ...  NO (   0 nuclei,    0 pairs)

Choice of magnetic origin               ... GIAO
Position of magnetic origin             ...     0.000000     0.000000     0.000000

Properties with geometric perturbations:
SCF Hessian                             ...  NO
IR spectrum                             ...  NO
VCD spectrum                            ...  NO
X-ray spectroscopy properties:
SCF XES/XAS/RIXS spectra                ...  NO


-------------
DIPOLE MOMENT
-------------

Method             : SCF
Type of density    : Electron Density
Multiplicity       :   1
Irrep              :   0
Energy             : -1043.4660371811228288 Eh
Relativity type    : 
Basis              : AO
                                X                 Y                 Z
Electronic contribution:     -0.764470337      13.234400117      -5.763244971
Nuclear contribution   :      0.645761303     -13.310930393       6.240598164
                        -----------------------------------------
Total Dipole Moment    :     -0.118709034      -0.076530276       0.477353194
                        -----------------------------------------
Magnitude (a.u.)       :      0.497809993
Magnitude (Debye)      :      1.265332445



--------------------
Rotational spectrum 
--------------------
 
Rotational constants in cm-1:             0.012849             0.009080             0.006254 
Rotational constants in MHz :           385.209633           272.198575           187.485717 

Dipole components along the rotational axes: 
x,y,z [a.u.] :    -0.040652     0.082235     0.489285 
x,y,z [Debye]:    -0.103330     0.209024     1.243663 

 

Dipole moment calculation done in   0.1 sec 

Maximum memory used throughout the entire PROP-calculation: 62.8 MB

--------------------------------
SUGGESTED CITATIONS FOR THIS RUN
--------------------------------

Below you find a list of papers that are relevant to this ORCA run
We neither can nor want to force you to cite these papers, but we appreciate if you do
You receive ORCA, which is the product of decades of hard work by many enthusiastic individuals, for free
The only thing we kindly ask in return is that you cite our papers,
We deeply appreciate it, if you show your appreciation for ORCA by not just citing the generic ORCA reference.

Please note that relegating all ORCA citations to the supporting information does *not* help us.
SI sections are not indexed - citations you put there will not count into any citation statistics
But we need these citations in order to attract the funding resources that allow us to do what we are doing

Therefore, if you are a happy ORCA user, please consider citing a few of the papers listed below in the main body of your paper

In addition to the list printed below, the program has created the file data/single_point_P_M06-2x/80970/80970.bibtex that contains the list in bibtex format
You can import this file easily into all common literature databanks and citation aid programs


List of essential papers. We consider these as the minimum necessary citations

  1. Neese,F.
     Software update: the ORCA program system, version 5.0
     WIRES Comput. Molec. Sci., 2022 12(1)e1606
     doi.org/10.1002/wcms.1606

List of papers to cite with high priority. The work reported in these papers was absolutely
necessary for this run to complete.
Our perspective: the developers of density functionals and basis sets usually get cited in chemistry papers
Good! But without the algorithms to do something with them, the functionals or basis sets would not do anything.
Hence, in our opinion, the algorithm design and method developments papers are equally worthy of getting cited

  1. Neese,F.
     An improvement of the resolution of the identity approximation for the formation of the Coulomb matrix
     J. Comp. Chem., 2003 24(14)1740-1747
     doi.org/10.1002/jcc.10318
  2. Neese,F.; Wennmohs,F.; Hansen,A.; Becker,U.
     Efficient, approximate and parallel Hartree-Fock and hybrid DFT calculations. A 'chain-of-spheres' algorithm for the Hartree-Fock exchange
     Chem. Phys., 2009 356(1-3)98-109
     doi.org/10.1016/j.chemphys.2008.10.036
  3. Helmich-Paris,B.; de Souza,B.; Neese,F.; Izsák,R.
     An improved chain of spheres for exchange algorithm
     J. Chem. Phys., 2021 155 104109
     doi.org/doi: 10.1063/5.0058766.
  4. Neese,F.
     The SHARK Integral Generation and Digestion System
     J. Comp. Chem., 2022  1-16
     doi.org/10.1002/jcc.26942
  5. Grimme,S.; Antony,J.; Ehrlich,S.; Krieg,H.
     A consistent and accurate ab initio parametrization of density functional dispersion correction (DFT-D) for the 94 elements H-Pu
     J. Chem. Phys., 2010 132 154104-XXXX
     doi.org/10.1063/1.3382344

List of suggested additional citations. These are papers that are important in the 'surrounding' of 
of this run, or papers that preceded the highly important papers. If you like your results we are grateful for a citation.

  1. Izsak,R.; Neese,F.
     An overlap fitted chain of spheres exchange method
     J. Chem. Phys., 2011 135 144105
     doi.org/10.1063/1.3646921
  2. Izsak,R.; Hansen,A.; Neese,F.
     The resolution of identity and chain of spheres approximations for the LPNO-CCSD singles Fock term
     Molec. Phys., 2012 110 2413-2417
     doi.org/10.1080/00268976.2012.687466
  3. Neese,F.
     The ORCA program system
     WIRES Comput. Molec. Sci., 2012 2(1)73-78
     doi.org/10.1002/wcms.81
  4. Izsak,R.; Neese,F.; Klopper,W.
     Robust fitting techniques in the chain of spheres approximation to the Fock exchange: The role of the complementary space
     J. Chem. Phys., 2013 139 
     doi.org/10.1063/1.4819264
  5. Neese,F.
     Software update: the ORCA program system, version 4.0
     WIRES Comput. Molec. Sci., 2018 8(1)1-6
     doi.org/10.1002/wcms.1327
  6. Neese,F.; Wennmohs,F.; Becker,U.; Riplinger,C.
     The ORCA quantum chemistry program package
     J. Chem. Phys., 2020 152 Art. No. L224108
     doi.org/10.1063/5.0004608

List of optional additional citations

  1. Neese,F.
     Approximate second-order SCF convergence for spin unrestricted wavefunctions
     Chem. Phys. Lett., 2000 325(1-3)93-98
     doi.org/10.1016/s0009-2614(00)00662-x

Timings for individual modules:

Sum of individual times          ...      152.352 sec (=   2.539 min)
Startup calculation              ...        5.120 sec (=   0.085 min)   3.4 %
SCF iterations                   ...      146.841 sec (=   2.447 min)  96.4 %
Property calculations            ...        0.391 sec (=   0.007 min)   0.3 %
                             ****ORCA TERMINATED NORMALLY****
TOTAL RUN TIME: 0 days 0 hours 2 minutes 32 seconds 830 msec
