
                                 *****************
                                 * O   R   C   A *
                                 *****************

                                            #,                                       
                                            ###                                      
                                            ####                                     
                                            #####                                    
                                            ######                                   
                                           ########,                                 
                                     ,,################,,,,,                         
                               ,,#################################,,                 
                          ,,##########################################,,             
                       ,#########################################, ''#####,          
                    ,#############################################,,   '####,        
                  ,##################################################,,,,####,       
                ,###########''''           ''''###############################       
              ,#####''   ,,,,##########,,,,          '''####'''          '####       
            ,##' ,,,,###########################,,,                        '##       
           ' ,,###''''                  '''############,,,                           
         ,,##''                                '''############,,,,        ,,,,,,###''
      ,#''                                            '''#######################'''  
     '                                                          ''''####''''         
             ,#######,   #######,   ,#######,      ##                                
            ,#'     '#,  ##    ##  ,#'     '#,    #''#        ,####,   ,####,        
            ##       ##  ##   ,#'  ##            #'  '#       #'       #'  '#        
            ##       ##  #######   ##           ,######,      #####,   #    #        
            '#,     ,#'  ##    ##  '#,     ,#' ,#      #,     #,   #   #,  ,#        
             '#######'   ##     ##  '#######'  #'      '#     '####' # '####'        



                #########################################################
                #                        -***-                          #
                #          Department of theory and spectroscopy        #
                #                                                       #
                #                      Frank Neese                      #
                #                                                       #
                #     Directorship, Architecture, Infrastructure        #
                #                    SHARK, DRIVERS                     #
                #        Core code/Algorithms in most modules           #
                #                                                       #
                #        Max Planck Institute fuer Kohlenforschung      #
                #                Kaiser Wilhelm Platz 1                 #
                #                 D-45470 Muelheim/Ruhr                 #
                #                      Germany                          #
                #                                                       #
                #                  All rights reserved                  #
                #                        -***-                          #
                #########################################################


                         Program Version 6.0.0  -   RELEASE   -


 With contributions from (in alphabetic order):
   Daniel Aravena         : Magnetic Suceptibility
   Michael Atanasov       : Ab Initio Ligand Field Theory (pilot matlab implementation)
   Alexander A. Auer      : GIAO ZORA, VPT2 properties, NMR spectrum
   Ute Becker             : All parallelization in ORCA, NUMFREQ, NUMCALC
   Giovanni Bistoni       : ED, misc. LED, open-shell LED, HFLD
   Martin Brehm           : Molecular dynamics
   Dmytro Bykov           : pre 5.0 version of the SCF Hessian
   Marcos Casanova-Páez   : Triplet and SCS-CIS(D). UHF-(DLPNO)-IP/EA/STEOM-CCSD. UHF-CVS-IP/STEOM-CCSD
   Vijay G. Chilkuri      : MRCI spin determinant printing, contributions to CSF-ICE
   Pauline Colinet        : FMM embedding
   Dipayan Datta          : RHF DLPNO-CCSD density
   Achintya Kumar Dutta   : EOM-CC, STEOM-CC
   Nicolas Foglia         : Exact transition moments, OPA infrastructure, MCD improvements
   Dmitry Ganyushin       : Spin-Orbit,Spin-Spin,Magnetic field MRCI
   Miquel Garcia          : C-PCM and meta-GGA Hessian, CCSD/C-PCM, Gaussian charge scheme
   Tiago L. C. Gouveia    : GS-ROHF, GS-ROCIS
   Yang Guo               : DLPNO-NEVPT2, F12-NEVPT2, CIM, IAO-localization
   Andreas Hansen         : Spin unrestricted coupled pair/coupled cluster methods
   Ingolf Harden          : AUTO-CI MPn and infrastructure 
   Benjamin Helmich-Paris : MC-RPA, TRAH-(SCF,CASSCF), AVAS, COSX integrals, SCF dyn. polar.
   Lee Huntington         : MR-EOM, pCC
   Robert Izsak           : Overlap fitted RIJCOSX, COSX-SCS-MP3, EOM
   Riya Kayal             : Wick's Theorem for AUTO-CI, AUTO-CI UHF-CCSDT
   Emily Kempfer          : AUTO-CI, RHF CISDT and CCSDT
   Christian Kollmar      : KDIIS, OOCD, Brueckner-CCSD(T), CCSD density, CASPT2, CASPT2-K, improved NEVPT2
   Axel Koslowski         : Symmetry handling
   Simone Kossmann        : Meta GGA functionals, TD-DFT gradient, OOMP2, (MP2 Hessian; deprecated post 5.0)
   Lucas Lang             : DCDCAS
   Marvin Lechner         : AUTO-CI (C++ implementation), FIC-MRCC
   Spencer Leger          : CASSCF response
   Dagmar Lenk            : GEPOL surface, SMD, ORCA-2-JSON
   Dimitrios Liakos       : Extrapolation schemes; Compound Job, initial MDCI parallelization
   Dimitrios Manganas     : Further ROCIS development; embedding schemes. LFT, Crystal Embedding
   Dimitrios Pantazis     : SARC Basis sets
   Anastasios Papadopoulos: AUTO-CI, single reference methods and gradients
   Taras Petrenko         : pre 6.0 DFT Hessian and TD-DFT gradient, (ASA, deprecated), ECA, 1-Electron XAS/XES, NRVS
   Peter Pinski           : DLPNO-MP2, DLPNO-MP2 Gradient
   Christoph Reimann      : Effective Core Potentials
   Marius Retegan         : Local ZFS, SOC
   Christoph Riplinger    : Optimizer, TS searches, QM/MM, DLPNO-CCSD(T), (RO)-DLPNO pert. Triples
   Michael Roemelt        : Original ROCIS implementation
   Masaaki Saitow         : Open-shell DLPNO-CCSD energy and density
   Barbara Sandhoefer     : DKH picture change effects
   Kantharuban Sivalingam : CASSCF convergence/infrastructure, NEVPT2 and variants, FIC-MRCI
   Bernardo de Souza      : ESD, SOC TD-DFT
   Georgi Stoychev        : AutoAux, RI-MP2 NMR, DLPNO-MP2 response, X2C
   Van Anh Tran           : RI-MP2 g-tensors
   Willem Van den Heuvel  : Paramagnetic NMR
   Zikuan Wang            : NOTCH, Electric field optimization 
   Frank Wennmohs         : Technical directorship and infrastructure
   Hang Xu                : AUTO-CI-Response properties 


 We gratefully acknowledge several colleagues who have allowed us to
 interface, adapt or use parts of their codes:
   Stefan Grimme, W. Hujo, H. Kruse, P. Pracht,  : VdW corrections, initial TS optimization,
                  C. Bannwarth, S. Ehlert,         DFT functionals, gCP, sTDA/sTD-DF
                  L. Wittmann, M. Mueller
   Ed Valeev, F. Pavosevic, A. Kumar             : LibInt (2-el integral package), F12 methods
   Garnet Chan, S. Sharma, J. Yang, R. Olivares  : DMRG
   Ulf Ekstrom                                   : XCFun DFT Library
   Mihaly Kallay                                 : mrcc  (arbitrary order and MRCC methods)
   Frank Weinhold                                : gennbo (NPA and NBO analysis)
   Simon Mueller                                 : openCOSMO-RS
   Christopher J. Cramer and Donald G. Truhlar   : smd solvation model
   Lars Goerigk                                  : TD-DFT with DH, B97 family of functionals
   V. Asgeirsson, H. Jonsson                     : NEB implementation
   FAccTs GmbH                                   : IRC, NEB, NEB-TS, DLPNO-Multilevel, CI-OPT
                                                   MM, QMMM, 2- and 3-layer-ONIOM, Crystal-QMMM,
                                                   LR-CPCM, SF, NACMEs, symmetry and pop. for TD-DFT,
                                                   nearIR, NL-DFT gradient (VV10), updates on ESD,
                                                   ML-optimized integration grids, MBIS, APM,
                                                   GOAT, DOCKER, SOLVATOR, interface openCOSMO-RS
   S Lehtola, MJT Oliveira, MAL Marques          : LibXC Library
   Liviu Ungur et al                             : ANISO software


 Your calculation uses the libint2 library for the computation of 2-el integrals
 For citations please refer to: http://libint.valeyev.net

 Your ORCA version has been built with support for libXC version: 6.2.2
 For citations please refer to: https://libxc.gitlab.io

 This ORCA versions uses:
   CBLAS   interface :  Fast vector & matrix operations
   LAPACKE interface :  Fast linear algebra routines
   Shared memory     :  Shared parallel matrices


Your calculation utilizes the atom-pairwise dispersion correction
with the Becke-Johnson damping scheme (D3BJ)


Warning: RI is on but no J-basis has been assigned. Assigning Def2/J (nothing to worry about!)
================================================================================

----- Orbital basis set information -----
Your calculation utilizes the basis: def2-SVP
   F. Weigend and R. Ahlrichs, Phys. Chem. Chem. Phys. 7, 3297 (2005).

----- AuxJ basis set information -----
Your calculation utilizes the auxiliary basis: def2/J
   F. Weigend, Phys. Chem. Chem. Phys. 8, 1057 (2006).

================================================================================
                                        WARNINGS
                       Please study these warnings very carefully!
================================================================================


WARNING: Geometry Optimization
  ===> : Switching off AutoStart
         For restart on a previous wavefunction, please use MOREAD

================================================================================
                                       INPUT FILE
================================================================================
NAME = data/geom_opt_P_BP86/195868/195868.inp
|  1> ! RI BP86 def2-SVP D3BJ TIGHTSCF Opt
|  2> %pal
|  3> nprocs 6
|  4> end
|  5> 
|  6> * xyz 0 1
|  7> C     -2.984481   -2.565342    2.341324
|  8> C     -3.582369   -1.376507    1.936627
|  9> C     -3.054390   -0.659794    0.858701
| 10> C     -1.906826   -1.104362    0.176727
| 11> C     -1.343104   -2.324505    0.580796
| 12> C     -1.868955   -3.042494    1.660095
| 13> P     -1.280218   -0.151172   -1.246387
| 14> C     -1.086634    1.554312   -0.613191
| 15> C     -0.883669    1.880072    0.736494
| 16> C     -0.737050    3.209933    1.142857
| 17> C     -0.789658    4.237448    0.205498
| 18> C     -0.987305    3.936425   -1.138707
| 19> C     -1.133559    2.606629   -1.543983
| 20> C      0.466984   -0.646533   -1.413530
| 21> C      1.404680   -0.542845   -0.377422
| 22> C      2.731022   -0.935995   -0.586628
| 23> C      3.152012   -1.427583   -1.822409
| 24> C      2.228139   -1.537513   -2.857266
| 25> C      0.899221   -1.150152   -2.653621
| 26> S      3.901406   -0.761709    0.728688
| 27> O      5.187603   -0.447480    0.143713
| 28> O      3.714731   -1.875896    1.628993
| 29> O      3.459333    0.587065    1.496647
| 30> H     -3.393329   -3.125406    3.178038
| 31> H     -4.463515   -1.006042    2.453939
| 32> H     -3.554063    0.259581    0.557010
| 33> H     -0.487529   -2.748297    0.060375
| 34> H     -1.407409   -3.979667    1.961425
| 35> H     -0.830714    1.105202    1.497910
| 36> H     -0.581663    3.439539    2.194018
| 37> H     -0.676860    5.270871    0.522265
| 38> H     -1.028560    4.734839   -1.875053
| 39> H     -1.285533    2.401020   -2.602101
| 40> H      1.109657   -0.170828    0.600766
| 41> H      4.186103   -1.724351   -1.983154
| 42> H      2.537687   -1.921836   -3.826451
| 43> H      0.198812   -1.245294   -3.482540
| 44> H      4.170004    1.248670    1.359537
| 45> **                         ****END OF INPUT****
================================================================================

                       *****************************
                       * Geometry Optimization Run *
                       *****************************

Geometry optimization settings:
Update method            Update   .... BFGS
Choice of coordinates    CoordSys .... (2022) Redundant Internals
Initial Hessian          InHess   .... Almloef's Model
Max. no of cycles        MaxIter  .... 114

Convergence Tolerances:
Energy Change            TolE     ....  5.0000e-06 Eh
Max. Gradient            TolMAXG  ....  3.0000e-04 Eh/bohr
RMS Gradient             TolRMSG  ....  1.0000e-04 Eh/bohr
Max. Displacement        TolMAXD  ....  4.0000e-03 bohr
RMS Displacement         TolRMSD  ....  2.0000e-03 bohr
Strict Convergence                .... False

------------------------------------------------------------------------------
                        ORCA OPTIMIZATION COORDINATE SETUP
------------------------------------------------------------------------------

The optimization will be done in redundant internal coordinates (2022)
Making redundant internal coordinates   ...  (2022 redundants) done
Evaluating the initial hessian          ...  (Almloef) done
Evaluating the coordinates              ...  done
Calculating the B-matrix                .... done
Calculating the G-matrix                .... done
Diagonalizing the G-matrix              .... done
Small eigenvalue found = 3.736e-03
Small eigenvalue found = 4.433e-03
Small eigenvalue found = 6.966e-03
Small eigenvalue found = 1.408e-02
Small eigenvalue found = 2.712e-02
The first mode is                       ....   88
The number of degrees of freedom        ....  108

    -----------------------------------------------------------------
                    Redundant Internal Coordinates


    -----------------------------------------------------------------
         Definition                    Initial Value    Approx d2E/dq
    -----------------------------------------------------------------
      1. B(C   1,C   0)                  1.3909         0.622754   
      2. B(C   2,C   1)                  1.3980         0.606734   
      3. B(C   3,C   2)                  1.4070         0.586983   
      4. B(C   4,C   3)                  1.4035         0.594573   
      5. B(C   5,C   4)                  1.3989         0.604705   
      6. B(C   5,C   0)                  1.3915         0.621467   
      7. B(P   6,C   3)                  1.8239         0.426617   
      8. B(C   7,P   6)                  1.8295         0.417860   
      9. B(C   8,C   7)                  1.4032         0.595227   
     10. B(C   9,C   8)                  1.3983         0.606101   
     11. B(C  10,C   9)                  1.3918         0.620605   
     12. B(C  11,C  10)                  1.3916         0.621122   
     13. B(C  12,C  11)                  1.3979         0.607027   
     14. B(C  12,C   7)                  1.4057         0.589815   
     15. B(C  13,P   6)                  1.8237         0.426801   
     16. B(C  14,C  13)                  1.4013         0.599467   
     17. B(C  15,C  14)                  1.3991         0.604226   
     18. B(C  16,C  15)                  1.3950         0.613408   
     19. B(C  17,C  16)                  1.3916         0.621131   
     20. B(C  18,C  17)                  1.3991         0.604206   
     21. B(C  18,C  13)                  1.4065         0.588015   
     22. B(S  19,C  15)                  1.7692         0.418258   
     23. B(O  20,S  19)                  1.4475         1.221562   
     24. B(O  21,S  19)                  1.4446         1.234711   
     25. B(O  22,S  19)                  1.6138         0.663086   
     26. B(H  23,C   0)                  1.0867         0.364491   
     27. B(H  24,C   1)                  1.0869         0.364272   
     28. B(H  25,C   2)                  1.0890         0.361413   
     29. B(H  26,C   4)                  1.0874         0.363551   
     30. B(H  27,C   5)                  1.0873         0.363753   
     31. B(H  28,C   8)                  1.0876         0.363222   
     32. B(H  29,C   9)                  1.0871         0.363946   
     33. B(H  30,C  10)                  1.0868         0.364424   
     34. B(H  31,C  11)                  1.0869         0.364212   
     35. B(H  32,C  12)                  1.0886         0.361997   
     36. B(H  33,C  14)                  1.0873         0.363649   
     37. B(H  34,C  16)                  1.0878         0.363055   
     38. B(H  35,C  17)                  1.0876         0.363307   
     39. B(H  36,C  18)                  1.0894         0.360932   
     40. B(H  37,O  22)                  0.9806         0.482062   
     41. A(C   5,C   0,H  23)          120.1222         0.353775   
     42. A(C   1,C   0,C   5)          119.6874         0.434597   
     43. A(C   1,C   0,H  23)          120.1863         0.353900   
     44. A(C   2,C   1,H  24)          119.8966         0.352306   
     45. A(C   0,C   1,H  24)          120.0893         0.353863   
     46. A(C   0,C   1,C   2)          120.0133         0.432725   
     47. A(C   3,C   2,H  25)          120.4445         0.349875   
     48. A(C   1,C   2,C   3)          121.3173         0.428154   
     49. A(C   1,C   2,H  25)          118.2381         0.351837   
     50. A(C   4,C   3,P   6)          122.7515         0.429764   
     51. A(C   2,C   3,C   4)          117.5641         0.426603   
     52. A(C   2,C   3,P   6)          119.5566         0.428775   
     53. A(C   3,C   4,H  26)          121.1347         0.350984   
     54. A(C   3,C   4,C   5)          121.1543         0.428884   
     55. A(C   5,C   4,H  26)          117.7091         0.351988   
     56. A(C   4,C   5,H  27)          119.7794         0.352021   
     57. A(C   0,C   5,H  27)          120.0146         0.353654   
     58. A(C   0,C   5,C   4)          120.2045         0.432304   
     59. A(C   7,P   6,C  13)          100.5768         0.430383   
     60. A(C   3,P   6,C  13)          104.9930         0.431989   
     61. A(C   3,P   6,C   7)          104.6842         0.430350   
     62. A(C   8,C   7,C  12)          117.9009         0.427055   
     63. A(P   6,C   7,C   8)          124.3763         0.428253   
     64. A(P   6,C   7,C  12)          117.7205         0.427552   
     65. A(C   9,C   8,H  28)          117.9705         0.352072   
     66. A(C   7,C   8,H  28)          120.9980         0.350996   
     67. A(C   7,C   8,C   9)          121.0309         0.429146   
     68. A(C   8,C   9,H  29)          119.7932         0.352190   
     69. A(C   8,C   9,C  10)          120.1617         0.432376   
     70. A(C  10,C   9,H  29)          120.0451         0.353603   
     71. A(C   9,C  10,H  30)          120.1187         0.353681   
     72. A(C   9,C  10,C  11)          119.7494         0.434284   
     73. A(C  11,C  10,H  30)          120.1319         0.353731   
     74. A(C  12,C  11,H  31)          119.8956         0.352325   
     75. A(C  10,C  11,H  31)          120.0586         0.353696   
     76. A(C  10,C  11,C  12)          120.0459         0.432559   
     77. A(C  11,C  12,H  32)          118.4315         0.351961   
     78. A(C   7,C  12,H  32)          120.4577         0.350255   
     79. A(C   7,C  12,C  11)          121.1109         0.428561   
     80. A(C  14,C  13,C  18)          118.2142         0.427365   
     81. A(P   6,C  13,C  18)          118.1950         0.428943   
     82. A(P   6,C  13,C  14)          123.5888         0.430430   
     83. A(C  15,C  14,H  33)          119.2010         0.351957   
     84. A(C  13,C  14,H  33)          120.5932         0.351487   
     85. A(C  13,C  14,C  15)          120.1999         0.429454   
     86. A(C  16,C  15,S  19)          119.5812         0.425997   
     87. A(C  14,C  15,S  19)          119.2266         0.424848   
     88. A(C  14,C  15,C  16)          121.1693         0.431230   
     89. A(C  17,C  16,H  34)          119.9791         0.353507   
     90. A(C  15,C  16,H  34)          120.9264         0.352759   
     91. A(C  15,C  16,C  17)          119.0944         0.433374   
     92. A(C  16,C  17,H  35)          120.1089         0.353548   
     93. A(C  16,C  17,C  18)          120.0311         0.432198   
     94. A(C  18,C  17,H  35)          119.8598         0.351899   
     95. A(C  17,C  18,H  36)          118.4084         0.351509   
     96. A(C  13,C  18,H  36)          120.3026         0.349900   
     97. A(C  13,C  18,C  17)          121.2889         0.427968   
     98. A(C  15,S  19,O  21)          107.5698         0.508574   
     99. A(C  15,S  19,O  20)          107.9835         0.507558   
    100. A(O  21,S  19,O  22)          108.2188         0.551441   
    101. A(O  20,S  19,O  22)          104.7313         0.550321   
    102. A(C  15,S  19,O  22)          104.7674         0.453501   
    103. A(O  20,S  19,O  21)          122.2846         0.620023   
    104. A(S  19,O  22,H  37)          107.3871         0.389647   
    105. D(H  24,C   1,C   0,H  23)     -0.2555         0.026851   
    106. D(H  24,C   1,C   0,C   5)    179.0157         0.026851   
    107. D(C   2,C   1,C   0,H  23)   -179.9193         0.026851   
    108. D(C   2,C   1,C   0,C   5)     -0.6480         0.026851   
    109. D(H  25,C   2,C   1,H  24)     -0.5536         0.025409   
    110. D(C   3,C   2,C   1,H  24)    179.3187         0.025409   
    111. D(H  25,C   2,C   1,C   0)    179.1107         0.025409   
    112. D(C   3,C   2,C   1,C   0)     -1.0170         0.025409   
    113. D(P   6,C   3,C   2,H  25)     -1.4650         0.023699   
    114. D(P   6,C   3,C   2,C   1)    178.6655         0.023699   
    115. D(C   4,C   3,C   2,H  25)   -177.4682         0.023699   
    116. D(C   4,C   3,C   2,C   1)      2.6623         0.023699   
    117. D(H  26,C   4,C   3,C   2)    176.7604         0.024347   
    118. D(C   5,C   4,C   3,C   2)     -2.7285         0.024347   
    119. D(C   5,C   4,C   3,P   6)   -178.5944         0.024347   
    120. D(H  26,C   4,C   3,P   6)      0.8945         0.024347   
    121. D(H  27,C   5,C   4,H  26)      1.2125         0.025230   
    122. D(H  27,C   5,C   4,C   3)   -179.2817         0.025230   
    123. D(H  27,C   5,C   0,H  23)      0.2935         0.026733   
    124. D(H  27,C   5,C   0,C   1)   -178.9782         0.026733   
    125. D(C   4,C   5,C   0,H  23)    179.8510         0.026733   
    126. D(C   4,C   5,C   0,C   1)      0.5793         0.026733   
    127. D(C   0,C   5,C   4,H  26)   -178.3461         0.025230   
    128. D(C   0,C   5,C   4,C   3)      1.1598         0.025230   
    129. D(C  13,P   6,C   3,C   4)    -25.2950         0.003765   
    130. D(C  13,P   6,C   3,C   2)    158.9183         0.003765   
    131. D(C   7,P   6,C   3,C   4)   -130.7582         0.003765   
    132. D(C   7,P   6,C   3,C   2)     53.4550         0.003765   
    133. D(C  12,C   7,P   6,C   3)   -155.3903         0.003670   
    134. D(C   8,C   7,P   6,C  13)    -83.5599         0.003670   
    135. D(C   8,C   7,P   6,C   3)     25.1629         0.003670   
    136. D(C  12,C   7,P   6,C  13)     95.8869         0.003670   
    137. D(H  28,C   8,C   7,C  12)   -179.4953         0.024404   
    138. D(H  28,C   8,C   7,P   6)     -0.0495         0.024404   
    139. D(C   9,C   8,C   7,C  12)      0.2007         0.024404   
    140. D(C   9,C   8,C   7,P   6)    179.6465         0.024404   
    141. D(H  29,C   9,C   8,H  28)     -0.3559         0.025353   
    142. D(H  29,C   9,C   8,C   7)    179.9392         0.025353   
    143. D(C  10,C   9,C   8,H  28)    179.6430         0.025353   
    144. D(C  10,C   9,C   8,C   7)     -0.0619         0.025353   
    145. D(H  30,C  10,C   9,H  29)     -0.0776         0.026655   
    146. D(H  30,C  10,C   9,C   8)    179.9235         0.026655   
    147. D(C  11,C  10,C   9,H  29)    179.9261         0.026655   
    148. D(C  11,C  10,C   9,C   8)     -0.0728         0.026655   
    149. D(H  31,C  11,C  10,H  30)      0.0443         0.026702   
    150. D(H  31,C  11,C  10,C   9)   -179.9594         0.026702   
    151. D(C  12,C  11,C  10,H  30)   -179.9338         0.026702   
    152. D(C  12,C  11,C  10,C   9)      0.0625         0.026702   
    153. D(H  32,C  12,C  11,H  31)      0.1057         0.025435   
    154. D(C   7,C  12,C  11,H  31)   -179.8956         0.025435   
    155. D(C   7,C  12,C  11,C  10)      0.0825         0.025435   
    156. D(H  32,C  12,C   7,C   8)    179.7876         0.023940   
    157. D(H  32,C  12,C   7,P   6)      0.3043         0.023940   
    158. D(H  32,C  12,C  11,C  10)   -179.9162         0.025435   
    159. D(C  11,C  12,C   7,C   8)     -0.2111         0.023940   
    160. D(C  11,C  12,C   7,P   6)   -179.6944         0.023940   
    161. D(C  18,C  13,P   6,C   7)   -126.8596         0.003767   
    162. D(C  18,C  13,P   6,C   3)    124.6607         0.003767   
    163. D(C  14,C  13,P   6,C   7)     52.6106         0.003767   
    164. D(C  14,C  13,P   6,C   3)    -55.8692         0.003767   
    165. D(H  33,C  14,C  13,P   6)      1.3263         0.024771   
    166. D(C  15,C  14,C  13,C  18)     -0.0960         0.024771   
    167. D(C  15,C  14,C  13,P   6)   -179.5660         0.024771   
    168. D(H  33,C  14,C  13,C  18)   -179.2036         0.024771   
    169. D(S  19,C  15,C  14,H  33)     -2.1782         0.025188   
    170. D(S  19,C  15,C  14,C  13)    178.7018         0.025188   
    171. D(C  16,C  15,C  14,H  33)    179.5703         0.025188   
    172. D(C  16,C  15,C  14,C  13)      0.4502         0.025188   
    173. D(H  34,C  16,C  15,S  19)      1.2406         0.026004   
    174. D(H  34,C  16,C  15,C  14)    179.4860         0.026004   
    175. D(C  17,C  16,C  15,S  19)   -178.8348         0.026004   
    176. D(C  17,C  16,C  15,C  14)     -0.5894         0.026004   
    177. D(H  35,C  17,C  16,H  34)      0.1326         0.026702   
    178. D(H  35,C  17,C  16,C  15)   -179.7927         0.026702   
    179. D(C  18,C  17,C  16,H  34)   -179.6960         0.026702   
    180. D(C  18,C  17,C  16,C  15)      0.3787         0.026702   
    181. D(H  36,C  18,C  17,H  35)      0.0322         0.025186   
    182. D(H  36,C  18,C  17,C  16)    179.8613         0.025186   
    183. D(C  13,C  18,C  17,H  35)   -179.8630         0.025186   
    184. D(C  13,C  18,C  17,C  16)     -0.0339         0.025186   
    185. D(H  36,C  18,C  13,C  14)    179.9980         0.023786   
    186. D(H  36,C  18,C  13,P   6)     -0.5029         0.023786   
    187. D(C  17,C  18,C  13,C  14)     -0.1088         0.023786   
    188. D(C  17,C  18,C  13,P   6)    179.3903         0.023786   
    189. D(O  22,S  19,C  15,C  14)    -35.1313         0.004591   
    190. D(O  21,S  19,C  15,C  16)   -101.8518         0.004591   
    191. D(O  21,S  19,C  15,C  14)     79.8685         0.004591   
    192. D(O  20,S  19,C  15,C  16)     31.9226         0.004591   
    193. D(O  20,S  19,C  15,C  14)   -146.3571         0.004591   
    194. D(H  37,O  22,S  19,O  21)    132.1027         0.010092   
    195. D(H  37,O  22,S  19,O  20)      0.1923         0.010092   
    196. D(H  37,O  22,S  19,C  15)   -113.3516         0.010092   
    -----------------------------------------------------------------

Number of atoms                         .... 38
Number of degrees of freedom            .... 196


         *************************************************************
         *                GEOMETRY OPTIMIZATION CYCLE   1            *
         *************************************************************
---------------------------------
CARTESIAN COORDINATES (ANGSTROEM)
---------------------------------
  C     -2.984481   -2.565342    2.341324
  C     -3.582369   -1.376507    1.936627
  C     -3.054390   -0.659794    0.858701
  C     -1.906826   -1.104362    0.176727
  C     -1.343104   -2.324505    0.580796
  C     -1.868955   -3.042494    1.660095
  P     -1.280218   -0.151172   -1.246387
  C     -1.086634    1.554312   -0.613191
  C     -0.883669    1.880072    0.736494
  C     -0.737050    3.209933    1.142857
  C     -0.789658    4.237448    0.205498
  C     -0.987305    3.936425   -1.138707
  C     -1.133559    2.606629   -1.543983
  C      0.466984   -0.646533   -1.413530
  C      1.404680   -0.542845   -0.377422
  C      2.731022   -0.935995   -0.586628
  C      3.152012   -1.427583   -1.822409
  C      2.228139   -1.537513   -2.857266
  C      0.899221   -1.150152   -2.653621
  S      3.901406   -0.761709    0.728688
  O      5.187603   -0.447480    0.143713
  O      3.714731   -1.875896    1.628993
  O      3.459333    0.587065    1.496647
  H     -3.393329   -3.125406    3.178038
  H     -4.463515   -1.006042    2.453939
  H     -3.554063    0.259581    0.557010
  H     -0.487529   -2.748297    0.060375
  H     -1.407409   -3.979667    1.961425
  H     -0.830714    1.105202    1.497910
  H     -0.581663    3.439539    2.194018
  H     -0.676860    5.270871    0.522265
  H     -1.028560    4.734839   -1.875053
  H     -1.285533    2.401020   -2.602101
  H      1.109657   -0.170828    0.600766
  H      4.186103   -1.724351   -1.983154
  H      2.537687   -1.921836   -3.826451
  H      0.198812   -1.245294   -3.482540
  H      4.170004    1.248670    1.359537

----------------------------
CARTESIAN COORDINATES (A.U.)
----------------------------
  NO LB      ZA    FRAG     MASS         X           Y           Z
   0 C     6.0000    0    12.011   -5.639852   -4.847794    4.424461
   1 C     6.0000    0    12.011   -6.769696   -2.601221    3.659695
   2 C     6.0000    0    12.011   -5.771961   -1.246830    1.622710
   3 C     6.0000    0    12.011   -3.603379   -2.086942    0.333966
   4 C     6.0000    0    12.011   -2.538099   -4.392678    1.097545
   5 C     6.0000    0    12.011   -3.531813   -5.749480    3.137125
   6 P    15.0000    0    30.974   -2.419261   -0.285674   -2.355330
   7 C     6.0000    0    12.011   -2.053441    2.937224   -1.158763
   8 C     6.0000    0    12.011   -1.669892    3.552821    1.391772
   9 C     6.0000    0    12.011   -1.392823    6.065894    2.159687
  10 C     6.0000    0    12.011   -1.492237    8.007616    0.388335
  11 C     6.0000    0    12.011   -1.865736    7.438765   -2.151844
  12 C     6.0000    0    12.011   -2.142116    4.925815   -2.917705
  13 C     6.0000    0    12.011    0.882472   -1.221770   -2.671185
  14 C     6.0000    0    12.011    2.654461   -1.025828   -0.713224
  15 C     6.0000    0    12.011    5.160884   -1.768774   -1.108566
  16 C     6.0000    0    12.011    5.956439   -2.697741   -3.443854
  17 C     6.0000    0    12.011    4.210572   -2.905478   -5.399450
  18 C     6.0000    0    12.011    1.699281   -2.173472   -5.014617
  19 S    16.0000    0    32.060    7.372589   -1.439421    1.377021
  20 O     8.0000    0    15.999    9.803149   -0.845615    0.271578
  21 O     8.0000    0    15.999    7.019824   -3.544930    3.078351
  22 O     8.0000    0    15.999    6.537192    1.109392    2.828253
  23 H     1.0000    0     1.008   -6.412462   -5.906161    6.005621
  24 H     1.0000    0     1.008   -8.434821   -1.901144    4.637273
  25 H     1.0000    0     1.008   -6.716206    0.490537    1.052596
  26 H     1.0000    0     1.008   -0.921296   -5.193529    0.114092
  27 H     1.0000    0     1.008   -2.659618   -7.520481    3.706556
  28 H     1.0000    0     1.008   -1.569822    2.088529    2.830640
  29 H     1.0000    0     1.008   -1.099184    6.499787    4.146093
  30 H     1.0000    0     1.008   -1.279080    9.960503    0.986938
  31 H     1.0000    0     1.008   -1.943697    8.947549   -3.543337
  32 H     1.0000    0     1.008   -2.429305    4.537270   -4.917258
  33 H     1.0000    0     1.008    2.096948   -0.322818    1.135283
  34 H     1.0000    0     1.008    7.910588   -3.258551   -3.747618
  35 H     1.0000    0     1.008    4.795533   -3.631744   -7.230944
  36 H     1.0000    0     1.008    0.375700   -2.353265   -6.581047
  37 H     1.0000    0     1.008    7.880166    2.359644    2.569153

--------------------------------
INTERNAL COORDINATES (ANGSTROEM)
--------------------------------
 C      0   0   0     0.000000000000     0.00000000     0.00000000
 C      1   0   0     1.390891217737     0.00000000     0.00000000
 C      2   1   0     1.397985625923   120.01332654     0.00000000
 C      3   2   1     1.406994092879   121.31730303   358.98302571
 C      4   3   2     1.403496772527   117.56408849     2.66227954
 C      1   2   3     1.391454360811   119.68744390   359.35199332
 P      4   3   2     1.823859155406   119.55657041   178.66550347
 C      7   4   3     1.829504745478   104.68424348    53.45501323
 C      8   7   4     1.403197765124   124.37634619    25.16292017
 C      9   8   7     1.398269751604   121.03087594   179.64649818
 C     10   9   8     1.391832091802   120.16169017   359.93805085
 C     11  10   9     1.391605642832   119.74939717   359.92722338
 C     12  11  10     1.397854166324   120.04589082     0.06252780
 C      7   4   3     1.823741794107   104.99295194   158.91826488
 C     14   7   4     1.401265420049   123.58884081   304.13079357
 C     15  14   7     1.399112995401   120.19985186   180.43397692
 C     16  15  14     1.395007534677   121.16932744     0.45022864
 C     17  16  15     1.391601572102   119.09443716   359.41064279
 C     18  17  16     1.399122182324   120.03109972     0.37865732
 S     16  15  14     1.769245742430   119.22655786   178.70176798
 O     20  16  15     1.447493812724   107.98351457   213.64286820
 O     20  16  15     1.444579288104   107.56978598    79.86850308
 O     20  16  15     1.613809426818   104.76743253   324.86873019
 H      1   2   3     1.086700827733   120.18632115   180.08074452
 H      2   1   3     1.086864432616   120.08926170   179.66371483
 H      3   2   1     1.089009162971   118.23807262   179.11074387
 H      5   4   3     1.087403447268   121.13468967   176.76039486
 H      6   1   2     1.087252367643   120.01464127   181.02177592
 H      9   8   7     1.087649793813   120.99795505   359.95052231
 H     10   9   8     1.087107852481   119.79324437   179.93916894
 H     11  10   9     1.086751037737   120.11867863   179.92350530
 H     12  11  10     1.086909528037   120.05855100   180.04062313
 H     13  12  11     1.088570098561   118.43147748   180.08378381
 H     15  14   7     1.087330208429   120.59324016     1.32632882
 H     17  16  15     1.087774975411   120.92639693   179.48604962
 H     18  17  16     1.087586179049   120.10891251   180.20727768
 H     19  18  17     1.089372055822   118.40842042   179.86127641
 H     23  20  16     0.980598591864   107.38711808   246.64842661

---------------------------
INTERNAL COORDINATES (A.U.)
---------------------------
 C      0   0   0     0.000000000000     0.00000000     0.00000000
 C      1   0   0     2.628403483599     0.00000000     0.00000000
 C      2   1   0     2.641809972152   120.01332654     0.00000000
 C      3   2   1     2.658833507586   121.31730303   358.98302571
 C      4   3   2     2.652224529919   117.56408849     2.66227954
 C      1   2   3     2.629467669784   119.68744390   359.35199332
 P      4   3   2     3.446594310563   119.55657041   178.66550347
 C      7   4   3     3.457262929663   104.68424348    53.45501323
 C      8   7   4     2.651659487815   124.37634619    25.16292017
 C      9   8   7     2.642346891878   121.03087594   179.64649818
 C     10   9   8     2.630181477909   120.16169017   359.93805085
 C     11  10   9     2.629753551373   119.74939717   359.92722338
 C     12  11  10     2.641561549512   120.04589082     0.06252780
 C      7   4   3     3.446372529849   104.99295194   158.91826488
 C     14   7   4     2.648007884826   123.58884081   304.13079357
 C     15  14   7     2.643940391718   120.19985186   180.43397692
 C     16  15  14     2.636182195296   121.16932744     0.45022864
 C     17  16  15     2.629745858808   119.09443716   359.41064279
 C     18  17  16     2.643957752486   120.03109972     0.37865732
 S     16  15  14     3.343389916800   119.22655786   178.70176798
 O     20  16  15     2.735366886594   107.98351457   213.64286820
 O     20  16  15     2.729859233251   107.56978598    79.86850308
 O     20  16  15     3.049657849026   104.76743253   324.86873019
 H      1   2   3     2.053566953921   120.18632115   180.08074452
 H      2   1   3     2.053876122343   120.08926170   179.66371483
 H      3   2   1     2.057929075346   118.23807262   179.11074387
 H      5   4   3     2.054894712418   121.13468967   176.76039486
 H      6   1   2     2.054609213302   120.01464127   181.02177592
 H      9   8   7     2.055360239922   120.99795505   359.95052231
 H     10   9   8     2.054336119224   119.79324437   179.93916894
 H     11  10   9     2.053661837077   120.11867863   179.92350530
 H     12  11  10     2.053961340339   120.05855100   180.04062313
 H     13  12  11     2.057099363856   118.43147748   180.08378381
 H     15  14   7     2.054756311070   120.59324016     1.32632882
 H     17  16  15     2.055596798859   120.92639693   179.48604962
 H     18  17  16     2.055240025440   120.10891251   180.20727768
 H     19  18  17     2.058614843450   118.40842042   179.86127641
 H     23  20  16     1.853062785932   107.38711808   246.64842661

---------------------
BASIS SET INFORMATION
---------------------
There are 5 groups of distinct atoms

 Group   1 Type C   : 7s4p1d contracted to 3s2p1d pattern {511/31/1}
 Group   2 Type P   : 10s7p1d contracted to 4s3p1d pattern {5311/511/1}
 Group   3 Type S   : 10s7p1d contracted to 4s3p1d pattern {5311/511/1}
 Group   4 Type O   : 7s4p1d contracted to 3s2p1d pattern {511/31/1}
 Group   5 Type H   : 4s1p contracted to 2s1p pattern {31/1}

Atom   0C    basis set group =>   1
Atom   1C    basis set group =>   1
Atom   2C    basis set group =>   1
Atom   3C    basis set group =>   1
Atom   4C    basis set group =>   1
Atom   5C    basis set group =>   1
Atom   6P    basis set group =>   2
Atom   7C    basis set group =>   1
Atom   8C    basis set group =>   1
Atom   9C    basis set group =>   1
Atom  10C    basis set group =>   1
Atom  11C    basis set group =>   1
Atom  12C    basis set group =>   1
Atom  13C    basis set group =>   1
Atom  14C    basis set group =>   1
Atom  15C    basis set group =>   1
Atom  16C    basis set group =>   1
Atom  17C    basis set group =>   1
Atom  18C    basis set group =>   1
Atom  19S    basis set group =>   3
Atom  20O    basis set group =>   4
Atom  21O    basis set group =>   4
Atom  22O    basis set group =>   4
Atom  23H    basis set group =>   5
Atom  24H    basis set group =>   5
Atom  25H    basis set group =>   5
Atom  26H    basis set group =>   5
Atom  27H    basis set group =>   5
Atom  28H    basis set group =>   5
Atom  29H    basis set group =>   5
Atom  30H    basis set group =>   5
Atom  31H    basis set group =>   5
Atom  32H    basis set group =>   5
Atom  33H    basis set group =>   5
Atom  34H    basis set group =>   5
Atom  35H    basis set group =>   5
Atom  36H    basis set group =>   5
Atom  37H    basis set group =>   5
---------------------------------
AUXILIARY/J BASIS SET INFORMATION
---------------------------------
There are 5 groups of distinct atoms

 Group   1 Type C   : 12s5p4d2f1g contracted to 6s4p3d1f1g pattern {711111/2111/211/2/1}
 Group   2 Type P   : 14s5p5d2f1g contracted to 8s4p3d1f1g pattern {71111111/2111/311/2/1}
 Group   3 Type S   : 14s5p5d2f1g contracted to 8s4p3d1f1g pattern {71111111/2111/311/2/1}
 Group   4 Type O   : 12s5p4d2f1g contracted to 6s4p3d1f1g pattern {711111/2111/211/2/1}
 Group   5 Type H   : 5s2p1d contracted to 3s1p1d pattern {311/2/1}

Atom   0C    basis set group =>   1
Atom   1C    basis set group =>   1
Atom   2C    basis set group =>   1
Atom   3C    basis set group =>   1
Atom   4C    basis set group =>   1
Atom   5C    basis set group =>   1
Atom   6P    basis set group =>   2
Atom   7C    basis set group =>   1
Atom   8C    basis set group =>   1
Atom   9C    basis set group =>   1
Atom  10C    basis set group =>   1
Atom  11C    basis set group =>   1
Atom  12C    basis set group =>   1
Atom  13C    basis set group =>   1
Atom  14C    basis set group =>   1
Atom  15C    basis set group =>   1
Atom  16C    basis set group =>   1
Atom  17C    basis set group =>   1
Atom  18C    basis set group =>   1
Atom  19S    basis set group =>   3
Atom  20O    basis set group =>   4
Atom  21O    basis set group =>   4
Atom  22O    basis set group =>   4
Atom  23H    basis set group =>   5
Atom  24H    basis set group =>   5
Atom  25H    basis set group =>   5
Atom  26H    basis set group =>   5
Atom  27H    basis set group =>   5
Atom  28H    basis set group =>   5
Atom  29H    basis set group =>   5
Atom  30H    basis set group =>   5
Atom  31H    basis set group =>   5
Atom  32H    basis set group =>   5
Atom  33H    basis set group =>   5
Atom  34H    basis set group =>   5
Atom  35H    basis set group =>   5
Atom  36H    basis set group =>   5
Atom  37H    basis set group =>   5


           ************************************************************
           *        Program running with 6 parallel MPI-processes     *
           *              working on a common directory               *
           ************************************************************
------------------------------------------------------------------------------
                             ORCA STARTUP CALCULATIONS
                           -- RI-GTO INTEGRALS CHOSEN --
------------------------------------------------------------------------------
------------------------------------------------------------------------------
                   ___                                                        
                  /   \      - P O W E R E D   B Y -                         
                 /     \                                                     
                 |  |  |   _    _      __       _____    __    __             
                 |  |  |  | |  | |    /  \     |  _  \  |  |  /  |          
                  \  \/   | |  | |   /    \    | | | |  |  | /  /          
                 / \  \   | |__| |  /  /\  \   | |_| |  |  |/  /          
                |  |  |   |  __  | /  /__\  \  |    /   |      \           
                |  |  |   | |  | | |   __   |  |    \   |  |\   \          
                \     /   | |  | | |  |  |  |  | |\  \  |  | \   \       
                 \___/    |_|  |_| |__|  |__|  |_| \__\ |__|  \__/        
                                                                              
                      - O R C A' S   B I G   F R I E N D -                    
                                      &                                       
                       - I N T E G R A L  F E E D E R -                       
                                                                              
 v1 FN, 2020, v2 2021, v3 2022-2024                                           
------------------------------------------------------------------------------


----------------------
SHARK INTEGRAL PACKAGE
----------------------

Number of atoms                             ...     38
Number of basis functions                   ...    405
Number of shells                            ...    187
Maximum angular momentum                    ...      2
Integral batch strategy                     ... SHARK/LIBINT Hybrid
RI-J (if used) integral strategy            ... SPLIT-RIJ (Revised 2003 algorithm where possible)
Printlevel                                  ...      1
Contraction scheme used                     ... SEGMENTED contraction
Prescreening option                         ... SCHWARTZ
   Thresh                                   ... 2.500e-11
   Tcut                                     ... 2.500e-12
   Tpresel                                  ... 2.500e-12 
Coulomb Range Separation                    ... NOT USED
Exchange Range Separation                   ... NOT USED
Multipole approximations                    ... NOT USED
Finite Nucleus Model                        ... NOT USED
CABS basis                                  ... NOT available
Auxiliary Coulomb fitting basis             ... AVAILABLE
   # of basis functions in Aux-J            ...   1296
   # of shells in Aux-J                     ...    424
   Maximum angular momentum in Aux-J        ...      4
Auxiliary J/K fitting basis                 ... NOT available
Auxiliary Correlation fitting basis         ... NOT available
Auxiliary 'external' fitting basis          ... NOT available

Checking pre-screening integrals            ... done (  0.0 sec) Dimension = 187
Check shell pair data                       ... done (  0.0 sec)
Shell pair information
Shell pair cut-off parameter TPreSel        ...   2.5e-12
Total number of shell pairs                 ...     17578
Shell pairs after pre-screening             ...     12901
Total number of primitive shell pairs       ...     66430
Primitive shell pairs kept                  ...     30301
          la=0 lb=0:   3860 shell pairs
          la=1 lb=0:   4812 shell pairs
          la=1 lb=1:   1548 shell pairs
          la=2 lb=0:   1567 shell pairs
          la=2 lb=1:    967 shell pairs
          la=2 lb=2:    147 shell pairs

Calculating one electron integrals          ... done (  0.0 sec)
Calculating RI/J V-Matrix + Cholesky decomp.... done (  0.1 sec)
Calculating Nuclear repulsion               ... done (  0.0 sec) ENN=   2153.850422091554 Eh

Diagonalization of the overlap matrix:
Smallest eigenvalue                        ... 2.660e-04
Time for diagonalization                   ...    0.024 sec
Threshold for overlap eigenvalues          ... 1.000e-07
Number of eigenvalues below threshold      ... 0
Time for construction of square roots      ...    0.016 sec
Total time needed                          ...    0.041 sec

-------------------
DFT GRID GENERATION
-------------------

General Integration Accuracy     IntAcc      ... 4.388
Radial Grid Type                 RadialGrid  ... OptM3 with GC (2021)
Angular Grid (max. ang.)         AngularGrid ... 4 (Lebedev-302)
Angular grid pruning method      GridPruning ... 4 (adaptive)
Weight generation scheme         WeightScheme... mBecke (2022)
Basis function cutoff            BFCut       ... 1.0000e-11
Integration weight cutoff        WCut        ... 1.0000e-14
Partially contracted basis set               ... off
Rotationally invariant grid construction     ... off
Angular grids for H and He will be reduced by one unit

Total number of grid points                  ...   187957
Total number of batches                      ...     2958
Average number of points per batch           ...       63
Average number of grid points per atom       ...     4946
Initializing property integral containers    ... done (  0.0 sec)

SHARK setup successfully completed in   1.4 seconds

Maximum memory used throughout the entire STARTUP-calculation: 51.8 MB


           ************************************************************
           *        Program running with 6 parallel MPI-processes     *
           *              working on a common directory               *
           ************************************************************
-------------------------------------------------------------------------------
                                 ORCA GUESS
                   Start orbitals & Density for SCF / CASSCF
-------------------------------------------------------------------------------

------------
SCF SETTINGS
------------
Hamiltonian:
 Density Functional     Method          .... DFT(GTOs)
 Exchange Functional    Exchange        .... B88
   X-Alpha parameter    XAlpha          ....  0.666667
   Becke's b parameter  XBeta           ....  0.004200
 Correlation Functional Correlation     .... P86
 LDA part of GGA corr.  LDAOpt          .... PW91-LDA
 Gradients option       PostSCFGGA      .... off
   NL short-range parameter             ....  4.400000
 RI-approximation to the Coulomb term is turned on
   Number of AuxJ basis functions       .... 1296


General Settings:
 Integral files         IntName         .... data/geom_opt_P_BP86/195868/195868
 Hartree-Fock type      HFTyp           .... RHF
 Total Charge           Charge          ....    0
 Multiplicity           Mult            ....    1
 Number of Electrons    NEL             ....  178
 Basis Dimension        Dim             ....  405
 Nuclear Repulsion      ENuc            ....   2153.8504220916 Eh

Convergence Acceleration:
 AO-DIIS                CNVDIIS         .... on
   Start iteration      DIISMaxIt       ....    12
   Startup error        DIISStart       ....  0.200000
   # of expansion vecs  DIISMaxEq       ....     5
   Bias factor          DIISBfac        ....   1.050
   Max. coefficient     DIISMaxC        ....  10.000
 MO-DIIS                CNVKDIIS        .... off
 Trust-Rad. Augm. Hess. CNVTRAH         .... auto
   Auto Start mean grad. ratio tolernc. ....  1.125000
   Auto Start start iteration           ....    50
   Auto Start num. interpolation iter.  ....    10
   Max. Number of Micro iterations      ....    24
   Max. Number of Macro iterations      .... Maxiter - #DIIS iter
   Number of Davidson start vectors     ....     2
   Converg. threshold    (grad. norm)   ....   1.000e-05
   Grad. Scal. Fac. for Micro threshold ....   0.100
   Minimum threshold for Micro iter.    ....   1.000e-02
   NR start threshold (gradient norm)   ....   1.000e-04
   Initial trust radius                 ....   0.400
   Minimum AH scaling param. (alpha)    ....   1.000
   Maximum AH scaling param. (alpha)    .... 1000.000
   Quad. conv. algorithm                .... NR
   White noise on init. David. guess    .... on
   Maximum white noise                  ....   0.010
   Pseudo random numbers                .... off
   Inactive MOs                         .... canonical
   Orbital update algorithm             .... Taylor
   Preconditioner                       .... Diag
   Full preconditioner red. dimension   ....   250
 SOSCF                  CNVSOSCF        .... on
   Start iteration      SOSCFMaxIt      ....   150
   Startup grad/error   SOSCFStart      ....  0.003300
   Hessian update       SOSCFHessUp     .... L-BFGS
 Level Shifting         CNVShift        .... on
   Level shift para.    LevelShift      ....    0.2500
   Turn off err/grad.   ShiftErr        ....    0.0010
 Zerner damping         CNVZerner       .... off
 Static damping         CNVDamp         .... on
   Fraction old density DampFac         ....    0.7000
   Max. Damping (<1)    DampMax         ....    0.9800
   Min. Damping (>=0)   DampMin         ....    0.0000
   Turn off err/grad.   DampErr         ....    0.1000

SCF Procedure:
 Maximum # iterations   MaxIter         ....   125
 SCF integral mode      SCFMode         .... Direct
   Integral package                     .... SHARK and LIBINT hybrid scheme
 Reset frequency        DirectResetFreq ....    20
 Integral Threshold     Thresh          ....  2.500e-11 Eh
 Primitive CutOff       TCut            ....  2.500e-12 Eh

Convergence Tolerance:
 Convergence Check Mode ConvCheckMode   .... Total+1el-Energy
 Convergence forced     ConvForced      .... 0
 Energy Change          TolE            ....  1.000e-08 Eh
 1-El. energy change                    ....  1.000e-05 Eh
 Orbital Gradient       TolG            ....  1.000e-05
 Orbital Rotation angle TolX            ....  1.000e-05
 DIIS Error             TolErr          ....  5.000e-07

------------------------------
INITIAL GUESS: MODEL POTENTIAL
------------------------------
Loading Hartree-Fock densities                     ... done
Calculating cut-offs                               ... done
Initializing the effective Hamiltonian             ... done
Setting up the integral package (SHARK)            ... done
Starting the Coulomb interaction                   ... done (   0.2 sec)
Making the grid                                    ... done (   0.3 sec)
Mapping shells                                     ... done
Starting the XC term evaluation                    ... done (   0.2 sec)
  promolecular density results
     # of electrons  =    177.991555197
     EX              =   -169.365574241
     EC              =     -6.769463976
     EX+EC           =   -176.135038217
Transforming the Hamiltonian                       ... done (   0.0 sec)
Diagonalizing the Hamiltonian                      ... done (   0.0 sec)
Back transforming the eigenvectors                 ... done (   0.0 sec)
Now organizing SCF variables                       ... done
                      ------------------
                      INITIAL GUESS DONE (   0.7 sec)
                      ------------------
             **** ENERGY FILE WAS UPDATED (data/geom_opt_P_BP86/195868/195868.en.tmp) ****
Finished Guess after   0.8 sec
Maximum memory used throughout the entire GUESS-calculation: 29.8 MB


           ************************************************************
           *        Program running with 6 parallel MPI-processes     *
           *              working on a common directory               *
           ************************************************************

-------------------------------------------------------------------------------------------
                                      ORCA LEAN-SCF
                              memory conserving SCF solver
-------------------------------------------------------------------------------------------

----------------------------------------D-I-I-S--------------------------------------------
Iteration    Energy (Eh)           Delta-E    RMSDP     MaxDP     DIISErr   Damp  Time(sec)
-------------------------------------------------------------------------------------------
               ***  Starting incremental Fock matrix formation  ***
    1    -1658.6964358929958507     0.00e+00  2.76e-03  2.47e-01  2.67e-01  0.700   1.1
    2    -1658.9873886579525788    -2.91e-01  1.62e-03  9.69e-02  8.05e-02  0.700   1.1
                               ***Turning on AO-DIIS***
    3    -1659.0741329276365832    -8.67e-02  6.35e-04  3.70e-02  2.57e-02  0.700   1.0
    4    -1659.1342006475683775    -6.01e-02  1.18e-03  8.83e-02  1.25e-02  0.000   1.0
    5    -1659.2730092255787895    -1.39e-01  2.79e-04  1.74e-02  6.77e-03  0.000   1.0
    6    -1659.2741149214562029    -1.11e-03  9.93e-05  4.98e-03  3.67e-03  0.000   1.0
                              *** Initializing SOSCF ***
---------------------------------------S-O-S-C-F--------------------------------------
Iteration    Energy (Eh)           Delta-E    RMSDP     MaxDP     MaxGrad    Time(sec)
--------------------------------------------------------------------------------------
    7    -1659.2742010195879629    -8.61e-05  3.91e-05  2.18e-03  2.12e-03     1.0
               *** Restarting incremental Fock matrix formation ***
    8    -1659.2742165122663209    -1.55e-05  3.48e-05  1.99e-03  1.39e-04     1.0
    9    -1659.2742133824108350     3.13e-06  1.61e-05  6.62e-04  2.67e-04     0.9
   10    -1659.2742180920186001    -4.71e-06  1.29e-05  9.32e-04  6.00e-05     0.9
   11    -1659.2742175252369634     5.67e-07  7.13e-06  4.79e-04  1.12e-04     0.8
   12    -1659.2742183927903170    -8.68e-07  3.85e-06  2.61e-04  1.86e-05     0.9
   13    -1659.2742183176701474     7.51e-08  2.43e-06  1.49e-04  4.19e-05     0.9
   14    -1659.2742184298035681    -1.12e-07  1.43e-06  9.07e-05  9.57e-06     0.8
   15    -1659.2742184197968527     1.00e-08  9.04e-07  6.14e-05  1.89e-05     0.8
   16    -1659.2742184298676875    -1.01e-08  5.66e-07  2.92e-05  2.26e-06     0.9
                  *** Gradient check signals convergence ***

               *****************************************************
               *                     SUCCESS                       *
               *           SCF CONVERGED AFTER  16 CYCLES          *
               *****************************************************

             **** ENERGY FILE WAS UPDATED (data/geom_opt_P_BP86/195868/195868.en.tmp) ****

----------------
TOTAL SCF ENERGY
----------------

Total Energy       :      -1659.27421842986769 Eh          -45151.14692 eV

Components:
Nuclear Repulsion  :       2153.85042209155381 Eh           58609.24962 eV
Electronic Energy  :      -3813.12464052142150 Eh         -103760.39655 eV
One Electron Energy:      -6553.54807639374576 Eh         -178331.10934 eV
Two Electron Energy:       2740.42343587232426 Eh           74570.71279 eV

Virial components:
Potential Energy   :      -3307.00889617242274 Eh          -89988.28698 eV
Kinetic Energy     :       1647.73467774255505 Eh           44837.14006 eV
Virial Ratio       :          2.00700327597834

DFT components:
N(Alpha)           :       88.999879816711 electrons
N(Beta)            :       88.999879816711 electrons
N(Total)           :      177.999759633421 electrons
E(X)               :     -171.298987521137 Eh       
E(C)               :       -6.777585655179 Eh       
E(XC)              :     -178.076573176316 Eh       

---------------
SCF CONVERGENCE
---------------

  Last Energy change         ...    1.0071e-08  Tolerance :   1.0000e-08
  Last MAX-Density change    ...    2.9239e-05  Tolerance :   1.0000e-07
  Last RMS-Density change    ...    5.6638e-07  Tolerance :   5.0000e-09
  Last DIIS Error            ...    2.1206e-03  Tolerance :   5.0000e-07
  Last Orbital Gradient      ...    2.2624e-06  Tolerance :   1.0000e-05
  Last Orbital Rotation      ...    8.6011e-06  Tolerance :   1.0000e-05


----------------
ORBITAL ENERGIES
----------------

  NO   OCC          E(Eh)            E(eV) 
   0   2.0000     -88.320777     -2403.3305 
   1   2.0000     -76.351754     -2077.6369 
   2   2.0000     -18.834681      -512.5177 
   3   2.0000     -18.776347      -510.9304 
   4   2.0000     -18.776059      -510.9225 
   5   2.0000      -9.959680      -271.0167 
   6   2.0000      -9.947860      -270.6950 
   7   2.0000      -9.947746      -270.6919 
   8   2.0000      -9.943467      -270.5755 
   9   2.0000      -9.942363      -270.5454 
  10   2.0000      -9.940981      -270.5078 
  11   2.0000      -9.932101      -270.2662 
  12   2.0000      -9.930791      -270.2306 
  13   2.0000      -9.928031      -270.1555 
  14   2.0000      -9.927318      -270.1361 
  15   2.0000      -9.925821      -270.0953 
  16   2.0000      -9.925493      -270.0864 
  17   2.0000      -9.925341      -270.0823 
  18   2.0000      -9.924322      -270.0545 
  19   2.0000      -9.922997      -270.0185 
  20   2.0000      -9.921453      -269.9765 
  21   2.0000      -9.920403      -269.9479 
  22   2.0000      -9.918897      -269.9069 
  23   2.0000      -7.886971      -214.6154 
  24   2.0000      -6.321277      -172.0107 
  25   2.0000      -5.915455      -160.9677 
  26   2.0000      -5.912042      -160.8748 
  27   2.0000      -5.910915      -160.8442 
  28   2.0000      -4.542812      -123.6162 
  29   2.0000      -4.542477      -123.6071 
  30   2.0000      -4.538896      -123.5096 
  31   2.0000      -1.062602       -28.9149 
  32   2.0000      -0.949006       -25.8238 
  33   2.0000      -0.924140       -25.1471 
  34   2.0000      -0.807050       -21.9610 
  35   2.0000      -0.785889       -21.3851 
  36   2.0000      -0.779261       -21.2048 
  37   2.0000      -0.721722       -19.6391 
  38   2.0000      -0.710227       -19.3263 
  39   2.0000      -0.688407       -18.7325 
  40   2.0000      -0.680263       -18.5109 
  41   2.0000      -0.676765       -18.4157 
  42   2.0000      -0.674141       -18.3443 
  43   2.0000      -0.627396       -17.0723 
  44   2.0000      -0.602418       -16.3926 
  45   2.0000      -0.573940       -15.6177 
  46   2.0000      -0.556206       -15.1351 
  47   2.0000      -0.552131       -15.0242 
  48   2.0000      -0.547031       -14.8855 
  49   2.0000      -0.542705       -14.7677 
  50   2.0000      -0.522842       -14.2272 
  51   2.0000      -0.498359       -13.5610 
  52   2.0000      -0.475095       -12.9280 
  53   2.0000      -0.474659       -12.9161 
  54   2.0000      -0.456023       -12.4090 
  55   2.0000      -0.447559       -12.1787 
  56   2.0000      -0.437699       -11.9104 
  57   2.0000      -0.428214       -11.6523 
  58   2.0000      -0.417424       -11.3587 
  59   2.0000      -0.415194       -11.2980 
  60   2.0000      -0.409370       -11.1395 
  61   2.0000      -0.407598       -11.0913 
  62   2.0000      -0.403613       -10.9829 
  63   2.0000      -0.388737       -10.5781 
  64   2.0000      -0.383836       -10.4447 
  65   2.0000      -0.382956       -10.4208 
  66   2.0000      -0.381467       -10.3803 
  67   2.0000      -0.373923       -10.1750 
  68   2.0000      -0.360648        -9.8137 
  69   2.0000      -0.350475        -9.5369 
  70   2.0000      -0.343500        -9.3471 
  71   2.0000      -0.339197        -9.2300 
  72   2.0000      -0.336107        -9.1459 
  73   2.0000      -0.326344        -8.8803 
  74   2.0000      -0.313822        -8.5395 
  75   2.0000      -0.312058        -8.4915 
  76   2.0000      -0.307022        -8.3545 
  77   2.0000      -0.302918        -8.2428 
  78   2.0000      -0.299786        -8.1576 
  79   2.0000      -0.289886        -7.8882 
  80   2.0000      -0.279341        -7.6013 
  81   2.0000      -0.266768        -7.2591 
  82   2.0000      -0.261451        -7.1144 
  83   2.0000      -0.255810        -6.9609 
  84   2.0000      -0.248813        -6.7706 
  85   2.0000      -0.243003        -6.6124 
  86   2.0000      -0.240144        -6.5346 
  87   2.0000      -0.234642        -6.3849 
  88   2.0000      -0.196717        -5.3529 
  89   0.0000      -0.082745        -2.2516 
  90   0.0000      -0.078182        -2.1274 
  91   0.0000      -0.059554        -1.6206 
  92   0.0000      -0.054936        -1.4949 
  93   0.0000      -0.050469        -1.3733 
  94   0.0000      -0.041866        -1.1392 
  95   0.0000      -0.002584        -0.0703 
  96   0.0000       0.019467         0.5297 
  97   0.0000       0.028805         0.7838 
  98   0.0000       0.036279         0.9872 
  99   0.0000       0.041003         1.1158 
*Only the first 10 virtual orbitals were printed.

                    ********************************
                    * MULLIKEN POPULATION ANALYSIS *
                    ********************************

-----------------------
MULLIKEN ATOMIC CHARGES
-----------------------
   0 C :    0.006973
   1 C :    0.009292
   2 C :   -0.013036
   3 C :   -0.105355
   4 C :   -0.014491
   5 C :    0.013923
   6 P :    0.291037
   7 C :   -0.115990
   8 C :   -0.008940
   9 C :    0.013222
  10 C :    0.011106
  11 C :    0.009692
  12 C :    0.015582
  13 C :   -0.128249
  14 C :    0.053986
  15 C :   -0.079302
  16 C :    0.025587
  17 C :   -0.000425
  18 C :    0.030137
  19 S :    0.835461
  20 O :   -0.417018
  21 O :   -0.376412
  22 O :   -0.307916
  23 H :   -0.002861
  24 H :   -0.002442
  25 H :   -0.001743
  26 H :    0.004050
  27 H :   -0.000063
  28 H :    0.019069
  29 H :   -0.002337
  30 H :   -0.000949
  31 H :   -0.000784
  32 H :   -0.005797
  33 H :    0.002590
  34 H :    0.018055
  35 H :    0.011671
  36 H :    0.003691
  37 H :    0.208986
Sum of atomic charges:   -0.0000000

--------------------------------
MULLIKEN REDUCED ORBITAL CHARGES
--------------------------------
  0 C s       :     3.168401  s :     3.168401
      pz      :     0.902379  p :     2.791515
      px      :     0.955419
      py      :     0.933717
      dz2     :     0.005203  d :     0.033111
      dxz     :     0.005773
      dyz     :     0.006990
      dx2y2   :     0.007516
      dxy     :     0.007629

  1 C s       :     3.168059  s :     3.168059
      pz      :     0.943247  p :     2.789594
      px      :     0.889521
      py      :     0.956826
      dz2     :     0.006103  d :     0.033056
      dxz     :     0.005936
      dyz     :     0.007362
      dx2y2   :     0.006919
      dxy     :     0.006737

  2 C s       :     3.224728  s :     3.224728
      pz      :     0.936851  p :     2.755862
      px      :     0.939498
      py      :     0.879513
      dz2     :     0.006935  d :     0.032447
      dxz     :     0.006775
      dyz     :     0.005634
      dx2y2   :     0.006169
      dxy     :     0.006934

  3 C s       :     3.048173  s :     3.048173
      pz      :     0.980478  p :     3.022473
      px      :     1.024171
      py      :     1.017823
      dz2     :     0.006490  d :     0.034709
      dxz     :     0.005867
      dyz     :     0.006832
      dx2y2   :     0.007761
      dxy     :     0.007759

  4 C s       :     3.228426  s :     3.228426
      pz      :     0.913493  p :     2.753519
      px      :     0.901942
      py      :     0.938084
      dz2     :     0.005879  d :     0.032546
      dxz     :     0.005666
      dyz     :     0.007487
      dx2y2   :     0.006598
      dxy     :     0.006916

  5 C s       :     3.168205  s :     3.168205
      pz      :     0.963565  p :     2.784908
      px      :     0.942220
      py      :     0.879123
      dz2     :     0.007240  d :     0.032965
      dxz     :     0.006724
      dyz     :     0.005937
      dx2y2   :     0.006330
      dxy     :     0.006734

  6 P s       :     5.680490  s :     5.680490
      pz      :     3.173009  p :     8.854314
      px      :     2.917551
      py      :     2.763754
      dz2     :     0.032636  d :     0.174159
      dxz     :     0.018515
      dyz     :     0.038742
      dx2y2   :     0.047559
      dxy     :     0.036707

  7 C s       :     3.063749  s :     3.063749
      pz      :     1.012665  p :     3.017306
      px      :     1.015744
      py      :     0.988896
      dz2     :     0.009187  d :     0.034934
      dxz     :     0.006051
      dyz     :     0.011342
      dx2y2   :     0.004447
      dxy     :     0.003908

  8 C s       :     3.220846  s :     3.220846
      pz      :     0.929713  p :     2.755327
      px      :     0.962878
      py      :     0.862737
      dz2     :     0.007675  d :     0.032766
      dxz     :     0.004236
      dyz     :     0.012552
      dx2y2   :     0.004172
      dxy     :     0.004132

  9 C s       :     3.170957  s :     3.170957
      pz      :     0.841646  p :     2.782975
      px      :     0.981214
      py      :     0.960115
      dz2     :     0.008976  d :     0.032846
      dxz     :     0.002567
      dyz     :     0.010166
      dx2y2   :     0.005230
      dxy     :     0.005906

 10 C s       :     3.169113  s :     3.169113
      pz      :     0.955118  p :     2.786624
      px      :     0.974117
      py      :     0.857390
      dz2     :     0.009723  d :     0.033158
      dxz     :     0.005823
      dyz     :     0.010552
      dx2y2   :     0.004291
      dxy     :     0.002768

 11 C s       :     3.169758  s :     3.169758
      pz      :     0.908563  p :     2.787770
      px      :     0.982904
      py      :     0.896304
      dz2     :     0.007802  d :     0.032779
      dxz     :     0.004325
      dyz     :     0.012462
      dx2y2   :     0.004181
      dxy     :     0.004010

 12 C s       :     3.220780  s :     3.220780
      pz      :     0.854320  p :     2.731095
      px      :     0.967536
      py      :     0.909239
      dz2     :     0.008986  d :     0.032543
      dxz     :     0.002374
      dyz     :     0.009812
      dx2y2   :     0.005253
      dxy     :     0.006116

 13 C s       :     3.073246  s :     3.073246
      pz      :     1.007076  p :     3.019862
      px      :     1.004563
      py      :     1.008223
      dz2     :     0.009218  d :     0.035141
      dxz     :     0.010774
      dyz     :     0.006006
      dx2y2   :     0.005079
      dxy     :     0.004064

 14 C s       :     3.285399  s :     3.285399
      pz      :     0.841951  p :     2.627748
      px      :     0.858451
      py      :     0.927346
      dz2     :     0.008189  d :     0.032867
      dxz     :     0.008908
      dyz     :     0.003684
      dx2y2   :     0.005800
      dxy     :     0.006285

 15 C s       :     2.983119  s :     2.983119
      pz      :     0.989544  p :     3.057101
      px      :     0.998636
      py      :     1.068921
      dz2     :     0.007884  d :     0.039081
      dxz     :     0.014888
      dyz     :     0.004776
      dx2y2   :     0.005915
      dxy     :     0.005617

 16 C s       :     3.235790  s :     3.235790
      pz      :     0.935457  p :     2.705763
      px      :     0.825595
      py      :     0.944711
      dz2     :     0.009884  d :     0.032860
      dxz     :     0.008659
      dyz     :     0.006252
      dx2y2   :     0.004485
      dxy     :     0.003580

 17 C s       :     3.179079  s :     3.179079
      pz      :     0.875342  p :     2.788754
      px      :     0.949839
      py      :     0.963573
      dz2     :     0.007737  d :     0.032592
      dxz     :     0.010026
      dyz     :     0.003858
      dx2y2   :     0.005331
      dxy     :     0.005641

 18 C s       :     3.228946  s :     3.228946
      pz      :     0.901152  p :     2.708341
      px      :     0.863408
      py      :     0.943782
      dz2     :     0.007312  d :     0.032576
      dxz     :     0.011226
      dyz     :     0.003973
      dx2y2   :     0.005075
      dxy     :     0.004989

 19 S s       :     5.302708  s :     5.302708
      pz      :     3.052293  p :     9.075582
      px      :     3.040605
      py      :     2.982684
      dz2     :     0.131612  d :     0.786249
      dxz     :     0.180341
      dyz     :     0.158603
      dx2y2   :     0.165554
      dxy     :     0.150138

 20 O s       :     3.841293  s :     3.841293
      pz      :     1.589603  p :     4.558049
      px      :     1.343774
      py      :     1.624672
      dz2     :     0.002599  d :     0.017676
      dxz     :     0.005181
      dyz     :     0.001039
      dx2y2   :     0.004507
      dxy     :     0.004350

 21 O s       :     3.846773  s :     3.846773
      pz      :     1.499868  p :     4.511738
      px      :     1.631257
      py      :     1.380613
      dz2     :     0.003724  d :     0.017901
      dxz     :     0.002134
      dyz     :     0.005510
      dx2y2   :     0.003308
      dxy     :     0.003225

 22 O s       :     3.743470  s :     3.743470
      pz      :     1.725027  p :     4.551642
      px      :     1.566414
      py      :     1.260201
      dz2     :     0.002080  d :     0.012804
      dxz     :     0.002019
      dyz     :     0.002867
      dx2y2   :     0.002005
      dxy     :     0.003833

 23 H s       :     0.980468  s :     0.980468
      pz      :     0.010124  p :     0.022393
      px      :     0.005573
      py      :     0.006696

 24 H s       :     0.980045  s :     0.980045
      pz      :     0.006482  p :     0.022397
      px      :     0.010705
      py      :     0.005210

 25 H s       :     0.979161  s :     0.979161
      pz      :     0.005055  p :     0.022581
      px      :     0.006149
      py      :     0.011377

 26 H s       :     0.972987  s :     0.972987
      pz      :     0.006675  p :     0.022963
      px      :     0.010790
      py      :     0.005499

 27 H s       :     0.977689  s :     0.977689
      pz      :     0.004972  p :     0.022374
      px      :     0.005981
      py      :     0.011421

 28 H s       :     0.958069  s :     0.958069
      pz      :     0.008495  p :     0.022862
      px      :     0.005098
      py      :     0.009268

 29 H s       :     0.979969  s :     0.979969
      pz      :     0.013053  p :     0.022368
      px      :     0.005164
      py      :     0.004150

 30 H s       :     0.978609  s :     0.978609
      pz      :     0.004577  p :     0.022340
      px      :     0.005040
      py      :     0.012723

 31 H s       :     0.978380  s :     0.978380
      pz      :     0.008305  p :     0.022404
      px      :     0.005020
      py      :     0.009080

 32 H s       :     0.983269  s :     0.983269
      pz      :     0.013183  p :     0.022528
      px      :     0.005134
      py      :     0.004211

 33 H s       :     0.974259  s :     0.974259
      pz      :     0.012375  p :     0.023151
      px      :     0.004694
      py      :     0.006082

 34 H s       :     0.959183  s :     0.959183
      pz      :     0.003871  p :     0.022762
      px      :     0.013659
      py      :     0.005232

 35 H s       :     0.965944  s :     0.965944
      pz      :     0.011868  p :     0.022386
      px      :     0.004515
      py      :     0.006003

 36 H s       :     0.973857  s :     0.973857
      pz      :     0.009442  p :     0.022452
      px      :     0.008415
      py      :     0.004595

 37 H s       :     0.725614  s :     0.725614
      pz      :     0.015967  p :     0.065400
      px      :     0.025936
      py      :     0.023496



                     *******************************
                     * LOEWDIN POPULATION ANALYSIS *
                     *******************************

----------------------
LOEWDIN ATOMIC CHARGES
----------------------
   0 C :   -0.029181
   1 C :   -0.026730
   2 C :   -0.032960
   3 C :   -0.180336
   4 C :   -0.036484
   5 C :   -0.023540
   6 P :    0.509506
   7 C :   -0.175199
   8 C :   -0.029550
   9 C :   -0.026256
  10 C :   -0.023056
  11 C :   -0.027110
  12 C :   -0.026775
  13 C :   -0.169162
  14 C :   -0.012789
  15 C :   -0.182457
  16 C :   -0.011719
  17 C :   -0.020010
  18 C :   -0.014375
  19 S :    1.137552
  20 O :   -0.473239
  21 O :   -0.440531
  22 O :   -0.234478
  23 H :    0.030561
  24 H :    0.031796
  25 H :    0.029207
  26 H :    0.029643
  27 H :    0.033104
  28 H :    0.030961
  29 H :    0.032102
  30 H :    0.031225
  31 H :    0.032090
  32 H :    0.027636
  33 H :    0.034153
  34 H :    0.041274
  35 H :    0.038447
  36 H :    0.032624
  37 H :    0.094057

-------------------------------
LOEWDIN REDUCED ORBITAL CHARGES
-------------------------------
  0 C s       :     2.862397  s :     2.862397
      pz      :     1.012122  p :     3.076996
      px      :     1.029505
      py      :     1.035370
      dz2     :     0.013136  d :     0.089788
      dxz     :     0.016083
      dyz     :     0.018721
      dx2y2   :     0.019830
      dxy     :     0.022018

  1 C s       :     2.863371  s :     2.863371
      pz      :     1.021390  p :     3.073895
      px      :     1.013999
      py      :     1.038506
      dz2     :     0.015547  d :     0.089463
      dxz     :     0.015831
      dyz     :     0.021140
      dx2y2   :     0.018215
      dxy     :     0.018730

  2 C s       :     2.866829  s :     2.866829
      pz      :     1.026961  p :     3.077503
      px      :     1.026148
      py      :     1.024394
      dz2     :     0.017213  d :     0.088628
      dxz     :     0.020242
      dyz     :     0.015803
      dx2y2   :     0.016634
      dxy     :     0.018736

  3 C s       :     2.914747  s :     2.914747
      pz      :     1.041460  p :     3.175188
      px      :     1.061163
      py      :     1.072565
      dz2     :     0.015538  d :     0.090401
      dxz     :     0.015437
      dyz     :     0.017783
      dx2y2   :     0.020326
      dxy     :     0.021317

  4 C s       :     2.866324  s :     2.866324
      pz      :     1.025322  p :     3.081174
      px      :     1.016315
      py      :     1.039536
      dz2     :     0.014907  d :     0.088986
      dxz     :     0.015040
      dyz     :     0.022172
      dx2y2   :     0.017990
      dxy     :     0.018876

  5 C s       :     2.863842  s :     2.863842
      pz      :     1.024831  p :     3.070541
      px      :     1.025187
      py      :     1.020524
      dz2     :     0.018074  d :     0.089156
      dxz     :     0.019463
      dyz     :     0.016777
      dx2y2   :     0.016575
      dxy     :     0.018267

  6 P s       :     5.244380  s :     5.244380
      pz      :     3.228700  p :     9.004350
      px      :     2.968225
      py      :     2.807425
      dz2     :     0.045634  d :     0.241764
      dxz     :     0.025522
      dyz     :     0.054039
      dx2y2   :     0.067721
      dxy     :     0.048849

  7 C s       :     2.914885  s :     2.914885
      pz      :     1.094196  p :     3.169291
      px      :     0.999345
      py      :     1.075750
      dz2     :     0.026583  d :     0.091023
      dxz     :     0.013113
      dyz     :     0.033501
      dx2y2   :     0.010442
      dxy     :     0.007384

  8 C s       :     2.868697  s :     2.868697
      pz      :     1.054637  p :     3.071256
      px      :     0.959051
      py      :     1.057568
      dz2     :     0.023267  d :     0.089598
      dxz     :     0.009246
      dyz     :     0.036510
      dx2y2   :     0.011873
      dxy     :     0.008701

  9 C s       :     2.864364  s :     2.864364
      pz      :     1.040876  p :     3.072886
      px      :     0.966566
      py      :     1.065445
      dz2     :     0.024755  d :     0.089006
      dxz     :     0.004884
      dyz     :     0.030744
      dx2y2   :     0.015619
      dxy     :     0.013004

 10 C s       :     2.863502  s :     2.863502
      pz      :     1.066952  p :     3.069757
      px      :     0.959171
      py      :     1.043634
[...]
 16 C s       :     2.875805  s :     2.875805
      pz      :     0.991146  p :     3.064760
      px      :     1.053131
      py      :     1.020483
      dz2     :     0.013370  d :     0.086677
      dxz     :     0.013446
      dyz     :     0.015768
      dx2y2   :     0.023594
      dxy     :     0.020500

 17 C s       :     2.871930  s :     2.871930
      pz      :     0.991766  p :     3.063761
      px      :     1.058012
      py      :     1.013983
      dz2     :     0.008617  d :     0.086236
      dxz     :     0.018921
      dyz     :     0.010506
      dx2y2   :     0.025096
      dxy     :     0.023096

 18 C s       :     2.877839  s :     2.877839
      pz      :     0.983797  p :     3.051919
      px      :     1.048719
      py      :     1.019403
      dz2     :     0.009219  d :     0.086766
      dxz     :     0.017677
      dyz     :     0.012613
      dx2y2   :     0.022328
      dxy     :     0.024929

 19 S s       :     5.083848  s :     5.083848
      pz      :     2.935025  p :     8.812543
      px      :     2.960007
      py      :     2.917511
      dz2     :     0.160066  d :     0.941623
      dxz     :     0.199607
      dyz     :     0.217876
      dx2y2   :     0.161212
      dxy     :     0.202862

 20 O s       :     3.704894  s :     3.704894
      pz      :     1.675120  p :     4.742701
      px      :     1.508029
      py      :     1.559551
      dz2     :     0.004059  d :     0.027517
      dxz     :     0.003547
      dyz     :     0.002297
      dx2y2   :     0.005892
      dxy     :     0.011723

 21 O s       :     3.700878  s :     3.700878
      pz      :     1.468236  p :     4.717993
      px      :     1.634903
      py      :     1.614853
      dz2     :     0.008779  d :     0.028321
      dxz     :     0.007289
      dyz     :     0.008155
      dx2y2   :     0.001832
      dxy     :     0.002265

 22 O s       :     3.561420  s :     3.561420
      pz      :     1.509480  p :     4.670147
      px      :     1.593532
      py      :     1.567135
      dz2     :     0.001258  d :     0.021479
      dxz     :     0.004343
      dyz     :     0.007392
      dx2y2   :     0.004237
      dxy     :     0.004249

 23 H s       :     0.899385  s :     0.899385
      pz      :     0.026150  p :     0.065960
      px      :     0.017175
      py      :     0.022635

 24 H s       :     0.898898  s :     0.898898
      pz      :     0.012299  p :     0.065890
      px      :     0.041171
      py      :     0.012421

 25 H s       :     0.901224  s :     0.901224
      pz      :     0.023248  p :     0.066704
      px      :     0.019861
      py      :     0.023595

 26 H s       :     0.896298  s :     0.896298
      pz      :     0.012557  p :     0.068766
      px      :     0.043505
      py      :     0.012703

 27 H s       :     0.898498  s :     0.898498
      pz      :     0.022881  p :     0.065965
      px      :     0.019925
      py      :     0.023159

 28 H s       :     0.894520  s :     0.894520
      pz      :     0.018986  p :     0.069126
      px      :     0.015712
      py      :     0.034428

 29 H s       :     0.898239  s :     0.898239
      pz      :     0.041297  p :     0.065912
      px      :     0.013618
      py      :     0.010997

 30 H s       :     0.898830  s :     0.898830
      pz      :     0.018083  p :     0.065939
      px      :     0.014452
      py      :     0.033404

 31 H s       :     0.898823  s :     0.898823
      pz      :     0.018908  p :     0.065869
      px      :     0.015581
      py      :     0.031380

 32 H s       :     0.902319  s :     0.902319
      pz      :     0.041963  p :     0.066697
      px      :     0.013703
      py      :     0.011030

 33 H s       :     0.882799  s :     0.882799
      pz      :     0.025277  p :     0.072601
      px      :     0.012491
      py      :     0.034834

 34 H s       :     0.889116  s :     0.889116
      pz      :     0.012619  p :     0.070117
      px      :     0.041018
      py      :     0.016480

 35 H s       :     0.893677  s :     0.893677
      pz      :     0.022230  p :     0.066181
      px      :     0.011503
      py      :     0.032448

 36 H s       :     0.896409  s :     0.896409
      pz      :     0.020224  p :     0.066710
      px      :     0.029492
      py      :     0.016993

 37 H s       :     0.738761  s :     0.738761
      pz      :     0.062170  p :     0.176789
      px      :     0.071882
      py      :     0.042737



                      *****************************
                      * MAYER POPULATION ANALYSIS *
                      *****************************

  NA   - Mulliken gross atomic population
  ZA   - Total nuclear charge
  QA   - Mulliken gross atomic charge
  VA   - Mayer's total valence
  BVA  - Mayer's bonded valence
  FA   - Mayer's free valence

  ATOM       NA         ZA         QA         VA         BVA        FA
  0 C      5.9953     6.0000     0.0047     3.8270     3.8270    -0.0000
  1 C      5.9999     6.0000     0.0001     3.8582     3.8582    -0.0000
  2 C      5.9815     6.0000     0.0185     3.8651     3.8651    -0.0000
  3 C      6.1631     6.0000    -0.1631     3.8469     3.8469    -0.0000
  4 C      5.9939     6.0000     0.0061     3.8772     3.8772    -0.0000
  5 C      5.9955     6.0000     0.0045     3.8407     3.8407    -0.0000
  6 P     14.6922    15.0000     0.3078     2.9880     2.9880    -0.0000
  7 C      6.1720     6.0000    -0.1720     3.8428     3.8428    -0.0000
  8 C      5.9922     6.0000     0.0078     3.8819     3.8819    -0.0000
  9 C      5.9887     6.0000     0.0113     3.8417     3.8417    -0.0000
 10 C      5.9914     6.0000     0.0086     3.8295     3.8295    -0.0000
 11 C      5.9964     6.0000     0.0036     3.8606     3.8606    -0.0000
 12 C      5.9860     6.0000     0.0140     3.8642     3.8642    -0.0000
 13 C      6.1736     6.0000    -0.1736     3.8612     3.8612    -0.0000
 14 C      5.9615     6.0000     0.0385     3.8757     3.8757    -0.0000
 15 C      6.0925     6.0000    -0.0925     3.8401     3.8401    -0.0000
 16 C      5.9900     6.0000     0.0100     3.8657     3.8657    -0.0000
 17 C      6.0038     6.0000    -0.0038     3.8569     3.8569    -0.0000
 18 C      5.9601     6.0000     0.0399     3.8411     3.8411    -0.0000
 19 S     15.1552    16.0000     0.8448     5.2746     5.2746    -0.0000
 20 O      8.4074     8.0000    -0.4074     2.0257     2.0257    -0.0000
 21 O      8.3840     8.0000    -0.3840     2.0525     2.0525    -0.0000
 22 O      8.3168     8.0000    -0.3168     2.0649     2.0649    -0.0000
 23 H      0.9912     1.0000     0.0088     0.9791     0.9791    -0.0000
 24 H      0.9914     1.0000     0.0086     0.9792     0.9792    -0.0000
 25 H      0.9933     1.0000     0.0067     0.9901     0.9901    -0.0000
 26 H      0.9832     1.0000     0.0168     0.9885     0.9885     0.0000
 27 H      0.9921     1.0000     0.0079     0.9791     0.9791    -0.0000
 28 H      0.9817     1.0000     0.0183     0.9914     0.9914     0.0000
 29 H      0.9923     1.0000     0.0077     0.9793     0.9793    -0.0000
 30 H      0.9905     1.0000     0.0095     0.9792     0.9792    -0.0000
 31 H      0.9917     1.0000     0.0083     0.9793     0.9793    -0.0000
 32 H      0.9953     1.0000     0.0047     0.9900     0.9900    -0.0000
 33 H      0.9602     1.0000     0.0398     1.0231     1.0231     0.0000
 34 H      0.9769     1.0000     0.0231     1.0129     1.0129    -0.0000
 35 H      0.9819     1.0000     0.0181     0.9808     0.9808    -0.0000
 36 H      0.9849     1.0000     0.0151     0.9913     0.9913    -0.0000
 37 H      0.8005     1.0000     0.1995     1.0162     1.0162    -0.0000

  Mayer bond orders larger than 0.100000
B(  0-C ,  1-C ) :   1.3761 B(  0-C ,  5-C ) :   1.3786 B(  0-C , 23-H ) :   0.9759 
B(  1-C ,  2-C ) :   1.4022 B(  1-C , 24-H ) :   0.9759 B(  2-C ,  3-C ) :   1.3648 
B(  2-C , 25-H ) :   0.9717 B(  3-C ,  4-C ) :   1.3750 B(  3-C ,  6-P ) :   0.9435 
B(  4-C ,  5-C ) :   1.3855 B(  4-C , 26-H ) :   0.9676 B(  5-C , 27-H ) :   0.9750 
B(  6-P ,  7-C ) :   0.9398 B(  6-P , 13-C ) :   0.9231 B(  7-C ,  8-C ) :   1.3802 
B(  7-C , 12-C ) :   1.3596 B(  8-C ,  9-C ) :   1.3850 B(  8-C , 28-H ) :   0.9674 
B(  9-C , 10-C ) :   1.3801 B(  9-C , 29-H ) :   0.9744 B( 10-C , 11-C ) :   1.3766 
B( 10-C , 30-H ) :   0.9754 B( 11-C , 12-C ) :   1.4033 B( 11-C , 31-H ) :   0.9757 
B( 12-C , 32-H ) :   0.9718 B( 13-C , 14-C ) :   1.3800 B( 13-C , 18-C ) :   1.3559 
B( 14-C , 15-C ) :   1.3387 B( 14-C , 33-H ) :   0.9654 B( 15-C , 16-C ) :   1.3878 
B( 15-C , 19-S ) :   0.8195 B( 16-C , 17-C ) :   1.3506 B( 16-C , 34-H ) :   0.9712 
B( 17-C , 18-C ) :   1.4040 B( 17-C , 35-H ) :   0.9750 B( 18-C , 36-H ) :   0.9722 
B( 19-S , 20-O ) :   1.6952 B( 19-S , 21-O ) :   1.7492 B( 19-S , 22-O ) :   0.9205 
B( 20-O , 21-O ) :   0.1032 B( 22-O , 37-H ) :   0.9394 

-------
TIMINGS
-------

Total SCF time: 0 days 0 hours 0 min 6 sec 

Total time                  ....       6.633 sec
Sum of individual times     ....       6.537 sec  ( 98.6%)

SCF preparation             ....       0.129 sec  (  1.9%)
Fock matrix formation       ....       5.756 sec  ( 86.8%)
  Startup                   ....       0.030 sec  (  0.5% of F)
  Split-RI-J                ....       2.163 sec  ( 37.6% of F)
  XC integration            ....       3.441 sec  ( 59.8% of F)
    Basis function eval.    ....       1.068 sec  ( 31.0% of XC)
    Density eval.           ....       1.089 sec  ( 31.6% of XC)
    XC-Functional eval.     ....       0.087 sec  (  2.5% of XC)
    XC-Potential eval.      ....       0.669 sec  ( 19.4% of XC)
Diagonalization             ....       0.000 sec  (  0.0%)
Density matrix formation    ....       0.074 sec  (  1.1%)
Total Energy calculation    ....       0.028 sec  (  0.4%)
Population analysis         ....       0.111 sec  (  1.7%)
Orbital Transformation      ....       0.051 sec  (  0.8%)
Orbital Orthonormalization  ....       0.000 sec  (  0.0%)
DIIS solution               ....       0.066 sec  (  1.0%)
SOSCF solution              ....       0.322 sec  (  4.9%)
Finished LeanSCF after   6.7 sec

Maximum memory used throughout the entire LEANSCF-calculation: 43.3 MB


-------------------------------------------------------------------------------
                          DFT DISPERSION CORRECTION                            
                                                                               
                              DFTD3 V3.1  Rev 1                                
                          USING Becke-Johnson damping                          
-------------------------------------------------------------------------------
The BP86 functional is recognized
Active option DFTDOPT                   ...         4   

molecular C6(AA) [au] = 22518.744759 


            DFT-D V3
 parameters
 s6 scaling factor         :     1.0000 
 a1 scaling factor         :     0.3946 
 s8 scaling factor         :     3.2822 
 a2 scaling factor         :     4.8516 
 ad hoc parameters k1-k3   :    16.0000     1.3333    -4.0000 

 Edisp/kcal,au: -60.664687659688  -0.096675323156 
 E6   /kcal   : -21.823822835 
 E8   /kcal   : -38.840864825 
 % E8         :  64.025492132 

-------------------------   ----------------
Dispersion correction           -0.096675323
-------------------------   ----------------


-------------------------   --------------------
FINAL SINGLE POINT ENERGY     -1659.386167596906
-------------------------   --------------------

                                *** OPTIMIZATION RUN DONE ***



           ************************************************************
           *        Program running with 6 parallel MPI-processes     *
           *              working on a common directory               *
           ************************************************************

------------------------------------------------------------------------------
                              ORCA PROPERTY CALCULATIONS
------------------------------------------------------------------------------

GBWName                                 ... data/geom_opt_P_BP86/195868/195868.gbw
Number of atoms                         ...     38
Number of basis functions               ...    405
Max core memory                         ...   1024 MB

Electric properties:
Dipole moment                           ... YES
Quadrupole moment                       ...  NO
Static polarizability (Dipole/Dipole)   ...  NO
Static polarizability (Dipole/Quad.)    ...  NO
Static polarizability (Quad./Quad.)     ...  NO
Static polarizability (Velocity)        ...  NO

Atomic electric properties:
Dipole moment                           ...  NO
Quadrupole moment                       ...  NO
Static polarizability                   ...  NO

Choice of electric origin               ... Center of mass
Position of electric origin             ...     0.955981     0.077093    -0.169550

General magnetic properties:
Magnetizability                         ...  NO

EPR properties:
g-Tensor (aka g-matrix)                 ...  NO
Zero-Field splitting spin-orbit         ...  NO
Zero-field splitting spin-spin          ...  NO
Hyperfine couplings                     ...  NO (   0 nuclei)
Quadrupole couplings                    ...  NO (   0 nuclei)
Contact density                         ...  NO (   0 nuclei)

NMR properties:
Chemical shifts                         ...  NO (   0 nuclei)
Spin-rotation constants                 ...  NO (   0 nuclei)
Spin-spin couplings                     ...  NO (   0 nuclei,    0 pairs)

Choice of magnetic origin               ... GIAO
Position of magnetic origin             ...     0.000000     0.000000     0.000000

Properties with geometric perturbations:
SCF Hessian                             ...  NO
IR spectrum                             ...  NO
VCD spectrum                            ...  NO
X-ray spectroscopy properties:
SCF XES/XAS/RIXS spectra                ...  NO


-------------
DIPOLE MOMENT
-------------

Method             : SCF
Type of density    : Electron Density
Multiplicity       :   1
Irrep              :   0
Energy             : -1659.2894922737500565 Eh
Relativity type    : 
Basis              : AO
                                X                 Y                 Z
Electronic contribution:      9.938534856       0.457613605      -4.145888858
Nuclear contribution   :    -10.690534641      -0.823172314       3.338109203
                        -----------------------------------------
Total Dipole Moment    :     -0.751999786      -0.365558709      -0.807779656
                        -----------------------------------------
Magnitude (a.u.)       :      1.162602606
Magnitude (Debye)      :      2.955100979



--------------------
Rotational spectrum 
--------------------
 
Rotational constants in cm-1:             0.010046             0.005521             0.004394 
Rotational constants in MHz :           301.180734           165.519648           131.726539 

Dipole components along the rotational axes: 
x,y,z [a.u.] :     0.669722    -0.391814    -0.865794 
x,y,z [Debye]:     1.702297    -0.995912    -2.200674 

 

Dipole moment calculation done in   0.0 sec 

Maximum memory used throughout the entire PROP-calculation: 22.5 MB

--------------------------------
SUGGESTED CITATIONS FOR THIS RUN
--------------------------------

Below you find a list of papers that are relevant to this ORCA run
We neither can nor want to force you to cite these papers, but we appreciate if you do
You receive ORCA, which is the product of decades of hard work by many enthusiastic individuals, for free
The only thing we kindly ask in return is that you cite our papers,
We deeply appreciate it, if you show your appreciation for ORCA by not just citing the generic ORCA reference.

Please note that relegating all ORCA citations to the supporting information does *not* help us.
SI sections are not indexed - citations you put there will not count into any citation statistics
But we need these citations in order to attract the funding resources that allow us to do what we are doing

Therefore, if you are a happy ORCA user, please consider citing a few of the papers listed below in the main body of your paper

In addition to the list printed below, the program has created the file data/geom_opt_P_BP86/195868/195868.bibtex that contains the list in bibtex format
You can import this file easily into all common literature databanks and citation aid programs


List of essential papers. We consider these as the minimum necessary citations

  1. Neese,F.
     Software update: the ORCA program system, version 5.0
     WIRES Comput. Molec. Sci., 2022 12(1)e1606
     doi.org/10.1002/wcms.1606

List of papers to cite with high priority. The work reported in these papers was absolutely
necessary for this run to complete.
Our perspective: the developers of density functionals and basis sets usually get cited in chemistry papers
Good! But without the algorithms to do something with them, the functionals or basis sets would not do anything.
Hence, in our opinion, the algorithm design and method developments papers are equally worthy of getting cited

  1. Neese,F.
     An improvement of the resolution of the identity approximation for the formation of the Coulomb matrix
     J. Comp. Chem., 2003 24(14)1740-1747
     doi.org/10.1002/jcc.10318
  2. Neese,F.
     The SHARK Integral Generation and Digestion System
     J. Comp. Chem., 2022  1-16
     doi.org/10.1002/jcc.26942
  3. Grimme,S.; Antony,J.; Ehrlich,S.; Krieg,H.
     A consistent and accurate ab initio parametrization of density functional dispersion correction (DFT-D) for the 94 elements H-Pu
     J. Chem. Phys., 2010 132 154104-XXXX
     doi.org/10.1063/1.3382344
  4. Grimme,S.; Ehrlich,S.; Goerigk,L.
     Effect of the damping function in dispersion corrected density functional theory
     J. Comput. Chem., 2011 32(7)1456-1465
     doi.org/10.1002/jcc.21759

List of suggested additional citations. These are papers that are important in the 'surrounding' of 
of this run, or papers that preceded the highly important papers. If you like your results we are grateful for a citation.

  1. Neese,F.
     The ORCA program system
     WIRES Comput. Molec. Sci., 2012 2(1)73-78
     doi.org/10.1002/wcms.81
  2. Neese,F.
     Software update: the ORCA program system, version 4.0
     WIRES Comput. Molec. Sci., 2018 8(1)1-6
     doi.org/10.1002/wcms.1327
  3. Neese,F.; Wennmohs,F.; Becker,U.; Riplinger,C.
     The ORCA quantum chemistry program package
     J. Chem. Phys., 2020 152 Art. No. L224108
     doi.org/10.1063/5.0004608

List of optional additional citations

  1. Neese,F.
     Approximate second-order SCF convergence for spin unrestricted wavefunctions
     Chem. Phys. Lett., 2000 325(1-3)93-98
     doi.org/10.1016/s0009-2614(00)00662-x

Timings for individual modules:

Sum of individual times          ...      300.847 sec (=   5.014 min)
Startup calculation              ...       23.918 sec (=   0.399 min)   8.0 %
SCF iterations                   ...      184.006 sec (=   3.067 min)  61.2 %
Property calculations            ...        0.209 sec (=   0.003 min)   0.1 %
SCF Gradient evaluation          ...       92.409 sec (=   1.540 min)  30.7 %
Geometry relaxation              ...        0.305 sec (=   0.005 min)   0.1 %
                             ****ORCA TERMINATED NORMALLY****
TOTAL RUN TIME: 0 days 0 hours 5 minutes 3 seconds 925 msec
