
                                 *****************
                                 * O   R   C   A *
                                 *****************

                                            #,                                       
                                            ###                                      
                                            ####                                     
                                            #####                                    
                                            ######                                   
                                           ########,                                 
                                     ,,################,,,,,                         
                               ,,#################################,,                 
                          ,,##########################################,,             
                       ,#########################################, ''#####,          
                    ,#############################################,,   '####,        
                  ,##################################################,,,,####,       
                ,###########''''           ''''###############################       
              ,#####''   ,,,,##########,,,,          '''####'''          '####       
            ,##' ,,,,###########################,,,                        '##       
           ' ,,###''''                  '''############,,,                           
         ,,##''                                '''############,,,,        ,,,,,,###''
      ,#''                                            '''#######################'''  
     '                                                          ''''####''''         
             ,#######,   #######,   ,#######,      ##                                
            ,#'     '#,  ##    ##  ,#'     '#,    #''#        ,####,   ,####,        
            ##       ##  ##   ,#'  ##            #'  '#       #'       #'  '#        
            ##       ##  #######   ##           ,######,      #####,   #    #        
            '#,     ,#'  ##    ##  '#,     ,#' ,#      #,     #,   #   #,  ,#        
             '#######'   ##     ##  '#######'  #'      '#     '####' # '####'        



                #########################################################
                #                        -***-                          #
                #          Department of theory and spectroscopy        #
                #                                                       #
                #                      Frank Neese                      #
                #                                                       #
                #     Directorship, Architecture, Infrastructure        #
                #                    SHARK, DRIVERS                     #
                #        Core code/Algorithms in most modules           #
                #                                                       #
                #        Max Planck Institute fuer Kohlenforschung      #
                #                Kaiser Wilhelm Platz 1                 #
                #                 D-45470 Muelheim/Ruhr                 #
                #                      Germany                          #
                #                                                       #
                #                  All rights reserved                  #
                #                        -***-                          #
                #########################################################


                         Program Version 6.0.0  -   RELEASE   -


 With contributions from (in alphabetic order):
   Daniel Aravena         : Magnetic Suceptibility
   Michael Atanasov       : Ab Initio Ligand Field Theory (pilot matlab implementation)
   Alexander A. Auer      : GIAO ZORA, VPT2 properties, NMR spectrum
   Ute Becker             : All parallelization in ORCA, NUMFREQ, NUMCALC
   Giovanni Bistoni       : ED, misc. LED, open-shell LED, HFLD
   Martin Brehm           : Molecular dynamics
   Dmytro Bykov           : pre 5.0 version of the SCF Hessian
   Marcos Casanova-Páez   : Triplet and SCS-CIS(D). UHF-(DLPNO)-IP/EA/STEOM-CCSD. UHF-CVS-IP/STEOM-CCSD
   Vijay G. Chilkuri      : MRCI spin determinant printing, contributions to CSF-ICE
   Pauline Colinet        : FMM embedding
   Dipayan Datta          : RHF DLPNO-CCSD density
   Achintya Kumar Dutta   : EOM-CC, STEOM-CC
   Nicolas Foglia         : Exact transition moments, OPA infrastructure, MCD improvements
   Dmitry Ganyushin       : Spin-Orbit,Spin-Spin,Magnetic field MRCI
   Miquel Garcia          : C-PCM and meta-GGA Hessian, CCSD/C-PCM, Gaussian charge scheme
   Tiago L. C. Gouveia    : GS-ROHF, GS-ROCIS
   Yang Guo               : DLPNO-NEVPT2, F12-NEVPT2, CIM, IAO-localization
   Andreas Hansen         : Spin unrestricted coupled pair/coupled cluster methods
   Ingolf Harden          : AUTO-CI MPn and infrastructure 
   Benjamin Helmich-Paris : MC-RPA, TRAH-(SCF,CASSCF), AVAS, COSX integrals, SCF dyn. polar.
   Lee Huntington         : MR-EOM, pCC
   Robert Izsak           : Overlap fitted RIJCOSX, COSX-SCS-MP3, EOM
   Riya Kayal             : Wick's Theorem for AUTO-CI, AUTO-CI UHF-CCSDT
   Emily Kempfer          : AUTO-CI, RHF CISDT and CCSDT
   Christian Kollmar      : KDIIS, OOCD, Brueckner-CCSD(T), CCSD density, CASPT2, CASPT2-K, improved NEVPT2
   Axel Koslowski         : Symmetry handling
   Simone Kossmann        : Meta GGA functionals, TD-DFT gradient, OOMP2, (MP2 Hessian; deprecated post 5.0)
   Lucas Lang             : DCDCAS
   Marvin Lechner         : AUTO-CI (C++ implementation), FIC-MRCC
   Spencer Leger          : CASSCF response
   Dagmar Lenk            : GEPOL surface, SMD, ORCA-2-JSON
   Dimitrios Liakos       : Extrapolation schemes; Compound Job, initial MDCI parallelization
   Dimitrios Manganas     : Further ROCIS development; embedding schemes. LFT, Crystal Embedding
   Dimitrios Pantazis     : SARC Basis sets
   Anastasios Papadopoulos: AUTO-CI, single reference methods and gradients
   Taras Petrenko         : pre 6.0 DFT Hessian and TD-DFT gradient, (ASA, deprecated), ECA, 1-Electron XAS/XES, NRVS
   Peter Pinski           : DLPNO-MP2, DLPNO-MP2 Gradient
   Christoph Reimann      : Effective Core Potentials
   Marius Retegan         : Local ZFS, SOC
   Christoph Riplinger    : Optimizer, TS searches, QM/MM, DLPNO-CCSD(T), (RO)-DLPNO pert. Triples
   Michael Roemelt        : Original ROCIS implementation
   Masaaki Saitow         : Open-shell DLPNO-CCSD energy and density
   Barbara Sandhoefer     : DKH picture change effects
   Kantharuban Sivalingam : CASSCF convergence/infrastructure, NEVPT2 and variants, FIC-MRCI
   Bernardo de Souza      : ESD, SOC TD-DFT
   Georgi Stoychev        : AutoAux, RI-MP2 NMR, DLPNO-MP2 response, X2C
   Van Anh Tran           : RI-MP2 g-tensors
   Willem Van den Heuvel  : Paramagnetic NMR
   Zikuan Wang            : NOTCH, Electric field optimization 
   Frank Wennmohs         : Technical directorship and infrastructure
   Hang Xu                : AUTO-CI-Response properties 


 We gratefully acknowledge several colleagues who have allowed us to
 interface, adapt or use parts of their codes:
   Stefan Grimme, W. Hujo, H. Kruse, P. Pracht,  : VdW corrections, initial TS optimization,
                  C. Bannwarth, S. Ehlert,         DFT functionals, gCP, sTDA/sTD-DF
                  L. Wittmann, M. Mueller
   Ed Valeev, F. Pavosevic, A. Kumar             : LibInt (2-el integral package), F12 methods
   Garnet Chan, S. Sharma, J. Yang, R. Olivares  : DMRG
   Ulf Ekstrom                                   : XCFun DFT Library
   Mihaly Kallay                                 : mrcc  (arbitrary order and MRCC methods)
   Frank Weinhold                                : gennbo (NPA and NBO analysis)
   Simon Mueller                                 : openCOSMO-RS
   Christopher J. Cramer and Donald G. Truhlar   : smd solvation model
   Lars Goerigk                                  : TD-DFT with DH, B97 family of functionals
   V. Asgeirsson, H. Jonsson                     : NEB implementation
   FAccTs GmbH                                   : IRC, NEB, NEB-TS, DLPNO-Multilevel, CI-OPT
                                                   MM, QMMM, 2- and 3-layer-ONIOM, Crystal-QMMM,
                                                   LR-CPCM, SF, NACMEs, symmetry and pop. for TD-DFT,
                                                   nearIR, NL-DFT gradient (VV10), updates on ESD,
                                                   ML-optimized integration grids, MBIS, APM,
                                                   GOAT, DOCKER, SOLVATOR, interface openCOSMO-RS
   S Lehtola, MJT Oliveira, MAL Marques          : LibXC Library
   Liviu Ungur et al                             : ANISO software


 Your calculation uses the libint2 library for the computation of 2-el integrals
 For citations please refer to: http://libint.valeyev.net

 Your ORCA version has been built with support for libXC version: 6.2.2
 For citations please refer to: https://libxc.gitlab.io

 This ORCA versions uses:
   CBLAS   interface :  Fast vector & matrix operations
   LAPACKE interface :  Fast linear algebra routines
   Shared memory     :  Shared parallel matrices


Your calculation utilizes the atom-pairwise dispersion correction
with the zero-damping scheme (D30)


XCFun DFT library Copyright 2009-2010 Ulf Ekstrom and contributors.
See http://admol.org/xcfun for more information.
This is free software; see the source code for copying conditions.
There is ABSOLUTELY NO WARRANTY; not even for MERCHANTABILITY or FITNESS FOR A PARTICULAR PURPOSE.
For details see the documentation.
Scientific users of this library should cite U. Ekstrom, L. Visscher, R. Bast, A. J. Thorvaldsen and K. Ruud;
J.Chem.Theor.Comp. 2010, DOI: 10.1021/ct100117s
XCFun Version 0.99 

Warning: RI is on but no J-basis has been assigned. Assigning Def2/J (nothing to worry about!)
================================================================================

----- Orbital basis set information -----
Your calculation utilizes the basis: def2-TZVP
   F. Weigend and R. Ahlrichs, Phys. Chem. Chem. Phys. 7, 3297 (2005).

----- AuxJ basis set information -----
Your calculation utilizes the auxiliary basis: def2/J
   F. Weigend, Phys. Chem. Chem. Phys. 8, 1057 (2006).

================================================================================
                                        WARNINGS
                       Please study these warnings very carefully!
================================================================================

WARNING: Functional chosen is sensitive to the integration grid.
         DEFGRID3 seems to be a minimum grid for robust results!

================================================================================
                                       INPUT FILE
================================================================================
NAME = data/single_point_P_M06-2x/627824/627824.inp
|  1> ! RIJCOSX M062X def2-TZVP D3ZERO NormalSCF
|  2> %pal
|  3> nprocs 6
|  4> end
|  5> 
|  6> * xyz 0 1
|  7>   C          -2.89952554105948     -3.44872326182547      0.18911972983529
|  8>   C          -1.71830447303613     -3.04669621777973      0.83492082453040
|  9>   C          -0.95389578419993     -1.98753475112919      0.31827111976110
| 10>   C          -1.36184835560711     -1.32304414138882     -0.85785619186694
| 11>   C          -2.54350054118998     -1.74237308262927     -1.50827516797121
| 12>   C          -3.31255698349991     -2.79192038582411     -0.98306218973473
| 13>   P          -0.45013450197188      0.10073583668398     -1.61259808142869
| 14>   C          -1.27029988346765      1.53707465335148     -0.78169130055705
| 15>   C          -2.14345841616520      1.41531463209622      0.31946723026627
| 16>   C          -2.71577585730205      2.55970662691006      0.89896793255123
| 17>   C          -2.41908599921889      3.83556676263875      0.39095444274326
| 18>   C          -1.55226093378699      3.96496514474314     -0.70811877166320
| 19>   C          -0.99026467839390      2.82217692360171     -1.29740017916622
| 20>   C           1.14874923792497      0.01585332594658     -0.68351758080138
| 21>   C           2.08508671703447     -0.95818624561271     -1.10259886467710
| 22>   C           3.31901876356987     -1.08938126666102     -0.45670598657164
| 23>   C           3.64910514563993     -0.22926338841507      0.61356067621069
| 24>   C           2.72610660886876      0.75332607858026      1.02518846056731
| 25>   C           1.48628911822437      0.87423329962240      0.38537255924144
| 26>   C           4.95065577974800     -0.31624631763762      1.33604120799389
| 27>   O           5.28382517879664      0.40153376217703      2.26570293568891
| 28>   O           5.75911919758348     -1.30035020588847      0.85126156138634
| 29>   H          -3.49713176611394     -4.27829908354585      0.59704326080122
| 30>   H          -1.38952721453210     -3.55829204433668      1.75281211636761
| 31>   H          -0.03519083192836     -1.67094676605955      0.83431457007817
| 32>   H          -2.86102839919070     -1.23599514539141     -2.43416026306268
| 33>   H          -4.23428241456681     -3.10566374788689     -1.49691850319051
| 34>   H          -2.37306038513408      0.41948591628495      0.72710673577889
| 35>   H          -3.39662210972676      2.45270882073857      1.75768086946300
| 36>   H          -2.86769640633485      4.73060136923705      0.84853868238936
| 37>   H          -1.32008962017810      4.96124700082006     -1.11499752260153
| 38>   H          -0.32169039905370      2.92384550762591     -2.16776445416706
| 39>   H           1.83564392252008     -1.62415869071217     -1.94435096419857
| 40>   H           4.04068040480224     -1.85244891033025     -0.77972518423740
| 41>   H           3.00258644541537      1.41190124451143      1.86191663452862
| 42>   H           0.76827492281274      1.63655486658578      0.72160401247157
| 43>   H           6.57209105271762     -1.25730811910107      1.39989664324130
| 44> **                         ****END OF INPUT****
================================================================================

                       ****************************
                       * Single Point Calculation *
                       ****************************

---------------------------------
CARTESIAN COORDINATES (ANGSTROEM)
---------------------------------
  C     -2.899526   -3.448723    0.189120
  C     -1.718304   -3.046696    0.834921
  C     -0.953896   -1.987535    0.318271
  C     -1.361848   -1.323044   -0.857856
  C     -2.543501   -1.742373   -1.508275
  C     -3.312557   -2.791920   -0.983062
  P     -0.450135    0.100736   -1.612598
  C     -1.270300    1.537075   -0.781691
  C     -2.143458    1.415315    0.319467
  C     -2.715776    2.559707    0.898968
  C     -2.419086    3.835567    0.390954
  C     -1.552261    3.964965   -0.708119
  C     -0.990265    2.822177   -1.297400
  C      1.148749    0.015853   -0.683518
  C      2.085087   -0.958186   -1.102599
  C      3.319019   -1.089381   -0.456706
  C      3.649105   -0.229263    0.613561
  C      2.726107    0.753326    1.025188
  C      1.486289    0.874233    0.385373
  C      4.950656   -0.316246    1.336041
  O      5.283825    0.401534    2.265703
  O      5.759119   -1.300350    0.851262
  H     -3.497132   -4.278299    0.597043
  H     -1.389527   -3.558292    1.752812
  H     -0.035191   -1.670947    0.834315
  H     -2.861028   -1.235995   -2.434160
  H     -4.234282   -3.105664   -1.496919
  H     -2.373060    0.419486    0.727107
  H     -3.396622    2.452709    1.757681
  H     -2.867696    4.730601    0.848539
  H     -1.320090    4.961247   -1.114998
  H     -0.321690    2.923846   -2.167764
  H      1.835644   -1.624159   -1.944351
  H      4.040680   -1.852449   -0.779725
  H      3.002586    1.411901    1.861917
  H      0.768275    1.636555    0.721604
  H      6.572091   -1.257308    1.399897

----------------------------
CARTESIAN COORDINATES (A.U.)
----------------------------
  NO LB      ZA    FRAG     MASS         X           Y           Z
   0 C     6.0000    0    12.011   -5.479309   -6.517142    0.357384
   1 C     6.0000    0    12.011   -3.247125   -5.757421    1.577772
   2 C     6.0000    0    12.011   -1.802602   -3.755896    0.601445
   3 C     6.0000    0    12.011   -2.573520   -2.500191   -1.621113
   4 C     6.0000    0    12.011   -4.806519   -3.292608   -2.850227
   5 C     6.0000    0    12.011   -6.259826   -5.275965   -1.857718
   6 P    15.0000    0    30.974   -0.850631    0.190363   -3.047369
   7 C     6.0000    0    12.011   -2.400519    2.904650   -1.477182
   8 C     6.0000    0    12.011   -4.050549    2.674557    0.603706
   9 C     6.0000    0    12.011   -5.132073    4.837145    1.698803
  10 C     6.0000    0    12.011   -4.571410    7.248171    0.738797
  11 C     6.0000    0    12.011   -2.933348    7.492698   -1.338151
  12 C     6.0000    0    12.011   -1.871329    5.333141   -2.451731
  13 C     6.0000    0    12.011    2.170821    0.029958   -1.291661
  14 C     6.0000    0    12.011    3.940243   -1.810710   -2.083610
  15 C     6.0000    0    12.011    6.272036   -2.058632   -0.863049
  16 C     6.0000    0    12.011    6.895809   -0.433245    1.159462
  17 C     6.0000    0    12.011    5.151595    1.423580    1.937325
  18 C     6.0000    0    12.011    2.808679    1.652062    0.728249
  19 C     6.0000    0    12.011    9.355384   -0.597619    2.524752
  20 O     8.0000    0    15.999    9.984983    0.758789    4.281558
  21 O     8.0000    0    15.999   10.883158   -2.457306    1.608651
  22 H     1.0000    0     1.008   -6.608621   -8.084814    1.128248
  23 H     1.0000    0     1.008   -2.625826   -6.724197    3.312335
  24 H     1.0000    0     1.008   -0.066501   -3.157632    1.576626
  25 H     1.0000    0     1.008   -5.406560   -2.335692   -4.599896
  26 H     1.0000    0     1.008   -8.001634   -5.868854   -2.828766
  27 H     1.0000    0     1.008   -4.484434    0.792713    1.374033
  28 H     1.0000    0     1.008   -6.418686    4.634948    3.321535
  29 H     1.0000    0     1.008   -5.419161    8.939541    1.603506
  30 H     1.0000    0     1.008   -2.494608    9.375398   -2.107040
  31 H     1.0000    0     1.008   -0.607907    5.525267   -4.096481
  32 H     1.0000    0     1.008    3.468864   -3.069215   -3.674291
  33 H     1.0000    0     1.008    7.635779   -3.500621   -1.473467
  34 H     1.0000    0     1.008    5.674066    2.668107    3.518513
  35 H     1.0000    0     1.008    1.451829    3.092641    1.363634
  36 H     1.0000    0     1.008   12.419452   -2.375968    2.645421

--------------------------------
INTERNAL COORDINATES (ANGSTROEM)
--------------------------------
 C      0   0   0     0.000000000000     0.00000000     0.00000000
 C      1   0   0     1.404979718571     0.00000000     0.00000000
 C      2   1   0     1.404660305356   120.27980256     0.00000000
 C      3   2   1     1.411116056215   120.28535225   359.64995683
 C      4   3   2     1.412509643553   119.06784493   359.71621915
 C      5   4   3     1.403155738188   120.54456505     0.91899197
 P      4   3   2     1.851487752250   124.02226904   178.95471959
 C      7   4   3     1.850985285670   101.27667291   269.29851396
 C      8   7   4     1.410596127885   123.89834634    11.21292451
 C      9   8   7     1.404635666346   120.26139336   179.45918650
 C     10   9   8     1.404963225020   120.30751089   359.71662686
 C     11  10   9     1.405735240356   119.76957388     0.42699262
 C     12  11  10     1.403231016862   120.02197964     0.23545902
 C      7   4   3     1.851168504211   100.68805341    13.06116959
 C     14   7   4     1.414605981976   117.03832174    78.99354633
 C     15  14   7     1.398920311884   120.77276677   179.91923702
 C     16  15  14     1.412172267668   119.93238595   359.01156254
 C     17  16  15     1.409555175361   119.52774490     0.24314391
 C     18  17  16     1.400403639597   120.43037521     0.37125280
 C     17  16  15     1.491166725061   122.39096914   180.30354452
 O     20  17  16     1.220852578890   124.94898672   180.02213117
 O     20  17  16     1.362749010865   112.80451038   359.95148400
 H      1   2   3     1.100786469449   120.11506149   180.07387106
 H      2   1   3     1.101067299982   120.08428047   179.70521222
 H      3   2   1     1.100248873771   119.92435142   179.38983897
 H      5   4   3     1.102046172009   119.43870893   180.75962200
 H      6   5   4     1.100936409786   119.82331130   179.68423071
 H      9   8   7     1.100255362106   119.77002246   359.68708223
 H     10   9   8     1.101084945854   119.63816341   179.95073544
 H     11  10   9     1.100782258557   120.13281162   180.11795437
 H     12  11  10     1.100922964415   120.15211736   179.64145965
 H     13  12  11     1.102207802173   119.96210685   179.16051976
 H     15  14   7     1.101947186763   119.51196054   359.58552492
 H     16  15  14     1.098821712245   120.57731809   179.50737036
 H     18  17  16     1.100125622963   118.34937473   179.90688938
 H     19  18  17     1.099877332438   119.87613175   179.29458541
 H     22  20  17     0.981721096604   105.11862211   179.98529344

---------------------------
INTERNAL COORDINATES (A.U.)
---------------------------
 C      0   0   0     0.000000000000     0.00000000     0.00000000
 C      1   0   0     2.655026891813     0.00000000     0.00000000
 C      2   1   0     2.654423288314   120.27980256     0.00000000
 C      3   2   1     2.666622889426   120.28535225   359.64995683
 C      4   3   2     2.669256387839   119.06784493   359.71621915
 C      5   4   3     2.651580068415   120.54456505     0.91899197
 P      4   3   2     3.498804792061   124.02226904   178.95471959
 C      7   4   3     3.497855267835   101.27667291   269.29851396
 C      8   7   4     2.665640367272   123.89834634    11.21292451
 C      9   8   7     2.654376727333   120.26139336   179.45918650
 C     10   9   8     2.654995723518   120.30751089   359.71662686
 C     11  10   9     2.656454621074   119.76957388     0.42699262
 C     12  11  10     2.651722324493   120.02197964     0.23545902
 C      7   4   3     3.498201500699   100.68805341    13.06116959
 C     14   7   4     2.673217893342   117.03832174    78.99354633
 C     15  14   7     2.643576272641   120.77276677   179.91923702
 C     16  15  14     2.668618839810   119.93238595   359.01156254
 C     17  16  15     2.663673252083   119.52774490     0.24314391
 C     18  17  16     2.646379355785   120.43037521     0.37125280
 C     17  16  15     2.817896730381   122.39096914   180.30354452
 O     20  17  16     2.307077023993   124.94898672   180.02213117
 O     20  17  16     2.575222419807   112.80451038   359.95148400
 H      1   2   3     2.080184959185   120.11506149   180.07387106
 H      2   1   3     2.080715651983   120.08428047   179.70521222
 H      3   2   1     2.079169050582   119.92435142   179.38983897
 H      5   4   3     2.082565452034   119.43870893   180.75962200
 H      6   5   4     2.080468305358   119.82331130   179.68423071
 H      9   8   7     2.079181311759   119.77002246   359.68708223
 H     10   9   8     2.080748997847   119.63816341   179.95073544
 H     11  10   9     2.080177001752   120.13281162   180.11795437
 H     12  11  10     2.080442897289   120.15211736   179.64145965
 H     13  12  11     2.082870888778   119.96210685   179.16051976
 H     15  14   7     2.082378397028   119.51196054   359.58552492
 H     16  15  14     2.076472106150   120.57731809   179.50737036
 H     18  17  16     2.078936140309   118.34937473   179.90688938
 H     19  18  17     2.078466939216   119.87613175   179.29458541
 H     22  20  17     1.855184012474   105.11862211   179.98529344

---------------------
BASIS SET INFORMATION
---------------------
There are 4 groups of distinct atoms

 Group   1 Type C   : 11s6p2d1f contracted to 5s3p2d1f pattern {62111/411/11/1}
 Group   2 Type P   : 14s9p3d1f contracted to 5s5p2d1f pattern {73211/51111/21/1}
 Group   3 Type O   : 11s6p2d1f contracted to 5s3p2d1f pattern {62111/411/11/1}
 Group   4 Type H   : 5s1p contracted to 3s1p pattern {311/1}

Atom   0C    basis set group =>   1
Atom   1C    basis set group =>   1
Atom   2C    basis set group =>   1
Atom   3C    basis set group =>   1
Atom   4C    basis set group =>   1
Atom   5C    basis set group =>   1
Atom   6P    basis set group =>   2
Atom   7C    basis set group =>   1
Atom   8C    basis set group =>   1
Atom   9C    basis set group =>   1
Atom  10C    basis set group =>   1
Atom  11C    basis set group =>   1
Atom  12C    basis set group =>   1
Atom  13C    basis set group =>   1
Atom  14C    basis set group =>   1
Atom  15C    basis set group =>   1
Atom  16C    basis set group =>   1
Atom  17C    basis set group =>   1
Atom  18C    basis set group =>   1
Atom  19C    basis set group =>   1
Atom  20O    basis set group =>   3
Atom  21O    basis set group =>   3
Atom  22H    basis set group =>   4
Atom  23H    basis set group =>   4
Atom  24H    basis set group =>   4
Atom  25H    basis set group =>   4
Atom  26H    basis set group =>   4
Atom  27H    basis set group =>   4
Atom  28H    basis set group =>   4
Atom  29H    basis set group =>   4
Atom  30H    basis set group =>   4
Atom  31H    basis set group =>   4
Atom  32H    basis set group =>   4
Atom  33H    basis set group =>   4
Atom  34H    basis set group =>   4
Atom  35H    basis set group =>   4
Atom  36H    basis set group =>   4
---------------------------------
AUXILIARY/J BASIS SET INFORMATION
---------------------------------
There are 4 groups of distinct atoms

 Group   1 Type C   : 12s5p4d2f1g contracted to 6s4p3d1f1g pattern {711111/2111/211/2/1}
 Group   2 Type P   : 14s5p5d2f1g contracted to 8s4p3d1f1g pattern {71111111/2111/311/2/1}
 Group   3 Type O   : 12s5p4d2f1g contracted to 6s4p3d1f1g pattern {711111/2111/211/2/1}
 Group   4 Type H   : 5s2p1d contracted to 3s1p1d pattern {311/2/1}

Atom   0C    basis set group =>   1
Atom   1C    basis set group =>   1
Atom   2C    basis set group =>   1
Atom   3C    basis set group =>   1
Atom   4C    basis set group =>   1
Atom   5C    basis set group =>   1
Atom   6P    basis set group =>   2
Atom   7C    basis set group =>   1
Atom   8C    basis set group =>   1
Atom   9C    basis set group =>   1
Atom  10C    basis set group =>   1
Atom  11C    basis set group =>   1
Atom  12C    basis set group =>   1
Atom  13C    basis set group =>   1
Atom  14C    basis set group =>   1
Atom  15C    basis set group =>   1
Atom  16C    basis set group =>   1
Atom  17C    basis set group =>   1
Atom  18C    basis set group =>   1
Atom  19C    basis set group =>   1
Atom  20O    basis set group =>   3
Atom  21O    basis set group =>   3
Atom  22H    basis set group =>   4
Atom  23H    basis set group =>   4
Atom  24H    basis set group =>   4
Atom  25H    basis set group =>   4
Atom  26H    basis set group =>   4
Atom  27H    basis set group =>   4
Atom  28H    basis set group =>   4
Atom  29H    basis set group =>   4
Atom  30H    basis set group =>   4
Atom  31H    basis set group =>   4
Atom  32H    basis set group =>   4
Atom  33H    basis set group =>   4
Atom  34H    basis set group =>   4
Atom  35H    basis set group =>   4
Atom  36H    basis set group =>   4


           ************************************************************
           *        Program running with 6 parallel MPI-processes     *
           *              working on a common directory               *
           ************************************************************
------------------------------------------------------------------------------
                             ORCA STARTUP CALCULATIONS
                           -- RI-GTO INTEGRALS CHOSEN --
------------------------------------------------------------------------------
------------------------------------------------------------------------------
                   ___                                                        
                  /   \      - P O W E R E D   B Y -                         
                 /     \                                                     
                 |  |  |   _    _      __       _____    __    __             
                 |  |  |  | |  | |    /  \     |  _  \  |  |  /  |          
                  \  \/   | |  | |   /    \    | | | |  |  | /  /          
                 / \  \   | |__| |  /  /\  \   | |_| |  |  |/  /          
                |  |  |   |  __  | /  /__\  \  |    /   |      \           
                |  |  |   | |  | | |   __   |  |    \   |  |\   \          
                \     /   | |  | | |  |  |  |  | |\  \  |  | \   \       
                 \___/    |_|  |_| |__|  |__|  |_| \__\ |__|  \__/        
                                                                              
                      - O R C A' S   B I G   F R I E N D -                    
                                      &                                       
                       - I N T E G R A L  F E E D E R -                       
                                                                              
 v1 FN, 2020, v2 2021, v3 2022-2024                                           
------------------------------------------------------------------------------


----------------------
SHARK INTEGRAL PACKAGE
----------------------

Number of atoms                             ...     37
Number of basis functions                   ...    778
Number of shells                            ...    304
Maximum angular momentum                    ...      3
Integral batch strategy                     ... SHARK/LIBINT Hybrid
RI-J (if used) integral strategy            ... SPLIT-RIJ (Revised 2003 algorithm where possible)
Printlevel                                  ...      1
Contraction scheme used                     ... SEGMENTED contraction
Prescreening option                         ... SCHWARTZ
   Thresh                                   ... 1.000e-10
   Tcut                                     ... 1.000e-11
   Tpresel                                  ... 1.000e-11 
Coulomb Range Separation                    ... NOT USED
Exchange Range Separation                   ... NOT USED
Multipole approximations                    ... NOT USED
Finite Nucleus Model                        ... NOT USED
CABS basis                                  ... NOT available
Auxiliary Coulomb fitting basis             ... AVAILABLE
   # of basis functions in Aux-J            ...   1245
   # of shells in Aux-J                     ...    407
   Maximum angular momentum in Aux-J        ...      4
Auxiliary J/K fitting basis                 ... NOT available
Auxiliary Correlation fitting basis         ... NOT available
Auxiliary 'external' fitting basis          ... NOT available

Checking pre-screening integrals            ... done (  0.0 sec) Dimension = 304
Check shell pair data                       ... done (  0.0 sec)
Shell pair information
Shell pair cut-off parameter TPreSel        ...   1.0e-11
Total number of shell pairs                 ...     46360
Shell pairs after pre-screening             ...     31535
Total number of primitive shell pairs       ...    144996
Primitive shell pairs kept                  ...     64670
          la=0 lb=0:   7859 shell pairs
          la=1 lb=0:   9153 shell pairs
          la=1 lb=1:   2681 shell pairs
          la=2 lb=0:   4470 shell pairs
          la=2 lb=1:   2634 shell pairs
          la=2 lb=2:    664 shell pairs
          la=3 lb=0:   2088 shell pairs
          la=3 lb=1:   1239 shell pairs
          la=3 lb=2:    598 shell pairs
          la=3 lb=3:    149 shell pairs

Calculating one electron integrals          ... done (  0.1 sec)
Calculating RI/J V-Matrix + Cholesky decomp.... done (  0.1 sec)
Calculating Nuclear repulsion               ... done (  0.0 sec) ENN=   1745.018880922286 Eh

Diagonalization of the overlap matrix:
Smallest eigenvalue                        ... 7.111e-06
Time for diagonalization                   ...    0.117 sec
Threshold for overlap eigenvalues          ... 1.000e-07
Number of eigenvalues below threshold      ... 0
Time for construction of square roots      ...    0.057 sec
Total time needed                          ...    0.180 sec

-------------------
DFT GRID GENERATION
-------------------

General Integration Accuracy     IntAcc      ... 4.388
Radial Grid Type                 RadialGrid  ... OptM3 with GC (2021)
Angular Grid (max. ang.)         AngularGrid ... 4 (Lebedev-302)
Angular grid pruning method      GridPruning ... 4 (adaptive)
Weight generation scheme         WeightScheme... mBecke (2022)
Basis function cutoff            BFCut       ... 1.0000e-10
Integration weight cutoff        WCut        ... 1.0000e-14
Partially contracted basis set               ... off
Rotationally invariant grid construction     ... off
Angular grids for H and He will be reduced by one unit

Total number of grid points                  ...   180859
Total number of batches                      ...     2843
Average number of points per batch           ...       63
Average number of grid points per atom       ...     4888

--------------------
COSX GRID GENERATION
--------------------

GRIDX 1
-------
General Integration Accuracy     IntAcc      ... 3.816
Radial Grid Type                 RadialGrid  ... OptM3 with GC (2021)
Angular Grid (max. ang.)         AngularGrid ... 1 (Lebedev-50)
Angular grid pruning method      GridPruning ... 4 (adaptive)
Weight generation scheme         WeightScheme... mBecke (2022)
Basis function cutoff            BFCut       ... 1.0000e-10
Integration weight cutoff        WCut        ... 1.0000e-14
Partially contracted basis set               ... on
Rotationally invariant grid construction     ... off
Angular grids for H and He will be reduced by one unit

Total number of grid points                  ...    23970
Total number of batches                      ...      200
Average number of points per batch           ...      119
Average number of grid points per atom       ...      648
UseSFitting                                  ... on

GRIDX 2
-------
General Integration Accuracy     IntAcc      ... 4.020
Radial Grid Type                 RadialGrid  ... OptM3 with GC (2021)
Angular Grid (max. ang.)         AngularGrid ... 2 (Lebedev-110)
Angular grid pruning method      GridPruning ... 4 (adaptive)
Weight generation scheme         WeightScheme... mBecke (2022)
Basis function cutoff            BFCut       ... 1.0000e-10
Integration weight cutoff        WCut        ... 1.0000e-14
Partially contracted basis set               ... on
Rotationally invariant grid construction     ... off
Angular grids for H and He will be reduced by one unit

Total number of grid points                  ...    50140
Total number of batches                      ...      412
Average number of points per batch           ...      121
Average number of grid points per atom       ...     1355
UseSFitting                                  ... on

GRIDX 3
-------
General Integration Accuracy     IntAcc      ... 4.338
Radial Grid Type                 RadialGrid  ... OptM3 with GC (2021)
Angular Grid (max. ang.)         AngularGrid ... 3 (Lebedev-194)
Angular grid pruning method      GridPruning ... 4 (adaptive)
Weight generation scheme         WeightScheme... mBecke (2022)
Basis function cutoff            BFCut       ... 1.0000e-10
Integration weight cutoff        WCut        ... 1.0000e-14
Partially contracted basis set               ... on
Rotationally invariant grid construction     ... off
Angular grids for H and He will be reduced by one unit

Total number of grid points                  ...   110146
Total number of batches                      ...      879
Average number of points per batch           ...      125
Average number of grid points per atom       ...     2977
UseSFitting                                  ... on
Initializing property integral containers    ... done (  0.0 sec)

SHARK setup successfully completed in   4.1 seconds

Maximum memory used throughout the entire STARTUP-calculation: 74.0 MB


           ************************************************************
           *        Program running with 6 parallel MPI-processes     *
           *              working on a common directory               *
           ************************************************************
-------------------------------------------------------------------------------
                                 ORCA GUESS
                   Start orbitals & Density for SCF / CASSCF
-------------------------------------------------------------------------------

------------
SCF SETTINGS
------------
Hamiltonian:
 Density Functional     Method          .... DFT(GTOs)
 Exchange Functional    Exchange        .... M062X
 Correlation Functional Correlation     .... M062X
 Gradients option       PostSCFGGA      .... off
 Hybrid DFT is turned on
   Fraction HF Exchange ScalHFX         ....  0.540000
   Scaling of DF-GGA-X  ScalDFX         ....  0.460000
   Scaling of DF-GGA-C  ScalDFC         ....  1.000000
   Scaling of DF-LDA-C  ScalLDAC        ....  1.000000
   Perturbative correction              ....  0.000000
 RI-approximation to the Coulomb term is turned on
   Number of AuxJ basis functions       .... 1245
   RIJ-COSX (HFX calculated with COS-X)).... on


General Settings:
 Integral files         IntName         .... data/single_point_P_M06-2x/627824/627824
 Hartree-Fock type      HFTyp           .... RHF
 Total Charge           Charge          ....    0
 Multiplicity           Mult            ....    1
 Number of Electrons    NEL             ....  160
 Basis Dimension        Dim             ....  778
 Nuclear Repulsion      ENuc            ....   1745.0188809223 Eh

Convergence Acceleration:
 AO-DIIS                CNVDIIS         .... on
   Start iteration      DIISMaxIt       ....    12
   Startup error        DIISStart       ....  0.200000
   # of expansion vecs  DIISMaxEq       ....     5
   Bias factor          DIISBfac        ....   1.050
   Max. coefficient     DIISMaxC        ....  10.000
 MO-DIIS                CNVKDIIS        .... off
 Trust-Rad. Augm. Hess. CNVTRAH         .... auto
   Auto Start mean grad. ratio tolernc. ....  1.125000
   Auto Start start iteration           ....    50
   Auto Start num. interpolation iter.  ....    10
   Max. Number of Micro iterations      ....    24
   Max. Number of Macro iterations      .... Maxiter - #DIIS iter
   Number of Davidson start vectors     ....     2
   Converg. threshold    (grad. norm)   ....   5.000e-05
   Grad. Scal. Fac. for Micro threshold ....   0.100
   Minimum threshold for Micro iter.    ....   1.000e-02
   NR start threshold (gradient norm)   ....   1.000e-04
   Initial trust radius                 ....   0.400
   Minimum AH scaling param. (alpha)    ....   1.000
   Maximum AH scaling param. (alpha)    .... 1000.000
   Quad. conv. algorithm                .... NR
   White noise on init. David. guess    .... on
   Maximum white noise                  ....   0.010
   Pseudo random numbers                .... off
   Inactive MOs                         .... canonical
   Orbital update algorithm             .... Taylor
   Preconditioner                       .... Diag
   Full preconditioner red. dimension   ....   250
 SOSCF                  CNVSOSCF        .... on
   Start iteration      SOSCFMaxIt      ....   150
   Startup grad/error   SOSCFStart      ....  0.003300
   Hessian update       SOSCFHessUp     .... L-BFGS
 Level Shifting         CNVShift        .... on
   Level shift para.    LevelShift      ....    0.2500
   Turn off err/grad.   ShiftErr        ....    0.0010
 Zerner damping         CNVZerner       .... off
 Static damping         CNVDamp         .... on
   Fraction old density DampFac         ....    0.7000
   Max. Damping (<1)    DampMax         ....    0.9800
   Min. Damping (>=0)   DampMin         ....    0.0000
   Turn off err/grad.   DampErr         ....    0.1000

SCF Procedure:
 Maximum # iterations   MaxIter         ....   125
 SCF integral mode      SCFMode         .... Direct
   Integral package                     .... SHARK and LIBINT hybrid scheme
 Reset frequency        DirectResetFreq ....    20
 Integral Threshold     Thresh          ....  1.000e-10 Eh
 Primitive CutOff       TCut            ....  1.000e-11 Eh

Convergence Tolerance:
 Convergence Check Mode ConvCheckMode   .... Total+1el-Energy
 Convergence forced     ConvForced      .... 0
 Energy Change          TolE            ....  1.000e-06 Eh
 1-El. energy change                    ....  1.000e-03 Eh
 Orbital Gradient       TolG            ....  5.000e-05
 Orbital Rotation angle TolX            ....  5.000e-05
 DIIS Error             TolErr          ....  1.000e-05

------------------------------
INITIAL GUESS: MODEL POTENTIAL
------------------------------
Loading Hartree-Fock densities                     ... done
Calculating cut-offs                               ... done
Initializing the effective Hamiltonian             ... done
Setting up the integral package (SHARK)            ... done
Starting the Coulomb interaction                   ... done (   0.5 sec)
Making the grid                                    ... done (   0.3 sec)
Mapping shells                                     ... done
Starting the XC term evaluation                    ... done (   0.5 sec)
  promolecular density results
     # of electrons  =    159.987495599
     EX              =   -140.303019932
     EC              =     -5.407552438
     EX+EC           =   -145.710572370
Transforming the Hamiltonian                       ... done (   0.1 sec)
Diagonalizing the Hamiltonian                      ... done (   0.1 sec)
Back transforming the eigenvectors                 ... done (   0.0 sec)
Now organizing SCF variables                       ... done
                      ------------------
                      INITIAL GUESS DONE (   1.6 sec)
                      ------------------
             **** ENERGY FILE WAS UPDATED (data/single_point_P_M06-2x/627824/627824.en.tmp) ****
Finished Guess after   1.9 sec
Maximum memory used throughout the entire GUESS-calculation: 56.9 MB


           ************************************************************
           *        Program running with 6 parallel MPI-processes     *
           *              working on a common directory               *
           ************************************************************

-------------------------------------------------------------------------------------------
                                      ORCA LEAN-SCF
                              memory conserving SCF solver
-------------------------------------------------------------------------------------------

----------------------------------------D-I-I-S--------------------------------------------
Iteration    Energy (Eh)           Delta-E    RMSDP     MaxDP     DIISErr   Damp  Time(sec)
-------------------------------------------------------------------------------------------
               ***  Starting incremental Fock matrix formation  ***
    1    -1224.3005011313459818     0.00e+00  1.25e-03  7.58e-02  2.70e-01  0.700  16.0
    2    -1224.5277389127043079    -2.27e-01  1.01e-03  7.86e-02  1.23e-01  0.700   9.1
                               ***Turning on AO-DIIS***
    3    -1224.6340340093922805    -1.06e-01  6.67e-04  2.53e-02  4.59e-02  0.700   8.8
    4    -1224.6972080006696615    -6.32e-02  1.55e-03  6.10e-02  3.19e-02  0.000   8.3
    5    -1224.8334659391136938    -1.36e-01  1.42e-04  1.68e-02  4.70e-03  0.000   8.9
                              *** Initializing SOSCF ***
---------------------------------------S-O-S-C-F--------------------------------------
Iteration    Energy (Eh)           Delta-E    RMSDP     MaxDP     MaxGrad    Time(sec)
--------------------------------------------------------------------------------------
    6    -1224.8338207371400586    -3.55e-04  5.57e-05  6.85e-03  7.67e-04     7.8
               *** Restarting incremental Fock matrix formation ***
    7    -1224.8338262357144686    -5.50e-06  1.06e-04  5.13e-03  5.40e-04    15.8
    8    -1224.8338384687565394    -1.22e-05  5.56e-05  3.10e-03  1.58e-04    11.4
    9    -1224.8338400890318098    -1.62e-06  4.41e-05  2.15e-03  1.17e-04    10.9
   10    -1224.8338417513016338    -1.66e-06  6.30e-06  2.86e-04  2.36e-05    10.5
   11    -1224.8338418486348473    -9.73e-08  3.72e-06  1.74e-04  3.48e-05     8.8
                 **** Energy Check signals convergence ****

               *****************************************************
               *                     SUCCESS                       *
               *           SCF CONVERGED AFTER  11 CYCLES          *
               *****************************************************

Recomputing exchange energy using gridx3       ... done (   23.861 sec)
Old exchange energy                            :    -77.092826330 Eh
New exchange energy                            :    -77.092751013 Eh
Exchange energy change after final integration :      0.000075317 Eh
Total energy after final integration           :  -1224.833766531 Eh
             **** ENERGY FILE WAS UPDATED (data/single_point_P_M06-2x/627824/627824.en.tmp) ****

----------------
TOTAL SCF ENERGY
----------------

Total Energy       :      -1224.83376653140340 Eh          -33329.42122 eV

Components:
Nuclear Repulsion  :       1745.01888092228614 Eh           47484.37781 eV
Electronic Energy  :      -2969.85272277092099 Eh          -80813.80108 eV
One Electron Energy:      -5137.64657930114390 Eh         -139802.47084 eV
Two Electron Energy:       2167.79385653022291 Eh           58988.66976 eV

Virial components:
Potential Energy   :      -2443.59997925377775 Eh          -66493.73591 eV
Kinetic Energy     :       1218.76621272237435 Eh           33164.31469 eV
Virial Ratio       :          2.00497843946254

DFT components:
N(Alpha)           :       79.999931480885 electrons
N(Beta)            :       79.999931480885 electrons
N(Total)           :      159.999862961771 electrons
E(XC)              :      -71.570017608450 Eh       

---------------
SCF CONVERGENCE
---------------

  Last Energy change         ...    9.7333e-08  Tolerance :   1.0000e-06
  Last MAX-Density change    ...    1.7371e-04  Tolerance :   1.0000e-05
  Last RMS-Density change    ...    3.7240e-06  Tolerance :   1.0000e-06
  Last DIIS Error            ...    7.6733e-04  Tolerance :   1.0000e-05
  Last Orbital Gradient      ...    3.4822e-05  Tolerance :   5.0000e-05
  Last Orbital Rotation      ...    7.6464e-05  Tolerance :   5.0000e-05


----------------
ORBITAL ENERGIES
----------------

  NO   OCC          E(Eh)            E(eV) 
   0   2.0000     -78.039409     -2123.5603 
   1   2.0000     -19.679856      -535.5161 
   2   2.0000     -19.623096      -533.9716 
   3   2.0000     -10.686691      -290.7996 
   4   2.0000     -10.570801      -287.6461 
   5   2.0000     -10.569340      -287.6064 
   6   2.0000     -10.565814      -287.5104 
   7   2.0000     -10.562942      -287.4323 
   8   2.0000     -10.562228      -287.4128 
   9   2.0000     -10.561738      -287.3995 
  10   2.0000     -10.560608      -287.3688 
  11   2.0000     -10.559712      -287.3444 
  12   2.0000     -10.558144      -287.3017 
  13   2.0000     -10.557665      -287.2887 
  14   2.0000     -10.557390      -287.2812 
  15   2.0000     -10.556878      -287.2673 
  16   2.0000     -10.556786      -287.2648 
  17   2.0000     -10.556252      -287.2502 
  18   2.0000     -10.555903      -287.2407 
  19   2.0000     -10.555780      -287.2374 
  20   2.0000     -10.555694      -287.2350 
  21   2.0000     -10.555020      -287.2167 
  22   2.0000      -6.855540      -186.5487 
  23   2.0000      -4.970170      -135.2452 
  24   2.0000      -4.969751      -135.2338 
  25   2.0000      -4.969729      -135.2332 
  26   2.0000      -1.234392       -33.5895 
  27   2.0000      -1.138838       -30.9894 
  28   2.0000      -0.973753       -26.4972 
  29   2.0000      -0.963499       -26.2181 
  30   2.0000      -0.959216       -26.1016 
  31   2.0000      -0.882697       -24.0194 
  32   2.0000      -0.855741       -23.2859 
  33   2.0000      -0.853713       -23.2307 
  34   2.0000      -0.846829       -23.0434 
  35   2.0000      -0.846227       -23.0270 
  36   2.0000      -0.840479       -22.8706 
  37   2.0000      -0.764733       -20.8095 
  38   2.0000      -0.722458       -19.6591 
  39   2.0000      -0.703422       -19.1411 
  40   2.0000      -0.692901       -18.8548 
  41   2.0000      -0.691651       -18.8208 
  42   2.0000      -0.680820       -18.5260 
  43   2.0000      -0.668889       -18.2014 
  44   2.0000      -0.639849       -17.4112 
  45   2.0000      -0.608484       -16.5577 
  46   2.0000      -0.594659       -16.1815 
  47   2.0000      -0.585682       -15.9372 
  48   2.0000      -0.578664       -15.7462 
  49   2.0000      -0.539213       -14.6727 
  50   2.0000      -0.538152       -14.6439 
  51   2.0000      -0.532428       -14.4881 
  52   2.0000      -0.528779       -14.3888 
  53   2.0000      -0.523453       -14.2439 
  54   2.0000      -0.520043       -14.1511 
  55   2.0000      -0.517834       -14.0910 
  56   2.0000      -0.510662       -13.8958 
  57   2.0000      -0.497602       -13.5404 
  58   2.0000      -0.492991       -13.4150 
  59   2.0000      -0.491923       -13.3859 
  60   2.0000      -0.477975       -13.0064 
  61   2.0000      -0.475793       -12.9470 
  62   2.0000      -0.450998       -12.2723 
  63   2.0000      -0.443703       -12.0738 
  64   2.0000      -0.442610       -12.0440 
  65   2.0000      -0.436539       -11.8788 
  66   2.0000      -0.412368       -11.2211 
  67   2.0000      -0.410295       -11.1647 
  68   2.0000      -0.408854       -11.1255 
  69   2.0000      -0.403580       -10.9820 
  70   2.0000      -0.389929       -10.6105 
  71   2.0000      -0.381877       -10.3914 
  72   2.0000      -0.364607        -9.9215 
  73   2.0000      -0.343368        -9.3435 
  74   2.0000      -0.324390        -8.8271 
  75   2.0000      -0.321965        -8.7611 
  76   2.0000      -0.319427        -8.6921 
  77   2.0000      -0.313821        -8.5395 
  78   2.0000      -0.311655        -8.4806 
  79   2.0000      -0.274239        -7.4624 
  80   0.0000      -0.036256        -0.9866 
  81   0.0000      -0.008401        -0.2286 
  82   0.0000      -0.006508        -0.1771 
  83   0.0000       0.005302         0.1443 
  84   0.0000       0.015481         0.4213 
  85   0.0000       0.017246         0.4693 
  86   0.0000       0.060934         1.6581 
  87   0.0000       0.065213         1.7745 
  88   0.0000       0.071310         1.9404 
  89   0.0000       0.078314         2.1310 
  90   0.0000       0.081826         2.2266 
*Only the first 10 virtual orbitals were printed.

                    ********************************
                    * MULLIKEN POPULATION ANALYSIS *
                    ********************************

-----------------------
MULLIKEN ATOMIC CHARGES
-----------------------
   0 C :   -0.135407
   1 C :   -0.154830
   2 C :   -0.145699
   3 C :   -0.099729
   4 C :   -0.135811
   5 C :   -0.148644
   6 P :    0.133875
   7 C :   -0.099146
   8 C :   -0.127995
   9 C :   -0.159565
  10 C :   -0.134332
  11 C :   -0.142291
  12 C :   -0.151428
  13 C :   -0.087014
  14 C :   -0.151373
  15 C :   -0.168946
  16 C :   -0.001163
  17 C :   -0.192679
  18 C :   -0.102787
  19 C :    0.353172
  20 O :   -0.347156
  21 O :   -0.421248
  22 H :    0.148415
  23 H :    0.149282
  24 H :    0.183666
  25 H :    0.156655
  26 H :    0.147992
  27 H :    0.185169
  28 H :    0.147973
  29 H :    0.147867
  30 H :    0.148299
  31 H :    0.157894
  32 H :    0.160456
  33 H :    0.174832
  34 H :    0.181878
  35 H :    0.186857
  36 H :    0.342962
Sum of atomic charges:   -0.0000000

--------------------------------
MULLIKEN REDUCED ORBITAL CHARGES
--------------------------------
  0 C s       :     3.224653  s :     3.224653
      pz      :     0.920857  p :     2.843357
      px      :     0.939637
      py      :     0.982862
      dz2     :     0.016520  d :     0.061107
      dxz     :     0.010236
      dyz     :     0.011918
      dx2y2   :     0.009132
      dxy     :     0.013302
      f0      :     0.000961  f :     0.006290
      f+1     :     0.001116
      f-1     :     0.000629
      f+2     :     0.000996
      f-2     :     0.001166
      f+3     :     0.000849
      f-3     :     0.000573

  1 C s       :     3.231258  s :     3.231258
      pz      :     1.001156  p :     2.856917
      px      :     0.909673
      py      :     0.946088
      dz2     :     0.008867  d :     0.060376
      dxz     :     0.011955
      dyz     :     0.011428
      dx2y2   :     0.018727
      dxy     :     0.009399
      f0      :     0.000285  f :     0.006278
      f+1     :     0.001099
      f-1     :     0.000917
      f+2     :     0.000830
      f-2     :     0.001107
      f+3     :     0.000937
      f-3     :     0.001102

  2 C s       :     3.201426  s :     3.201426
      pz      :     0.886701  p :     2.872042
      px      :     1.027021
      py      :     0.958320
      dz2     :     0.015041  d :     0.065757
      dxz     :     0.014583
      dyz     :     0.011574
      dx2y2   :     0.014617
      dxy     :     0.009942
      f0      :     0.000978  f :     0.006474
      f+1     :     0.000652
      f-1     :     0.001006
      f+2     :     0.001149
      f-2     :     0.001127
      f+3     :     0.000577
      f-3     :     0.000986

  3 C s       :     3.247424  s :     3.247424
      pz      :     0.876986  p :     2.768785
      px      :     0.959055
      py      :     0.932744
      dz2     :     0.021163  d :     0.076546
      dxz     :     0.012328
      dyz     :     0.013710
      dx2y2   :     0.014877
      dxy     :     0.014468
      f0      :     0.000966  f :     0.006974
      f+1     :     0.001199
      f-1     :     0.000899
      f+2     :     0.001117
      f-2     :     0.001206
      f+3     :     0.000819
      f-3     :     0.000768

  4 C s       :     3.198136  s :     3.198136
      pz      :     0.992964  p :     2.867036
      px      :     0.930245
      py      :     0.943828
      dz2     :     0.009667  d :     0.064088
      dxz     :     0.012382
      dyz     :     0.012578
      dx2y2   :     0.019657
      dxy     :     0.009804
      f0      :     0.000280  f :     0.006550
      f+1     :     0.001172
      f-1     :     0.000976
      f+2     :     0.000843
      f-2     :     0.001068
      f+3     :     0.001026
      f-3     :     0.001186

  5 C s       :     3.229040  s :     3.229040
      pz      :     0.928970  p :     2.852931
      px      :     1.000338
      py      :     0.923623
      dz2     :     0.015865  d :     0.060359
      dxz     :     0.013210
      dyz     :     0.007897
      dx2y2   :     0.012616
      dxy     :     0.010771
      f0      :     0.001002  f :     0.006314
      f+1     :     0.000686
      f-1     :     0.000975
      f+2     :     0.001047
      f-2     :     0.001092
      f+3     :     0.000563
      f-3     :     0.000950

  6 P s       :     5.750106  s :     5.750106
      pz      :     3.359202  p :     8.834336
      px      :     2.736914
      py      :     2.738219
      dz2     :     0.024748  d :     0.256255
      dxz     :     0.054404
      dyz     :     0.050980
      dx2y2   :     0.062969
      dxy     :     0.063155
      f0      :     0.002341  f :     0.025429
      f+1     :     0.002882
      f-1     :     0.002685
      f+2     :     0.005091
      f-2     :     0.005202
      f+3     :     0.003260
      f-3     :     0.003968

  7 C s       :     3.239562  s :     3.239562
      pz      :     0.902886  p :     2.775621
      px      :     0.957358
      py      :     0.915377
      dz2     :     0.021219  d :     0.076987
      dxz     :     0.006382
      dyz     :     0.018112
      dx2y2   :     0.012651
      dxy     :     0.018623
      f0      :     0.000893  f :     0.006975
      f+1     :     0.000983
      f-1     :     0.001046
      f+2     :     0.001186
      f-2     :     0.001175
      f+3     :     0.000851
      f-3     :     0.000842

  8 C s       :     3.186000  s :     3.186000
      pz      :     0.904997  p :     2.870470
      px      :     0.925968
      py      :     1.039505
      dz2     :     0.016480  d :     0.065079
      dxz     :     0.008420
      dyz     :     0.014782
      dx2y2   :     0.014721
      dxy     :     0.010676
      f0      :     0.000862  f :     0.006447
      f+1     :     0.000911
      f-1     :     0.000798
      f+2     :     0.001131
      f-2     :     0.001218
      f+3     :     0.000564
      f-3     :     0.000962

  9 C s       :     3.233674  s :     3.233674
      pz      :     0.992000  p :     2.859107
      px      :     0.982884
      py      :     0.884223
      dz2     :     0.007707  d :     0.060519
      dxz     :     0.007905
      dyz     :     0.016589
      dx2y2   :     0.010106
      dxy     :     0.018212
      f0      :     0.000304  f :     0.006265
      f+1     :     0.000796
      f-1     :     0.001154
      f+2     :     0.001131
      f-2     :     0.000839
      f+3     :     0.000926
      f-3     :     0.001116

 10 C s       :     3.224569  s :     3.224569
      pz      :     0.932213  p :     2.842417
      px      :     0.947536
      py      :     0.962668
      dz2     :     0.015574  d :     0.061060
      dxz     :     0.007508
      dyz     :     0.013382
      dx2y2   :     0.011427
      dxy     :     0.013169
      f0      :     0.000917  f :     0.006286
      f+1     :     0.000811
      f-1     :     0.000813
      f+2     :     0.001072
      f-2     :     0.001134
      f+3     :     0.000885
      f-3     :     0.000655

 11 C s       :     3.224584  s :     3.224584
      pz      :     0.925800  p :     2.850982
      px      :     0.936738
      py      :     0.988443
      dz2     :     0.017187  d :     0.060426
      dxz     :     0.006740
      dyz     :     0.012274
      dx2y2   :     0.014129
      dxy     :     0.010097
      f0      :     0.000882  f :     0.006299
      f+1     :     0.000914
      f-1     :     0.000803
      f+2     :     0.001128
      f-2     :     0.001084
      f+3     :     0.000557
      f-3     :     0.000930

 12 C s       :     3.207662  s :     3.207662
      pz      :     1.008312  p :     2.873072
      px      :     0.964373
      py      :     0.900387
      dz2     :     0.008771  d :     0.064161
      dxz     :     0.009357
      dyz     :     0.016553
      dx2y2   :     0.012033
      dxy     :     0.017447
      f0      :     0.000301  f :     0.006532
      f+1     :     0.000815
      f-1     :     0.001267
      f+2     :     0.001119
      f-2     :     0.000821
      f+3     :     0.001019
      f-3     :     0.001191

 13 C s       :     3.240009  s :     3.240009
      pz      :     0.887128  p :     2.760643
      px      :     0.937002
      py      :     0.936514
      dz2     :     0.021187  d :     0.079457
      dxz     :     0.018052
      dyz     :     0.007193
      dx2y2   :     0.019510
      dxy     :     0.013515
      f0      :     0.000875  f :     0.006903
      f+1     :     0.000910
      f-1     :     0.001026
      f+2     :     0.000974
      f-2     :     0.001340
      f+3     :     0.000817
      f-3     :     0.000962

 14 C s       :     3.213201  s :     3.213201
      pz      :     1.009350  p :     2.869725
      px      :     0.910999
      py      :     0.949376
      dz2     :     0.008813  d :     0.061839
      dxz     :     0.013998
      dyz     :     0.011119
      dx2y2   :     0.013932
      dxy     :     0.013977
      f0      :     0.000367  f :     0.006608
      f+1     :     0.001227
      f-1     :     0.000776
      f+2     :     0.000799
      f-2     :     0.001206
      f+3     :     0.000977
      f-3     :     0.001257

 15 C s       :     3.237954  s :     3.237954
      pz      :     0.914564  p :     2.860562
      px      :     0.955864
      py      :     0.990134
      dz2     :     0.019741  d :     0.064015
      dxz     :     0.008550
      dyz     :     0.009847
      dx2y2   :     0.008933
      dxy     :     0.016944
      f0      :     0.000797  f :     0.006415
      f+1     :     0.001136
      f-1     :     0.000712
      f+2     :     0.001008
      f-2     :     0.001257
      f+3     :     0.000651
      f-3     :     0.000854

 16 C s       :     3.189226  s :     3.189226
      pz      :     0.926726  p :     2.734243
      px      :     0.861429
      py      :     0.946088
      dz2     :     0.016005  d :     0.069226
      dxz     :     0.017332
      dyz     :     0.007151
      dx2y2   :     0.019560
      dxy     :     0.009178
      f0      :     0.001052  f :     0.008468
      f+1     :     0.001179
      f-1     :     0.001005
      f+2     :     0.001411
      f-2     :     0.001571
      f+3     :     0.001016
      f-3     :     0.001235

 17 C s       :     3.244898  s :     3.244898
      pz      :     1.003327  p :     2.877690
      px      :     0.921325
      py      :     0.953038
      dz2     :     0.008317  d :     0.063679
      dxz     :     0.014402
      dyz     :     0.010571
      dx2y2   :     0.015182
      dxy     :     0.015207
      f0      :     0.000380  f :     0.006413
      f+1     :     0.001200
      f-1     :     0.000732
      f+2     :     0.000752
      f-2     :     0.001185
      f+3     :     0.000918
      f-3     :     0.001245

 18 C s       :     3.175306  s :     3.175306
      pz      :     0.902315  p :     2.857832
      px      :     0.983603
      py      :     0.971915
      dz2     :     0.016191  d :     0.063200
      dxz     :     0.012501
      dyz     :     0.008719
      dx2y2   :     0.009277
      dxy     :     0.016512
      f0      :     0.000774  f :     0.006449
      f+1     :     0.001134
      f-1     :     0.000685
      f+2     :     0.001078
      f-2     :     0.001298
      f+3     :     0.000615
      f-3     :     0.000865

 19 C s       :     3.012940  s :     3.012940
      pz      :     0.772509  p :     2.321694
      px      :     0.849893
      py      :     0.699291
      dz2     :     0.060116  d :     0.290111
      dxz     :     0.071897
      dyz     :     0.043318
      dx2y2   :     0.067917
      dxy     :     0.046863
      f0      :     0.002700  f :     0.022082
      f+1     :     0.003335
      f-1     :     0.003177
      f+2     :     0.003541
      f-2     :     0.003756
      f+3     :     0.002005
      f-3     :     0.003569

 20 O s       :     3.832004  s :     3.832004
      pz      :     1.350820  p :     4.482968
      px      :     1.673520
      py      :     1.458628
      dz2     :     0.009935  d :     0.030218
      dxz     :     0.004880
      dyz     :     0.007740
      dx2y2   :     0.003506
      dxy     :     0.004157
      f0      :     0.000394  f :     0.001966
      f+1     :     0.000182
      f-1     :     0.000450
      f+2     :     0.000334
      f-2     :     0.000335
      f+3     :     0.000156
      f-3     :     0.000115

 21 O s       :     3.799225  s :     3.799225
      pz      :     1.649391  p :     4.590836
      px      :     1.350359
      py      :     1.591087
      dz2     :     0.003666  d :     0.029519
      dxz     :     0.008848
      dyz     :     0.005571
      dx2y2   :     0.006221
      dxy     :     0.005213
      f0      :     0.000204  f :     0.001667
      f+1     :     0.000099
      f-1     :     0.000147
      f+2     :     0.000399
      f-2     :     0.000246
      f+3     :     0.000354
      f-3     :     0.000219

 22 H s       :     0.831923  s :     0.831923
      pz      :     0.004456  p :     0.019662
      px      :     0.006075
      py      :     0.009132

 23 H s       :     0.831034  s :     0.831034
      pz      :     0.010345  p :     0.019685
      px      :     0.003910
      py      :     0.005429

 24 H s       :     0.795857  s :     0.795857
      pz      :     0.005234  p :     0.020477
      px      :     0.010979
      py      :     0.004263

 25 H s       :     0.823410  s :     0.823410
      pz      :     0.010598  p :     0.019935
      px      :     0.003836
      py      :     0.005500

 26 H s       :     0.832308  s :     0.832308
      pz      :     0.005282  p :     0.019701
      px      :     0.010385
      py      :     0.004034

 27 H s       :     0.794170  s :     0.794170
      pz      :     0.004442  p :     0.020661
      px      :     0.003834
      py      :     0.012385

 28 H s       :     0.832337  s :     0.832337
      pz      :     0.009527  p :     0.019691
      px      :     0.007399
      py      :     0.002765

 29 H s       :     0.832452  s :     0.832452
      pz      :     0.004922  p :     0.019681
      px      :     0.005103
      py      :     0.009656

 30 H s       :     0.831984  s :     0.831984
      pz      :     0.004527  p :     0.019717
      px      :     0.003860
      py      :     0.011331

 31 H s       :     0.822191  s :     0.822191
      pz      :     0.009812  p :     0.019916
      px      :     0.007281
      py      :     0.002823

 32 H s       :     0.819503  s :     0.819503
      pz      :     0.009467  p :     0.020041
      px      :     0.003492
      py      :     0.007082

 33 H s       :     0.804953  s :     0.804953
      pz      :     0.003802  p :     0.020215
      px      :     0.008061
      py      :     0.008353

 34 H s       :     0.797799  s :     0.797799
      pz      :     0.009673  p :     0.020323
      px      :     0.003801
      py      :     0.006849

 35 H s       :     0.792317  s :     0.792317
      pz      :     0.004026  p :     0.020826
      px      :     0.008229
      py      :     0.008571

 36 H s       :     0.613879  s :     0.613879
      pz      :     0.014783  p :     0.043159
      px      :     0.017338
      py      :     0.011039



                     *******************************
                     * LOEWDIN POPULATION ANALYSIS *
                     *******************************

----------------------
LOEWDIN ATOMIC CHARGES
----------------------
   0 C :   -0.138612
   1 C :   -0.141276
   2 C :   -0.137815
   3 C :   -0.277439
   4 C :   -0.140893
   5 C :   -0.141506
   6 P :    0.705502
   7 C :   -0.278690
   8 C :   -0.134526
   9 C :   -0.140451
  10 C :   -0.138395
  11 C :   -0.142248
  12 C :   -0.143947
  13 C :   -0.261152
  14 C :   -0.136391
  15 C :   -0.089350
  16 C :   -0.129045
  17 C :   -0.075103
  18 C :   -0.130305
  19 C :   -0.434177
  20 O :    0.077837
  21 O :    0.073902
  22 H :    0.147949
  23 H :    0.148867
  24 H :    0.157534
  25 H :    0.150987
  26 H :    0.148633
  27 H :    0.158143
  28 H :    0.148684
  29 H :    0.147958
  30 H :    0.148690
  31 H :    0.151036
  32 H :    0.153957
  33 H :    0.158819
  34 H :    0.163304
  35 H :    0.160461
  36 H :    0.209056

-------------------------------
LOEWDIN REDUCED ORBITAL CHARGES
-------------------------------
  0 C s       :     2.779028  s :     2.779028
      pz      :     1.001765  p :     2.944929
      px      :     0.995770
      py      :     0.947394
      dz2     :     0.084733  d :     0.374122
      dxz     :     0.096347
      dyz     :     0.063873
      dx2y2   :     0.052344
      dxy     :     0.076825
      f0      :     0.005458  f :     0.040533
      f+1     :     0.008202
      f-1     :     0.005231
      f+2     :     0.007316
      f-2     :     0.004922
      f+3     :     0.004765
      f-3     :     0.004640

  1 C s       :     2.778489  s :     2.778489
      pz      :     0.961187  p :     2.946980
      px      :     1.011437
      py      :     0.974355
      dz2     :     0.066072  d :     0.375315
      dxz     :     0.071010
      dyz     :     0.065824
      dx2y2   :     0.085010
      dxy     :     0.087399
      f0      :     0.002341  f :     0.040493
      f+1     :     0.007870
      f-1     :     0.005177
      f+2     :     0.006895
      f-2     :     0.005197
      f+3     :     0.005067
      f-3     :     0.007945

  2 C s       :     2.776968  s :     2.776968
      pz      :     0.986568  p :     2.939021
      px      :     0.969503
      py      :     0.982950
      dz2     :     0.075739  d :     0.381259
      dxz     :     0.083585
      dyz     :     0.087755
      dx2y2   :     0.076051
      dxy     :     0.058129
      f0      :     0.005981  f :     0.040567
      f+1     :     0.005975
      f-1     :     0.006671
      f+2     :     0.006518
      f-2     :     0.005194
      f+3     :     0.004051
      f-3     :     0.006177

  3 C s       :     2.779359  s :     2.779359
      pz      :     1.024351  p :     2.997890
      px      :     0.999773
      py      :     0.973766
      dz2     :     0.098000  d :     0.455401
      dxz     :     0.110178
      dyz     :     0.092166
      dx2y2   :     0.069660
      dxy     :     0.085397
      f0      :     0.005637  f :     0.044790
      f+1     :     0.009001
      f-1     :     0.006473
      f+2     :     0.007838
      f-2     :     0.005497
      f+3     :     0.004793
      f-3     :     0.005551

  4 C s       :     2.777574  s :     2.777574
      pz      :     0.963297  p :     2.939990
      px      :     1.006878
      py      :     0.969816
      dz2     :     0.068851  d :     0.382653
      dxz     :     0.071560
      dyz     :     0.067602
      dx2y2   :     0.084192
      dxy     :     0.090450
      f0      :     0.002331  f :     0.040675
      f+1     :     0.007917
      f-1     :     0.005358
      f+2     :     0.006877
      f-2     :     0.005261
      f+3     :     0.005103
      f-3     :     0.007829

  5 C s       :     2.778223  s :     2.778223
      pz      :     0.997766  p :     2.947909
      px      :     0.966028
      py      :     0.984114
      dz2     :     0.075735  d :     0.374808
      dxz     :     0.083119
      dyz     :     0.084486
      dx2y2   :     0.074003
      dxy     :     0.057465
      f0      :     0.005918  f :     0.040567
      f+1     :     0.006090
      f-1     :     0.006635
      f+2     :     0.006525
      f-2     :     0.005294
      f+3     :     0.004002
      f-3     :     0.006102

  6 P s       :     4.927111  s :     4.927111
      pz      :     3.305965  p :     8.781431
      px      :     2.736798
      py      :     2.738667
      dz2     :     0.068635  d :     0.490941
      dxz     :     0.091163
      dyz     :     0.084483
      dx2y2   :     0.122324
      dxy     :     0.124335
      f0      :     0.006921  f :     0.095015
      f+1     :     0.010112
      f-1     :     0.008901
      f+2     :     0.018884
      f-2     :     0.019974
      f+3     :     0.015564
      f-3     :     0.014659

  7 C s       :     2.779598  s :     2.779598
      pz      :     1.006122  p :     2.998620
      px      :     0.952561
      py      :     1.039937
      dz2     :     0.088541  d :     0.455711
      dxz     :     0.061700
      dyz     :     0.131977
      dx2y2   :     0.077967
      dxy     :     0.095526
      f0      :     0.005471  f :     0.044761
      f+1     :     0.004931
      f-1     :     0.008593
      f+2     :     0.005559
      f-2     :     0.008164
      f+3     :     0.005588
      f-3     :     0.006454

  8 C s       :     2.776588  s :     2.776588
      pz      :     0.975433  p :     2.936646
      px      :     0.948918
      py      :     1.012295
      dz2     :     0.076902  d :     0.380677
      dxz     :     0.057860
      dyz     :     0.097298
      dx2y2   :     0.082516
      dxy     :     0.066101
      f0      :     0.005209  f :     0.040615
      f+1     :     0.005073
      f-1     :     0.006798
      f+2     :     0.004899
      f-2     :     0.007876
      f+3     :     0.004219
      f-3     :     0.006541

  9 C s       :     2.778426  s :     2.778426
      pz      :     0.951096  p :     2.946300
      px      :     0.929041
      py      :     1.066163
      dz2     :     0.054704  d :     0.375240
      dxz     :     0.048687
      dyz     :     0.089879
      dx2y2   :     0.095789
      dxy     :     0.086180
      f0      :     0.002419  f :     0.040485
      f+1     :     0.002508
      f-1     :     0.009575
      f+2     :     0.004803
      f-2     :     0.007128
      f+3     :     0.005475
      f-3     :     0.008577

 10 C s       :     2.778997  s :     2.778997
      pz      :     0.982665  p :     2.944796
      px      :     0.942786
      py      :     1.019346
      dz2     :     0.071761  d :     0.374068
      dxz     :     0.048986
      dyz     :     0.104964
      dx2y2   :     0.065162
      dxy     :     0.083194
      f0      :     0.005512  f :     0.040533
      f+1     :     0.004687
      f-1     :     0.006743
      f+2     :     0.005122
      f-2     :     0.007386
      f+3     :     0.005555
      f-3     :     0.005528

 11 C s       :     2.778243  s :     2.778243
      pz      :     0.988511  p :     2.948396
      px      :     0.953648
      py      :     1.006237
      dz2     :     0.077505  d :     0.375038
      dxz     :     0.056484
      dyz     :     0.095573
      dx2y2   :     0.081560
      dxy     :     0.063915
      f0      :     0.005167  f :     0.040572
      f+1     :     0.005056
      f-1     :     0.006899
      f+2     :     0.004895
      f-2     :     0.007961
      f+3     :     0.004158
      f-3     :     0.006436

 12 C s       :     2.777792  s :     2.777792
      pz      :     0.956015  p :     2.942476
      px      :     0.923744
      py      :     1.062717
      dz2     :     0.057426  d :     0.383014
      dxz     :     0.049705
      dyz     :     0.091852
      dx2y2   :     0.096756
      dxy     :     0.087276
      f0      :     0.002382  f :     0.040664
      f+1     :     0.002547
      f-1     :     0.009859
      f+2     :     0.004856
      f-2     :     0.007091
      f+3     :     0.005499
      f-3     :     0.008430

 13 C s       :     2.782501  s :     2.782501
      pz      :     0.990086  p :     2.976924
      px      :     1.012951
      py      :     0.973887
      dz2     :     0.086449  d :     0.457092
      dxz     :     0.114744
      dyz     :     0.076152
      dx2y2   :     0.102737
      dxy     :     0.077010
      f0      :     0.005602  f :     0.044635
      f+1     :     0.007433
      f-1     :     0.005231
      f+2     :     0.006095
      f-2     :     0.007458
      f+3     :     0.005605
      f-3     :     0.007210

 14 C s       :     2.775295  s :     2.775295
      pz      :     0.954945  p :     2.941936
      px      :     1.028488
      py      :     0.958502
      dz2     :     0.053843  d :     0.378586
      dxz     :     0.075174
      dyz     :     0.065141
      dx2y2   :     0.092976
      dxy     :     0.091452
      f0      :     0.002749  f :     0.040574
      f+1     :     0.008254
      f-1     :     0.003255
      f+2     :     0.005758
      f-2     :     0.006293
      f+3     :     0.005294
      f-3     :     0.008972

 15 C s       :     2.771175  s :     2.771175
      pz      :     0.961216  p :     2.906238
      px      :     1.004182
      py      :     0.940840
      dz2     :     0.083127  d :     0.371406
      dxz     :     0.086826
      dyz     :     0.052345
      dx2y2   :     0.053161
      dxy     :     0.095948
      f0      :     0.004933  f :     0.040530
      f+1     :     0.007214
      f-1     :     0.004686
      f+2     :     0.006887
      f-2     :     0.006069
      f+3     :     0.004416
      f-3     :     0.006324

 16 C s       :     2.717154  s :     2.717154
      pz      :     0.958518  p :     2.887921
      px      :     0.952891
      py      :     0.976512
      dz2     :     0.082991  d :     0.471878
      dxz     :     0.108316
      dyz     :     0.081625
      dx2y2   :     0.112316
      dxy     :     0.086629
      f0      :     0.006464  f :     0.052091
      f+1     :     0.008317
      f-1     :     0.005102
      f+2     :     0.008049
      f-2     :     0.008692
      f+3     :     0.006883
      f-3     :     0.008583

 17 C s       :     2.770354  s :     2.770354
      pz      :     0.938923  p :     2.893161
      px      :     1.012974
      py      :     0.941264
      dz2     :     0.050819  d :     0.371044
      dxz     :     0.076307
      dyz     :     0.062273
      dx2y2   :     0.090011
      dxy     :     0.091633
      f0      :     0.002794  f :     0.040544
      f+1     :     0.008242
      f-1     :     0.003198
      f+2     :     0.005572
      f-2     :     0.006323
      f+3     :     0.005377
      f-3     :     0.009038

 18 C s       :     2.774449  s :     2.774449
      pz      :     0.973856  p :     2.939159
      px      :     1.008610
      py      :     0.956692
      dz2     :     0.076713  d :     0.376202
      dxz     :     0.095061
      dyz     :     0.052906
      dx2y2   :     0.055508
      dxy     :     0.096015
      f0      :     0.004650  f :     0.040495
      f+1     :     0.007246
      f-1     :     0.004580
      f+2     :     0.006999
      f-2     :     0.006391
      f+3     :     0.004271
      f-3     :     0.006358

 19 C s       :     2.755727  s :     2.755727
      pz      :     0.878624  p :     2.607031
      px      :     0.907838
      py      :     0.820569
      dz2     :     0.176726  d :     0.924944
      dxz     :     0.209053
      dyz     :     0.173618
      dx2y2   :     0.193403
      dxy     :     0.172144
      f0      :     0.018590  f :     0.146475
      f+1     :     0.022350
      f-1     :     0.018767
      f+2     :     0.022237
      f-2     :     0.023303
      f+3     :     0.016791
      f-3     :     0.024437

 20 O s       :     3.411424  s :     3.411424
      pz      :     1.418669  p :     4.439779
      px      :     1.566646
      py      :     1.454464
      dz2     :     0.014898  d :     0.065200
      dxz     :     0.012452
      dyz     :     0.022036
      dx2y2   :     0.007642
      dxy     :     0.008172
      f0      :     0.000683  f :     0.005760
      f+1     :     0.000606
      f-1     :     0.001536
      f+2     :     0.001195
      f-2     :     0.001119
      f+3     :     0.000294
      f-3     :     0.000328

 21 O s       :     3.345729  s :     3.345729
      pz      :     1.600175  p :     4.510451
      px      :     1.330244
      py      :     1.580032
      dz2     :     0.006548  d :     0.065252
      dxz     :     0.017413
      dyz     :     0.010497
      dx2y2   :     0.016241
      dxy     :     0.014554
      f0      :     0.000395  f :     0.004666
      f+1     :     0.000437
      f-1     :     0.000445
      f+2     :     0.001162
      f-2     :     0.000734
      f+3     :     0.000724
      f-3     :     0.000770

 22 H s       :     0.796184  s :     0.796184
      pz      :     0.013814  p :     0.055867
      px      :     0.017553
      py      :     0.024500

 23 H s       :     0.795276  s :     0.795276
      pz      :     0.027326  p :     0.055857
      px      :     0.012596
      py      :     0.015935

 24 H s       :     0.784297  s :     0.784297
      pz      :     0.015700  p :     0.058169
      px      :     0.029038
      py      :     0.013431

 25 H s       :     0.792761  s :     0.792761
      pz      :     0.027830  p :     0.056252
      px      :     0.012249
      py      :     0.016173

 26 H s       :     0.795518  s :     0.795518
      pz      :     0.015765  p :     0.055849
      px      :     0.027378
      py      :     0.012706

 27 H s       :     0.783383  s :     0.783383
      pz      :     0.013817  p :     0.058474
      px      :     0.012208
      py      :     0.032449

 28 H s       :     0.795487  s :     0.795487
      pz      :     0.025392  p :     0.055829
      px      :     0.020351
      py      :     0.010086

 29 H s       :     0.796183  s :     0.796183
      pz      :     0.014838  p :     0.055859
      px      :     0.015113
      py      :     0.025908

 30 H s       :     0.795442  s :     0.795442
      pz      :     0.013984  p :     0.055868
      px      :     0.012198
      py      :     0.029687

 31 H s       :     0.792677  s :     0.792677
      pz      :     0.025966  p :     0.056287
      px      :     0.020514
      py      :     0.009807

 32 H s       :     0.789722  s :     0.789722
      pz      :     0.025080  p :     0.056321
      px      :     0.011308
      py      :     0.019933

 33 H s       :     0.783658  s :     0.783658
      pz      :     0.012546  p :     0.057523
      px      :     0.022014
      py      :     0.022963

 34 H s       :     0.778937  s :     0.778937
      pz      :     0.026083  p :     0.057758
      px      :     0.012193
      py      :     0.019483

 35 H s       :     0.780839  s :     0.780839
      pz      :     0.012836  p :     0.058700
      px      :     0.022538
      py      :     0.023326

 36 H s       :     0.647603  s :     0.647603
      pz      :     0.051458  p :     0.143341
      px      :     0.060394
      py      :     0.031488



                      *****************************
                      * MAYER POPULATION ANALYSIS *
                      *****************************

  NA   - Mulliken gross atomic population
  ZA   - Total nuclear charge
  QA   - Mulliken gross atomic charge
  VA   - Mayer's total valence
  BVA  - Mayer's bonded valence
  FA   - Mayer's free valence

  ATOM       NA         ZA         QA         VA         BVA        FA
  0 C      6.1354     6.0000    -0.1354     3.9212     3.9212    -0.0000
  1 C      6.1548     6.0000    -0.1548     3.9764     3.9764     0.0000
  2 C      6.1457     6.0000    -0.1457     3.8153     3.8153    -0.0000
  3 C      6.0997     6.0000    -0.0997     3.8228     3.8228    -0.0000
  4 C      6.1358     6.0000    -0.1358     3.9373     3.9373    -0.0000
  5 C      6.1486     6.0000    -0.1486     3.9568     3.9568    -0.0000
  6 P     14.8661    15.0000     0.1339     3.0852     3.0852    -0.0000
  7 C      6.0991     6.0000    -0.0991     3.8236     3.8236    -0.0000
  8 C      6.1280     6.0000    -0.1280     3.8359     3.8359     0.0000
  9 C      6.1596     6.0000    -0.1596     3.9822     3.9822    -0.0000
 10 C      6.1343     6.0000    -0.1343     3.9210     3.9210    -0.0000
 11 C      6.1423     6.0000    -0.1423     3.9474     3.9474    -0.0000
 12 C      6.1514     6.0000    -0.1514     3.9283     3.9283    -0.0000
 13 C      6.0870     6.0000    -0.0870     3.8388     3.8388     0.0000
 14 C      6.1514     6.0000    -0.1514     3.9013     3.9013    -0.0000
 15 C      6.1689     6.0000    -0.1689     3.9697     3.9697    -0.0000
 16 C      6.0012     6.0000    -0.0012     3.7793     3.7793    -0.0000
 17 C      6.1927     6.0000    -0.1927     4.0217     4.0217    -0.0000
 18 C      6.1028     6.0000    -0.1028     3.7922     3.7922    -0.0000
 19 C      5.6468     6.0000     0.3532     4.2501     4.2501    -0.0000
 20 O      8.3472     8.0000    -0.3472     2.1315     2.1315    -0.0000
 21 O      8.4212     8.0000    -0.4212     2.0474     2.0474    -0.0000
 22 H      0.8516     1.0000     0.1484     0.9638     0.9638    -0.0000
 23 H      0.8507     1.0000     0.1493     0.9652     0.9652     0.0000
 24 H      0.8163     1.0000     0.1837     0.9517     0.9517     0.0000
 25 H      0.8433     1.0000     0.1567     0.9676     0.9676     0.0000
 26 H      0.8520     1.0000     0.1480     0.9646     0.9646    -0.0000
 27 H      0.8148     1.0000     0.1852     0.9474     0.9474     0.0000
 28 H      0.8520     1.0000     0.1480     0.9657     0.9657    -0.0000
 29 H      0.8521     1.0000     0.1479     0.9638     0.9638    -0.0000
 30 H      0.8517     1.0000     0.1483     0.9646     0.9646    -0.0000
 31 H      0.8421     1.0000     0.1579     0.9685     0.9685    -0.0000
 32 H      0.8395     1.0000     0.1605     0.9686     0.9686    -0.0000
 33 H      0.8252     1.0000     0.1748     0.9682     0.9682    -0.0000
 34 H      0.8181     1.0000     0.1819     0.9715     0.9715    -0.0000
 35 H      0.8131     1.0000     0.1869     0.9527     0.9527    -0.0000
 36 H      0.6570     1.0000     0.3430     0.9142     0.9142    -0.0000

  Mayer bond orders larger than 0.100000
B(  0-C ,  1-C ) :   1.4366 B(  0-C ,  5-C ) :   1.4298 B(  0-C , 22-H ) :   0.9457 
B(  1-C ,  2-C ) :   1.4623 B(  1-C , 23-H ) :   0.9427 B(  2-C ,  3-C ) :   1.3208 
B(  2-C , 24-H ) :   0.9307 B(  3-C ,  4-C ) :   1.4084 B(  3-C ,  6-P ) :   0.9371 
B(  4-C ,  5-C ) :   1.4608 B(  4-C , 25-H ) :   0.9327 B(  5-C , 26-H ) :   0.9468 
B(  6-P ,  7-C ) :   0.9311 B(  6-P , 13-C ) :   0.9366 B(  7-C ,  8-C ) :   1.3440 
B(  7-C , 12-C ) :   1.3912 B(  8-C ,  9-C ) :   1.4649 B(  8-C , 27-H ) :   0.9233 
B(  9-C , 10-C ) :   1.4364 B(  9-C , 28-H ) :   0.9430 B( 10-C , 11-C ) :   1.4283 
B( 10-C , 29-H ) :   0.9465 B( 11-C , 12-C ) :   1.4583 B( 11-C , 30-H ) :   0.9468 
B( 12-C , 31-H ) :   0.9356 B( 13-C , 14-C ) :   1.3729 B( 13-C , 18-C ) :   1.3305 
B( 14-C , 15-C ) :   1.4703 B( 14-C , 32-H ) :   0.9405 B( 15-C , 16-C ) :   1.3824 
B( 15-C , 33-H ) :   0.9235 B( 16-C , 17-C ) :   1.4217 B( 16-C , 19-C ) :   1.0034 
B( 17-C , 18-C ) :   1.4666 B( 17-C , 34-H ) :   0.9154 B( 18-C , 35-H ) :   0.9282 
B( 19-C , 20-O ) :   2.0369 B( 19-C , 21-O ) :   1.1940 B( 21-O , 36-H ) :   0.8562 


-------
TIMINGS
-------

Total SCF time: 0 days 0 hours 2 min 21 sec 

Total time                  ....     141.174 sec
Sum of individual times     ....     141.239 sec  (100.0%)

SCF preparation             ....       0.360 sec  (  0.3%)
Fock matrix formation       ....     136.157 sec  ( 96.4%)
  Startup                   ....       0.156 sec  (  0.1% of F)
  Split-RI-J                ....      10.300 sec  (  7.6% of F)
  Chain of spheres X        ....      97.677 sec  ( 71.7% of F)
  XC integration            ....      27.620 sec  ( 20.3% of F)
    Basis function eval.    ....       4.080 sec  ( 14.8% of XC)
    Density eval.           ....      11.479 sec  ( 41.6% of XC)
    XC-Functional eval.     ....       0.532 sec  (  1.9% of XC)
    XC-Potential eval.      ....      10.152 sec  ( 36.8% of XC)
Diagonalization             ....       0.000 sec  (  0.0%)
Density matrix formation    ....       0.413 sec  (  0.3%)
Total Energy calculation    ....       0.145 sec  (  0.1%)
Population analysis         ....       0.233 sec  (  0.2%)
Orbital Transformation      ....       0.527 sec  (  0.4%)
Orbital Orthonormalization  ....       0.000 sec  (  0.0%)
DIIS solution               ....       2.208 sec  (  1.6%)
SOSCF solution              ....       1.196 sec  (  0.8%)
Finished LeanSCF after 141.2 sec

Maximum memory used throughout the entire LEANSCF-calculation: 109.8 MB


-------------------------------------------------------------------------------
                          DFT DISPERSION CORRECTION                            
                                                                               
                              DFTD3 V3.1  Rev 1                                
                              USING zero damping                               
-------------------------------------------------------------------------------
The M062X functional is recognized
Active option DFTDOPT                   ...         3   

molecular C6(AA) [au] = 19739.864055 


            DFT-D V3
 parameters
 s6 scaling factor         :     1.0000 
 rs6 scaling factor        :     1.6190 
 s8 scaling factor         :     0.0000 
 rs8 scaling factor        :     1.0000 
 Damping factor alpha6     :    14.0000 
 Damping factor alpha8     :    16.0000 
 ad hoc parameters k1-k3   :    16.0000     1.3333    -4.0000 

 Edisp/kcal,au: -1.456508956833  -0.002321094520 
 E6   /kcal   :  -1.456508957 
 E8   /kcal   :  -0.000000000 
 % E8         :   0.000000000 

-------------------------   ----------------
Dispersion correction           -0.002321095
-------------------------   ----------------


-------------------------   --------------------
FINAL SINGLE POINT ENERGY     -1224.836087625923
-------------------------   --------------------



           ************************************************************
           *        Program running with 6 parallel MPI-processes     *
           *              working on a common directory               *
           ************************************************************

------------------------------------------------------------------------------
                              ORCA PROPERTY CALCULATIONS
------------------------------------------------------------------------------

GBWName                                 ... data/single_point_P_M06-2x/627824/627824.gbw
Number of atoms                         ...     37
Number of basis functions               ...    778
Max core memory                         ...   1024 MB

Electric properties:
Dipole moment                           ... YES
Quadrupole moment                       ...  NO
Static polarizability (Dipole/Dipole)   ...  NO
Static polarizability (Dipole/Quad.)    ...  NO
Static polarizability (Quad./Quad.)     ...  NO
Static polarizability (Velocity)        ...  NO

Atomic electric properties:
Dipole moment                           ...  NO
Quadrupole moment                       ...  NO
Static polarizability                   ...  NO

Choice of electric origin               ... Center of mass
Position of electric origin             ...     0.631567    -0.007154    -0.150190

General magnetic properties:
Magnetizability                         ...  NO

EPR properties:
g-Tensor (aka g-matrix)                 ...  NO
Zero-Field splitting spin-orbit         ...  NO
Zero-field splitting spin-spin          ...  NO
Hyperfine couplings                     ...  NO (   0 nuclei)
Quadrupole couplings                    ...  NO (   0 nuclei)
Contact density                         ...  NO (   0 nuclei)

NMR properties:
Chemical shifts                         ...  NO (   0 nuclei)
Spin-rotation constants                 ...  NO (   0 nuclei)
Spin-spin couplings                     ...  NO (   0 nuclei,    0 pairs)

Choice of magnetic origin               ... GIAO
Position of magnetic origin             ...     0.000000     0.000000     0.000000

Properties with geometric perturbations:
SCF Hessian                             ...  NO
IR spectrum                             ...  NO
VCD spectrum                            ...  NO
X-ray spectroscopy properties:
SCF XES/XAS/RIXS spectra                ...  NO


-------------
DIPOLE MOMENT
-------------

Method             : SCF
Type of density    : Electron Density
Multiplicity       :   1
Irrep              :   0
Energy             : -1224.8337665314033984 Eh
Relativity type    : 
Basis              : AO
                                X                 Y                 Z
Electronic contribution:      8.874622236      -0.260138902      -3.118388303
Nuclear contribution   :     -9.550327826      -0.097168544       3.064924602
                        -----------------------------------------
Total Dipole Moment    :     -0.675705590      -0.357307446      -0.053463701
                        -----------------------------------------
Magnitude (a.u.)       :      0.766227787
Magnitude (Debye)      :      1.947596257



--------------------
Rotational spectrum 
--------------------
 
Rotational constants in cm-1:             0.011204             0.005822             0.004378 
Rotational constants in MHz :           335.889925           174.531766           131.257430 

Dipole components along the rotational axes: 
x,y,z [a.u.] :    -0.640313     0.409133     0.098563 
x,y,z [Debye]:    -1.627545     1.039934     0.250528 

 

Dipole moment calculation done in   0.0 sec 

Maximum memory used throughout the entire PROP-calculation: 59.8 MB

--------------------------------
SUGGESTED CITATIONS FOR THIS RUN
--------------------------------

Below you find a list of papers that are relevant to this ORCA run
We neither can nor want to force you to cite these papers, but we appreciate if you do
You receive ORCA, which is the product of decades of hard work by many enthusiastic individuals, for free
The only thing we kindly ask in return is that you cite our papers,
We deeply appreciate it, if you show your appreciation for ORCA by not just citing the generic ORCA reference.

Please note that relegating all ORCA citations to the supporting information does *not* help us.
SI sections are not indexed - citations you put there will not count into any citation statistics
But we need these citations in order to attract the funding resources that allow us to do what we are doing

Therefore, if you are a happy ORCA user, please consider citing a few of the papers listed below in the main body of your paper

In addition to the list printed below, the program has created the file data/single_point_P_M06-2x/627824/627824.bibtex that contains the list in bibtex format
You can import this file easily into all common literature databanks and citation aid programs


List of essential papers. We consider these as the minimum necessary citations

  1. Neese,F.
     Software update: the ORCA program system, version 5.0
     WIRES Comput. Molec. Sci., 2022 12(1)e1606
     doi.org/10.1002/wcms.1606

List of papers to cite with high priority. The work reported in these papers was absolutely
necessary for this run to complete.
Our perspective: the developers of density functionals and basis sets usually get cited in chemistry papers
Good! But without the algorithms to do something with them, the functionals or basis sets would not do anything.
Hence, in our opinion, the algorithm design and method developments papers are equally worthy of getting cited

  1. Neese,F.
     An improvement of the resolution of the identity approximation for the formation of the Coulomb matrix
     J. Comp. Chem., 2003 24(14)1740-1747
     doi.org/10.1002/jcc.10318
  2. Neese,F.; Wennmohs,F.; Hansen,A.; Becker,U.
     Efficient, approximate and parallel Hartree-Fock and hybrid DFT calculations. A 'chain-of-spheres' algorithm for the Hartree-Fock exchange
     Chem. Phys., 2009 356(1-3)98-109
     doi.org/10.1016/j.chemphys.2008.10.036
  3. Helmich-Paris,B.; de Souza,B.; Neese,F.; Izsák,R.
     An improved chain of spheres for exchange algorithm
     J. Chem. Phys., 2021 155 104109
     doi.org/doi: 10.1063/5.0058766.
  4. Neese,F.
     The SHARK Integral Generation and Digestion System
     J. Comp. Chem., 2022  1-16
     doi.org/10.1002/jcc.26942
  5. Grimme,S.; Antony,J.; Ehrlich,S.; Krieg,H.
     A consistent and accurate ab initio parametrization of density functional dispersion correction (DFT-D) for the 94 elements H-Pu
     J. Chem. Phys., 2010 132 154104-XXXX
     doi.org/10.1063/1.3382344

List of suggested additional citations. These are papers that are important in the 'surrounding' of 
of this run, or papers that preceded the highly important papers. If you like your results we are grateful for a citation.

  1. Izsak,R.; Neese,F.
     An overlap fitted chain of spheres exchange method
     J. Chem. Phys., 2011 135 144105
     doi.org/10.1063/1.3646921
  2. Izsak,R.; Hansen,A.; Neese,F.
     The resolution of identity and chain of spheres approximations for the LPNO-CCSD singles Fock term
     Molec. Phys., 2012 110 2413-2417
     doi.org/10.1080/00268976.2012.687466
  3. Neese,F.
     The ORCA program system
     WIRES Comput. Molec. Sci., 2012 2(1)73-78
     doi.org/10.1002/wcms.81
  4. Izsak,R.; Neese,F.; Klopper,W.
     Robust fitting techniques in the chain of spheres approximation to the Fock exchange: The role of the complementary space
     J. Chem. Phys., 2013 139 
     doi.org/10.1063/1.4819264
  5. Neese,F.
     Software update: the ORCA program system, version 4.0
     WIRES Comput. Molec. Sci., 2018 8(1)1-6
     doi.org/10.1002/wcms.1327
  6. Neese,F.; Wennmohs,F.; Becker,U.; Riplinger,C.
     The ORCA quantum chemistry program package
     J. Chem. Phys., 2020 152 Art. No. L224108
     doi.org/10.1063/5.0004608

List of optional additional citations

  1. Neese,F.
     Approximate second-order SCF convergence for spin unrestricted wavefunctions
     Chem. Phys. Lett., 2000 325(1-3)93-98
     doi.org/10.1016/s0009-2614(00)00662-x

Timings for individual modules:

Sum of individual times          ...      147.819 sec (=   2.464 min)
Startup calculation              ...        4.234 sec (=   0.071 min)   2.9 %
SCF iterations                   ...      143.290 sec (=   2.388 min)  96.9 %
Property calculations            ...        0.295 sec (=   0.005 min)   0.2 %
                             ****ORCA TERMINATED NORMALLY****
TOTAL RUN TIME: 0 days 0 hours 2 minutes 28 seconds 60 msec
