
                                 *****************
                                 * O   R   C   A *
                                 *****************

                                            #,                                       
                                            ###                                      
                                            ####                                     
                                            #####                                    
                                            ######                                   
                                           ########,                                 
                                     ,,################,,,,,                         
                               ,,#################################,,                 
                          ,,##########################################,,             
                       ,#########################################, ''#####,          
                    ,#############################################,,   '####,        
                  ,##################################################,,,,####,       
                ,###########''''           ''''###############################       
              ,#####''   ,,,,##########,,,,          '''####'''          '####       
            ,##' ,,,,###########################,,,                        '##       
           ' ,,###''''                  '''############,,,                           
         ,,##''                                '''############,,,,        ,,,,,,###''
      ,#''                                            '''#######################'''  
     '                                                          ''''####''''         
             ,#######,   #######,   ,#######,      ##                                
            ,#'     '#,  ##    ##  ,#'     '#,    #''#        ,####,   ,####,        
            ##       ##  ##   ,#'  ##            #'  '#       #'       #'  '#        
            ##       ##  #######   ##           ,######,      #####,   #    #        
            '#,     ,#'  ##    ##  '#,     ,#' ,#      #,     #,   #   #,  ,#        
             '#######'   ##     ##  '#######'  #'      '#     '####' # '####'        



                #########################################################
                #                        -***-                          #
                #          Department of theory and spectroscopy        #
                #                                                       #
                #                      Frank Neese                      #
                #                                                       #
                #     Directorship, Architecture, Infrastructure        #
                #                    SHARK, DRIVERS                     #
                #        Core code/Algorithms in most modules           #
                #                                                       #
                #        Max Planck Institute fuer Kohlenforschung      #
                #                Kaiser Wilhelm Platz 1                 #
                #                 D-45470 Muelheim/Ruhr                 #
                #                      Germany                          #
                #                                                       #
                #                  All rights reserved                  #
                #                        -***-                          #
                #########################################################


                         Program Version 6.0.0  -   RELEASE   -


 With contributions from (in alphabetic order):
   Daniel Aravena         : Magnetic Suceptibility
   Michael Atanasov       : Ab Initio Ligand Field Theory (pilot matlab implementation)
   Alexander A. Auer      : GIAO ZORA, VPT2 properties, NMR spectrum
   Ute Becker             : All parallelization in ORCA, NUMFREQ, NUMCALC
   Giovanni Bistoni       : ED, misc. LED, open-shell LED, HFLD
   Martin Brehm           : Molecular dynamics
   Dmytro Bykov           : pre 5.0 version of the SCF Hessian
   Marcos Casanova-Páez   : Triplet and SCS-CIS(D). UHF-(DLPNO)-IP/EA/STEOM-CCSD. UHF-CVS-IP/STEOM-CCSD
   Vijay G. Chilkuri      : MRCI spin determinant printing, contributions to CSF-ICE
   Pauline Colinet        : FMM embedding
   Dipayan Datta          : RHF DLPNO-CCSD density
   Achintya Kumar Dutta   : EOM-CC, STEOM-CC
   Nicolas Foglia         : Exact transition moments, OPA infrastructure, MCD improvements
   Dmitry Ganyushin       : Spin-Orbit,Spin-Spin,Magnetic field MRCI
   Miquel Garcia          : C-PCM and meta-GGA Hessian, CCSD/C-PCM, Gaussian charge scheme
   Tiago L. C. Gouveia    : GS-ROHF, GS-ROCIS
   Yang Guo               : DLPNO-NEVPT2, F12-NEVPT2, CIM, IAO-localization
   Andreas Hansen         : Spin unrestricted coupled pair/coupled cluster methods
   Ingolf Harden          : AUTO-CI MPn and infrastructure 
   Benjamin Helmich-Paris : MC-RPA, TRAH-(SCF,CASSCF), AVAS, COSX integrals, SCF dyn. polar.
   Lee Huntington         : MR-EOM, pCC
   Robert Izsak           : Overlap fitted RIJCOSX, COSX-SCS-MP3, EOM
   Riya Kayal             : Wick's Theorem for AUTO-CI, AUTO-CI UHF-CCSDT
   Emily Kempfer          : AUTO-CI, RHF CISDT and CCSDT
   Christian Kollmar      : KDIIS, OOCD, Brueckner-CCSD(T), CCSD density, CASPT2, CASPT2-K, improved NEVPT2
   Axel Koslowski         : Symmetry handling
   Simone Kossmann        : Meta GGA functionals, TD-DFT gradient, OOMP2, (MP2 Hessian; deprecated post 5.0)
   Lucas Lang             : DCDCAS
   Marvin Lechner         : AUTO-CI (C++ implementation), FIC-MRCC
   Spencer Leger          : CASSCF response
   Dagmar Lenk            : GEPOL surface, SMD, ORCA-2-JSON
   Dimitrios Liakos       : Extrapolation schemes; Compound Job, initial MDCI parallelization
   Dimitrios Manganas     : Further ROCIS development; embedding schemes. LFT, Crystal Embedding
   Dimitrios Pantazis     : SARC Basis sets
   Anastasios Papadopoulos: AUTO-CI, single reference methods and gradients
   Taras Petrenko         : pre 6.0 DFT Hessian and TD-DFT gradient, (ASA, deprecated), ECA, 1-Electron XAS/XES, NRVS
   Peter Pinski           : DLPNO-MP2, DLPNO-MP2 Gradient
   Christoph Reimann      : Effective Core Potentials
   Marius Retegan         : Local ZFS, SOC
   Christoph Riplinger    : Optimizer, TS searches, QM/MM, DLPNO-CCSD(T), (RO)-DLPNO pert. Triples
   Michael Roemelt        : Original ROCIS implementation
   Masaaki Saitow         : Open-shell DLPNO-CCSD energy and density
   Barbara Sandhoefer     : DKH picture change effects
   Kantharuban Sivalingam : CASSCF convergence/infrastructure, NEVPT2 and variants, FIC-MRCI
   Bernardo de Souza      : ESD, SOC TD-DFT
   Georgi Stoychev        : AutoAux, RI-MP2 NMR, DLPNO-MP2 response, X2C
   Van Anh Tran           : RI-MP2 g-tensors
   Willem Van den Heuvel  : Paramagnetic NMR
   Zikuan Wang            : NOTCH, Electric field optimization 
   Frank Wennmohs         : Technical directorship and infrastructure
   Hang Xu                : AUTO-CI-Response properties 


 We gratefully acknowledge several colleagues who have allowed us to
 interface, adapt or use parts of their codes:
   Stefan Grimme, W. Hujo, H. Kruse, P. Pracht,  : VdW corrections, initial TS optimization,
                  C. Bannwarth, S. Ehlert,         DFT functionals, gCP, sTDA/sTD-DF
                  L. Wittmann, M. Mueller
   Ed Valeev, F. Pavosevic, A. Kumar             : LibInt (2-el integral package), F12 methods
   Garnet Chan, S. Sharma, J. Yang, R. Olivares  : DMRG
   Ulf Ekstrom                                   : XCFun DFT Library
   Mihaly Kallay                                 : mrcc  (arbitrary order and MRCC methods)
   Frank Weinhold                                : gennbo (NPA and NBO analysis)
   Simon Mueller                                 : openCOSMO-RS
   Christopher J. Cramer and Donald G. Truhlar   : smd solvation model
   Lars Goerigk                                  : TD-DFT with DH, B97 family of functionals
   V. Asgeirsson, H. Jonsson                     : NEB implementation
   FAccTs GmbH                                   : IRC, NEB, NEB-TS, DLPNO-Multilevel, CI-OPT
                                                   MM, QMMM, 2- and 3-layer-ONIOM, Crystal-QMMM,
                                                   LR-CPCM, SF, NACMEs, symmetry and pop. for TD-DFT,
                                                   nearIR, NL-DFT gradient (VV10), updates on ESD,
                                                   ML-optimized integration grids, MBIS, APM,
                                                   GOAT, DOCKER, SOLVATOR, interface openCOSMO-RS
   S Lehtola, MJT Oliveira, MAL Marques          : LibXC Library
   Liviu Ungur et al                             : ANISO software


 Your calculation uses the libint2 library for the computation of 2-el integrals
 For citations please refer to: http://libint.valeyev.net

 Your ORCA version has been built with support for libXC version: 6.2.2
 For citations please refer to: https://libxc.gitlab.io

 This ORCA versions uses:
   CBLAS   interface :  Fast vector & matrix operations
   LAPACKE interface :  Fast linear algebra routines
   Shared memory     :  Shared parallel matrices


Your calculation utilizes the atom-pairwise dispersion correction
with the Becke-Johnson damping scheme (D3BJ)


Warning: RI is on but no J-basis has been assigned. Assigning Def2/J (nothing to worry about!)
================================================================================

----- Orbital basis set information -----
Your calculation utilizes the basis: def2-SVP
   F. Weigend and R. Ahlrichs, Phys. Chem. Chem. Phys. 7, 3297 (2005).

----- AuxJ basis set information -----
Your calculation utilizes the auxiliary basis: def2/J
   F. Weigend, Phys. Chem. Chem. Phys. 8, 1057 (2006).

================================================================================
                                        WARNINGS
                       Please study these warnings very carefully!
================================================================================


WARNING: Geometry Optimization
  ===> : Switching off AutoStart
         For restart on a previous wavefunction, please use MOREAD

================================================================================
                                       INPUT FILE
================================================================================
NAME = data/geom_opt_PO_BP86/119411/119411.inp
|  1> ! RI BP86 def2-SVP D3BJ TIGHTSCF Opt
|  2> %pal
|  3> nprocs 6
|  4> end
|  5> 
|  6> * xyz 0 1
|  7> C     -1.097755    2.233928    1.313123
|  8> C     -0.722052    0.781988    1.583652
|  9> P     -0.127885   -0.086602    0.126521
| 10> O     -0.232343    0.715583   -1.140652
| 11> C      1.559609   -0.569527    0.501875
| 12> C      2.335004   -1.024469   -0.726750
| 13> C      3.709154   -1.504817   -0.361322
| 14> O      4.123577   -1.771288    0.753695
| 15> O      4.494313   -1.666421   -1.443034
| 16> C     -1.041173   -1.636127    0.026017
| 17> C     -2.077111   -1.666688   -1.091579
| 18> C     -3.152212   -0.639291   -0.882734
| 19> O     -3.394483   -0.036985    0.149578
| 20> O     -3.906124   -0.460672   -1.982778
| 21> C      0.102941    3.041084    0.907704
| 22> O      1.273877    2.738450    1.067122
| 23> O     -0.236982    4.225581    0.365876
| 24> H     -1.523146    2.684651    2.215414
| 25> H     -1.838176    2.278556    0.507988
| 26> H     -1.599140    0.265024    1.985022
| 27> H      0.043292    0.732868    2.366631
| 28> H      1.536116   -1.362425    1.258520
| 29> H      2.084885    0.275256    0.959697
| 30> H      2.427343   -0.186505   -1.425971
| 31> H      1.805796   -1.839276   -1.230484
| 32> H      5.349220   -1.976263   -1.077501
| 33> H     -0.329168   -2.448656   -0.155403
| 34> H     -1.512362   -1.847428    0.992026
| 35> H     -1.585108   -1.468660   -2.049723
| 36> H     -2.550283   -2.653091   -1.132698
| 37> H     -4.539712    0.244638   -1.735862
| 38> H      0.620087    4.627584    0.114176
| 39> **                         ****END OF INPUT****
================================================================================

                       *****************************
                       * Geometry Optimization Run *
                       *****************************

Geometry optimization settings:
Update method            Update   .... BFGS
Choice of coordinates    CoordSys .... (2022) Redundant Internals
Initial Hessian          InHess   .... Almloef's Model
Max. no of cycles        MaxIter  .... 96

Convergence Tolerances:
Energy Change            TolE     ....  5.0000e-06 Eh
Max. Gradient            TolMAXG  ....  3.0000e-04 Eh/bohr
RMS Gradient             TolRMSG  ....  1.0000e-04 Eh/bohr
Max. Displacement        TolMAXD  ....  4.0000e-03 bohr
RMS Displacement         TolRMSD  ....  2.0000e-03 bohr
Strict Convergence                .... False

------------------------------------------------------------------------------
                        ORCA OPTIMIZATION COORDINATE SETUP
------------------------------------------------------------------------------

The optimization will be done in redundant internal coordinates (2022)
Making redundant internal coordinates   ...  (2022 redundants) done
Evaluating the initial hessian          ...  (Almloef) done
Evaluating the coordinates              ...  done
Calculating the B-matrix                .... done
Calculating the G-matrix                .... done
Diagonalizing the G-matrix              .... done
Small eigenvalue found = 5.615e-03
Small eigenvalue found = 7.125e-03
Small eigenvalue found = 9.019e-03
Small eigenvalue found = 1.676e-02
Small eigenvalue found = 2.296e-02
Small eigenvalue found = 2.945e-02
The first mode is                       ....   52
The number of degrees of freedom        ....   90

    -----------------------------------------------------------------
                    Redundant Internal Coordinates


    -----------------------------------------------------------------
         Definition                    Initial Value    Approx d2E/dq
    -----------------------------------------------------------------
      1. B(C   1,C   0)                  1.5240         0.381950   
      2. B(P   2,C   1)                  1.7974         0.470134   
      3. B(O   3,P   2)                  1.5034         1.240181   
      4. B(C   4,P   2)                  1.7949         0.474467   
      5. B(C   5,C   4)                  1.5224         0.384139   
      6. B(C   6,C   5)                  1.5009         0.415795   
      7. B(O   7,C   6)                  1.2190         1.048719   
      8. B(O   8,C   6)                  1.3464         0.656896   
      9. B(C   9,P   2)                  1.8015         0.463222   
     10. B(C  10,C   9)                  1.5242         0.381649   
     11. B(C  11,C  10)                  1.5017         0.414554   
     12. B(O  12,C  11)                  1.2195         1.046951   
     13. B(O  13,C  11)                  1.3455         0.658967   
     14. B(C  14,C   0)                  1.5025         0.413272   
     15. B(O  15,C  14)                  1.2199         1.045444   
     16. B(O  16,C  14)                  1.3462         0.657374   
     17. B(H  17,C   0)                  1.0946         0.354013   
     18. B(H  18,C   0)                  1.0947         0.353883   
     19. B(H  19,C   1)                  1.0944         0.354373   
     20. B(H  20,C   1)                  1.0960         0.352247   
     21. B(H  21,C   4)                  1.0962         0.351934   
     22. B(H  22,C   4)                  1.0951         0.353458   
     23. B(H  23,C   5)                  1.0953         0.353193   
     24. B(H  24,C   5)                  1.0944         0.354321   
     25. B(H  25,O   8)                  0.9800         0.483049   
     26. B(H  26,C   9)                  1.0955         0.352928   
     27. B(H  27,C   9)                  1.0954         0.353063   
     28. B(H  28,C  10)                  1.0951         0.353370   
     29. B(H  29,C  10)                  1.0948         0.353814   
     30. B(H  30,O  13)                  0.9797         0.483609   
     31. B(H  31,O  16)                  0.9796         0.483915   
     32. A(C  14,C   0,H  18)          108.6713         0.328812   
     33. A(H  17,C   0,H  18)          109.0627         0.289271   
     34. A(C   1,C   0,C  14)          111.2665         0.371107   
     35. A(C   1,C   0,H  17)          109.9851         0.324592   
     36. A(C  14,C   0,H  17)          108.1658         0.328832   
     37. A(C   1,C   0,H  18)          109.6415         0.324572   
     38. A(P   2,C   1,H  19)          109.5107         0.356975   
     39. A(C   0,C   1,H  19)          108.5169         0.324646   
     40. A(P   2,C   1,H  20)          109.0657         0.356610   
     41. A(C   0,C   1,H  20)          109.9786         0.324325   
     42. A(C   0,C   1,P   2)          113.4526         0.404137   
     43. A(H  19,C   1,H  20)          106.0502         0.289107   
     44. A(C   4,P   2,C   9)          104.8846         0.446915   
     45. A(C   1,P   2,C   4)          105.7398         0.448117   
     46. A(O   3,P   2,C   9)          112.1305         0.530851   
     47. A(O   3,P   2,C   4)          112.6531         0.533256   
     48. A(C   1,P   2,O   3)          113.7338         0.532335   
     49. A(C   1,P   2,C   9)          107.0558         0.446173   
     50. A(H  21,C   4,H  22)          106.2418         0.288950   
     51. A(P   2,C   4,C   5)          112.9839         0.405201   
     52. A(C   5,C   4,H  22)          108.8821         0.324813   
     53. A(P   2,C   4,H  22)          109.3195         0.357375   
     54. A(C   5,C   4,H  21)          110.5973         0.324583   
     55. A(P   2,C   4,H  21)          108.5898         0.357112   
     56. A(C   4,C   5,C   6)          111.4365         0.371861   
     57. A(H  23,C   5,H  24)          108.4537         0.289222   
     58. A(C   6,C   5,H  24)          108.4527         0.329210   
     59. A(C   4,C   5,H  24)          110.3442         0.324943   
     60. A(C   6,C   5,H  23)          108.8511         0.329037   
     61. A(C   4,C   5,H  23)          109.2395         0.324773   
     62. A(C   5,C   6,O   7)          127.1520         0.441133   
     63. A(O   7,C   6,O   8)          120.6899         0.476323   
     64. A(C   5,C   6,O   8)          112.1316         0.405755   
     65. A(C   6,O   8,H  25)          104.2998         0.369111   
     66. A(P   2,C   9,C  10)          113.7489         0.403027   
     67. A(H  26,C   9,H  27)          106.4128         0.289027   
     68. A(C  10,C   9,H  27)          110.5125         0.324407   
     69. A(P   2,C   9,H  27)          109.5608         0.355854   
     70. A(C  10,C   9,H  26)          107.7851         0.324386   
     71. A(P   2,C   9,H  26)          108.5251         0.355831   
     72. A(C   9,C  10,C  11)          111.7716         0.371254   
     73. A(C  11,C  10,H  29)          108.1935         0.328970   
     74. A(H  28,C  10,H  29)          108.9192         0.289180   
     75. A(C   9,C  10,H  29)          109.8379         0.324520   
     76. A(C  11,C  10,H  28)          108.6392         0.328902   
     77. A(C   9,C  10,H  28)          109.4234         0.324453   
     78. A(C  10,C  11,O  12)          126.7180         0.440761   
     79. A(O  12,C  11,O  13)          121.0110         0.476451   
     80. A(C  10,C  11,O  13)          112.2269         0.405767   
     81. A(C  11,O  13,H  30)          104.5887         0.369385   
     82. A(O  15,C  14,O  16)          120.8822         0.476112   
     83. A(C   0,C  14,O  16)          112.3030         0.405371   
     84. A(C   0,C  14,O  15)          126.7649         0.440400   
     85. A(C  14,O  16,H  31)          104.0987         0.369271   
     86. D(P   2,C   1,C   0,H  18)     55.7137         0.011621   
     87. D(H  19,C   1,C   0,C  14)    173.5173         0.011621   
     88. D(H  19,C   1,C   0,H  18)    -66.2400         0.011621   
     89. D(H  19,C   1,C   0,H  17)     53.6804         0.011621   
     90. D(P   2,C   1,C   0,C  14)    -64.5290         0.011621   
     91. D(P   2,C   1,C   0,H  17)    175.6341         0.011621   
     92. D(C   4,P   2,C   1,H  20)     -4.7547         0.004762   
     93. D(C   4,P   2,C   1,C   0)    118.2009         0.004762   
     94. D(O   3,P   2,C   1,C   0)     -5.9270         0.004762   
     95. D(C   4,P   2,C   1,H  19)   -120.4005         0.004762   
     96. D(O   3,P   2,C   1,H  20)   -128.8825         0.004762   
     97. D(O   3,P   2,C   1,H  19)    115.4717         0.004762   
     98. D(C   5,C   4,P   2,C   9)     80.6758         0.004825   
     99. D(C   5,C   4,P   2,O   3)    -41.5536         0.004825   
    100. D(C   5,C   4,P   2,C   1)   -166.3561         0.004825   
    101. D(H  21,C   4,P   2,C   9)    -42.4053         0.004825   
    102. D(H  21,C   4,P   2,O   3)   -164.6347         0.004825   
    103. D(H  21,C   4,P   2,C   1)     70.5628         0.004825   
    104. D(H  23,C   5,C   4,H  22)    -58.2273         0.011748   
    105. D(H  23,C   5,C   4,H  21)   -174.6074         0.011748   
    106. D(H  23,C   5,C   4,P   2)     63.4323         0.011748   
    107. D(C   6,C   5,C   4,H  22)     62.0834         0.011748   
    108. D(C   6,C   5,C   4,H  21)    -54.2968         0.011748   
    109. D(C   6,C   5,C   4,P   2)   -176.2570         0.011748   
    110. D(O   8,C   6,C   5,H  23)    -47.5243         0.012792   
    111. D(O   8,C   6,C   5,C   4)   -168.0633         0.012792   
    112. D(O   7,C   6,C   5,H  24)   -107.8298         0.012792   
    113. D(O   7,C   6,C   5,H  23)    134.3607         0.012792   
    114. D(O   7,C   6,C   5,C   4)     13.8217         0.012792   
    115. D(H  25,O   8,C   6,O   7)     -1.8090         0.031947   
    116. D(H  25,O   8,C   6,C   5)    179.9380         0.031947   
    117. D(H  26,C   9,P   2,C   4)    -20.6329         0.004664   
    118. D(H  26,C   9,P   2,O   3)    101.9357         0.004664   
    119. D(H  26,C   9,P   2,C   1)   -132.6662         0.004664   
    120. D(C  10,C   9,P   2,C   4)   -140.5916         0.004664   
    121. D(C  10,C   9,P   2,O   3)    -18.0229         0.004664   
    122. D(C  10,C   9,P   2,C   1)    107.3752         0.004664   
    123. D(H  28,C  10,C   9,H  26)    -63.2393         0.011604   
    124. D(H  28,C  10,C   9,P   2)     57.1368         0.011604   
    125. D(C  11,C  10,C   9,H  27)     60.4767         0.011604   
    126. D(C  11,C  10,C   9,H  26)    176.3791         0.011604   
    127. D(H  28,C  10,C   9,H  27)   -179.1416         0.011604   
    128. D(C  11,C  10,C   9,P   2)    -63.2449         0.011604   
    129. D(O  13,C  11,C  10,H  28)     46.0762         0.012718   
    130. D(O  13,C  11,C  10,C   9)    166.9151         0.012718   
    131. D(O  12,C  11,C  10,H  29)    105.5589         0.012718   
    132. D(O  12,C  11,C  10,H  28)   -136.3390         0.012718   
    133. D(O  12,C  11,C  10,C   9)    -15.5001         0.012718   
    134. D(H  30,O  13,C  11,O  12)      4.2511         0.032166   
    135. D(H  30,O  13,C  11,C  10)   -178.0077         0.032166   
    136. D(O  16,C  14,C   0,H  17)    -73.6828         0.012642   
    137. D(O  16,C  14,C   0,C   1)    165.4068         0.012642   
    138. D(O  15,C  14,C   0,H  18)   -137.9801         0.012642   
    139. D(O  15,C  14,C   0,H  17)    103.7446         0.012642   
    140. D(O  15,C  14,C   0,C   1)    -17.1658         0.012642   
    141. D(H  31,O  16,C  14,O  15)      4.7659         0.031997   
    142. D(H  31,O  16,C  14,C   0)   -177.6354         0.031997   
    -----------------------------------------------------------------

Number of atoms                         .... 32
Number of degrees of freedom            .... 142


         *************************************************************
         *                GEOMETRY OPTIMIZATION CYCLE   1            *
         *************************************************************
---------------------------------
CARTESIAN COORDINATES (ANGSTROEM)
---------------------------------
  C     -1.097755    2.233928    1.313123
  C     -0.722052    0.781988    1.583652
  P     -0.127885   -0.086602    0.126521
  O     -0.232343    0.715583   -1.140652
  C      1.559609   -0.569527    0.501875
  C      2.335004   -1.024469   -0.726750
  C      3.709154   -1.504817   -0.361322
  O      4.123577   -1.771288    0.753695
  O      4.494313   -1.666421   -1.443034
  C     -1.041173   -1.636127    0.026017
  C     -2.077111   -1.666688   -1.091579
  C     -3.152212   -0.639291   -0.882734
  O     -3.394483   -0.036985    0.149578
  O     -3.906124   -0.460672   -1.982778
  C      0.102941    3.041084    0.907704
  O      1.273877    2.738450    1.067122
  O     -0.236982    4.225581    0.365876
  H     -1.523146    2.684651    2.215414
  H     -1.838176    2.278556    0.507988
  H     -1.599140    0.265024    1.985022
  H      0.043292    0.732868    2.366631
  H      1.536116   -1.362425    1.258520
  H      2.084885    0.275256    0.959697
  H      2.427343   -0.186505   -1.425971
  H      1.805796   -1.839276   -1.230484
  H      5.349220   -1.976263   -1.077501
  H     -0.329168   -2.448656   -0.155403
  H     -1.512362   -1.847428    0.992026
  H     -1.585108   -1.468660   -2.049723
  H     -2.550283   -2.653091   -1.132698
  H     -4.539712    0.244638   -1.735862
  H      0.620087    4.627584    0.114176

----------------------------
CARTESIAN COORDINATES (A.U.)
----------------------------
  NO LB      ZA    FRAG     MASS         X           Y           Z
   0 C     6.0000    0    12.011   -2.074456    4.221512    2.481443
   1 C     6.0000    0    12.011   -1.364481    1.477743    2.992669
   2 P    15.0000    0    30.974   -0.241668   -0.163654    0.239090
   3 O     8.0000    0    15.999   -0.439065    1.352256   -2.155520
   4 C     6.0000    0    12.011    2.947234   -1.076250    0.948406
   5 C     6.0000    0    12.011    4.412518   -1.935966   -1.373358
   6 C     6.0000    0    12.011    7.009285   -2.843692   -0.682800
   7 O     8.0000    0    15.999    7.792431   -3.347249    1.424277
   8 O     8.0000    0    15.999    8.493021   -3.149079   -2.726939
   9 C     6.0000    0    12.011   -1.967532   -3.091832    0.049165
  10 C     6.0000    0    12.011   -3.925171   -3.149584   -2.062785
  11 C     6.0000    0    12.011   -5.956817   -1.208085   -1.668126
  12 O     8.0000    0    15.999   -6.414643   -0.069892    0.282661
  13 O     8.0000    0    15.999   -7.381505   -0.870544   -3.746907
  14 C     6.0000    0    12.011    0.194530    5.746816    1.715312
  15 O     8.0000    0    15.999    2.407279    5.174921    2.016568
  16 O     8.0000    0    15.999   -0.447831    7.985191    0.691405
  17 H     1.0000    0     1.008   -2.878329    5.073255    4.186526
  18 H     1.0000    0     1.008   -3.473649    4.305847    0.959958
  19 H     1.0000    0     1.008   -3.021937    0.500823    3.751148
  20 H     1.0000    0     1.008    0.081810    1.384920    4.472284
  21 H     1.0000    0     1.008    2.902839   -2.574610    2.378258
  22 H     1.0000    0     1.008    3.939862    0.520158    1.813565
  23 H     1.0000    0     1.008    4.587014   -0.352443   -2.694695
  24 H     1.0000    0     1.008    3.412460   -3.475728   -2.325278
  25 H     1.0000    0     1.008   10.108561   -3.734596   -2.036182
  26 H     1.0000    0     1.008   -0.622037   -4.627289   -0.293669
  27 H     1.0000    0     1.008   -2.857950   -3.491133    1.874657
  28 H     1.0000    0     1.008   -2.995420   -2.775365   -3.873415
  29 H     1.0000    0     1.008   -4.819336   -5.013615   -2.140489
  30 H     1.0000    0     1.008   -8.578812    0.462299   -3.280304
  31 H     1.0000    0     1.008    1.171795    8.744866    0.215761

--------------------------------
INTERNAL COORDINATES (ANGSTROEM)
--------------------------------
 C      0   0   0     0.000000000000     0.00000000     0.00000000
 C      1   0   0     1.523964713387     0.00000000     0.00000000
 P      2   1   0     1.797418638812   113.45257139     0.00000000
 O      3   2   1     1.503376087317   113.73381128   354.07304369
 C      3   2   1     1.794921497163   105.73983426   118.20086348
 C      5   3   2     1.522408952947   112.98392648   193.64392367
 C      6   5   3     1.500853106333   111.43647457   183.74300323
 O      7   6   5     1.219022611381   127.15196570    13.82169479
 O      7   6   5     1.346362268872   112.13156098   191.93670435
 C      3   2   1     1.801450457433   107.05581043   229.64685241
 C     10   3   2     1.524179232827   113.74891978   107.37519310
 C     11  10   3     1.501666737274   111.77156489   296.75513132
 O     12  11  10     1.219481783554   126.71803836   344.49988893
 O     12  11  10     1.345505426537   112.22689026   166.91514167
 C      1   2   3     1.502509986094   111.26648677   295.47100900
 O     15   1   2     1.219873990532   126.76487821   342.83420515
 O     15   1   2     1.346164317802   112.30304339   165.40682977
 H      1   2   3     1.094640477185   109.98508012   175.63411182
 H      1   2   3     1.094740738189   109.64151195    55.71371835
 H      2   1   3     1.094364205345   108.51689638   238.04629432
 H      2   1   3     1.096001974075   109.97862569   122.45140100
 H      5   3   2     1.096243958012   108.58981383    70.56283832
 H      5   3   2     1.095068115210   109.31952972   315.05664796
 H      6   5   3     1.095271730238   109.23949729    63.43233346
 H      6   5   3     1.094403717679   110.34418767   304.29033575
 H      9   7   6     0.980042048946   104.29977898   179.93804108
 H     10   3   2     1.095476020854   108.52505377   227.33381544
 H     10   3   2     1.095372345097   109.56076341   343.13864388
 H     11  10   3     1.095135592303   109.42342619    57.13680771
 H     11  10   3     1.094793766951   109.83787336   176.65519399
 H     14  12  11     0.979726217318   104.58869437   181.99227907
 H     17  15   1     0.979554272498   104.09871174   182.36461253

---------------------------
INTERNAL COORDINATES (A.U.)
---------------------------
 C      0   0   0     0.000000000000     0.00000000     0.00000000
 C      1   0   0     2.879875946062     0.00000000     0.00000000
 P      2   1   0     3.396628975361   113.45257139     0.00000000
 O      3   2   1     2.840969081316   113.73381128   354.07304369
 C      3   2   1     3.391910061526   105.73983426   118.20086348
 C      5   3   2     2.876935984900   112.98392648   193.64392367
 C      6   5   3     2.836201338213   111.43647457   183.74300323
 O      7   6   5     2.303618886568   127.15196570    13.82169479
 O      7   6   5     2.544255965212   112.13156098   191.93670435
 C      3   2   1     3.404248008375   107.05581043   229.64685241
 C     10   3   2     2.880281329053   113.74891978   107.37519310
 C     11  10   3     2.837738877867   111.77156489   296.75513132
 O     12  11  10     2.304486596224   126.71803836   344.49988893
 O     12  11  10     2.542636767860   112.22689026   166.91514167
 C      1   2   3     2.839332387200   111.26648677   295.47100900
 O     15   1   2     2.305227759999   126.76487821   342.83420515
 O     15   1   2     2.543881891902   112.30304339   165.40682977
 H      1   2   3     2.068570716984   109.98508012   175.63411182
 H      1   2   3     2.068760182823   109.64151195    55.71371835
 H      2   1   3     2.068048638868   108.51689638   238.04629432
 H      2   1   3     2.071143573239   109.97862569   122.45140100
 H      5   3   2     2.071600856609   108.58981383    70.56283832
 H      5   3   2     2.069378835736   109.31952972   315.05664796
 H      6   5   3     2.069763612375   109.23949729    63.43233346
 H      6   5   3     2.068123306358   110.34418767   304.29033575
 H      9   7   6     1.852011072235   104.29977898   179.93804108
 H     10   3   2     2.070149665692   108.52505377   227.33381544
 H     10   3   2     2.069953746904   109.56076341   343.13864388
 H     11  10   3     2.069506348962   109.42342619    57.13680771
 H     11  10   3     2.068860392661   109.83787336   176.65519399
 H     14  12  11     1.851414236953   104.58869437   181.99227907
 H     17  15   1     1.851089308335   104.09871174   182.36461253

---------------------
BASIS SET INFORMATION
---------------------
There are 4 groups of distinct atoms

 Group   1 Type C   : 7s4p1d contracted to 3s2p1d pattern {511/31/1}
 Group   2 Type P   : 10s7p1d contracted to 4s3p1d pattern {5311/511/1}
 Group   3 Type O   : 7s4p1d contracted to 3s2p1d pattern {511/31/1}
 Group   4 Type H   : 4s1p contracted to 2s1p pattern {31/1}

Atom   0C    basis set group =>   1
Atom   1C    basis set group =>   1
Atom   2P    basis set group =>   2
Atom   3O    basis set group =>   3
Atom   4C    basis set group =>   1
Atom   5C    basis set group =>   1
Atom   6C    basis set group =>   1
Atom   7O    basis set group =>   3
Atom   8O    basis set group =>   3
Atom   9C    basis set group =>   1
Atom  10C    basis set group =>   1
Atom  11C    basis set group =>   1
Atom  12O    basis set group =>   3
Atom  13O    basis set group =>   3
Atom  14C    basis set group =>   1
Atom  15O    basis set group =>   3
Atom  16O    basis set group =>   3
Atom  17H    basis set group =>   4
Atom  18H    basis set group =>   4
Atom  19H    basis set group =>   4
Atom  20H    basis set group =>   4
Atom  21H    basis set group =>   4
Atom  22H    basis set group =>   4
Atom  23H    basis set group =>   4
Atom  24H    basis set group =>   4
Atom  25H    basis set group =>   4
Atom  26H    basis set group =>   4
Atom  27H    basis set group =>   4
Atom  28H    basis set group =>   4
Atom  29H    basis set group =>   4
Atom  30H    basis set group =>   4
Atom  31H    basis set group =>   4
---------------------------------
AUXILIARY/J BASIS SET INFORMATION
---------------------------------
There are 4 groups of distinct atoms

 Group   1 Type C   : 12s5p4d2f1g contracted to 6s4p3d1f1g pattern {711111/2111/211/2/1}
 Group   2 Type P   : 14s5p5d2f1g contracted to 8s4p3d1f1g pattern {71111111/2111/311/2/1}
 Group   3 Type O   : 12s5p4d2f1g contracted to 6s4p3d1f1g pattern {711111/2111/211/2/1}
 Group   4 Type H   : 5s2p1d contracted to 3s1p1d pattern {311/2/1}

Atom   0C    basis set group =>   1
Atom   1C    basis set group =>   1
Atom   2P    basis set group =>   2
Atom   3O    basis set group =>   3
Atom   4C    basis set group =>   1
Atom   5C    basis set group =>   1
Atom   6C    basis set group =>   1
Atom   7O    basis set group =>   3
Atom   8O    basis set group =>   3
Atom   9C    basis set group =>   1
Atom  10C    basis set group =>   1
Atom  11C    basis set group =>   1
Atom  12O    basis set group =>   3
Atom  13O    basis set group =>   3
Atom  14C    basis set group =>   1
Atom  15O    basis set group =>   3
Atom  16O    basis set group =>   3
Atom  17H    basis set group =>   4
Atom  18H    basis set group =>   4
Atom  19H    basis set group =>   4
Atom  20H    basis set group =>   4
Atom  21H    basis set group =>   4
Atom  22H    basis set group =>   4
Atom  23H    basis set group =>   4
Atom  24H    basis set group =>   4
Atom  25H    basis set group =>   4
Atom  26H    basis set group =>   4
Atom  27H    basis set group =>   4
Atom  28H    basis set group =>   4
Atom  29H    basis set group =>   4
Atom  30H    basis set group =>   4
Atom  31H    basis set group =>   4


           ************************************************************
           *        Program running with 6 parallel MPI-processes     *
           *              working on a common directory               *
           ************************************************************
------------------------------------------------------------------------------
                             ORCA STARTUP CALCULATIONS
                           -- RI-GTO INTEGRALS CHOSEN --
------------------------------------------------------------------------------
------------------------------------------------------------------------------
                   ___                                                        
                  /   \      - P O W E R E D   B Y -                         
                 /     \                                                     
                 |  |  |   _    _      __       _____    __    __             
                 |  |  |  | |  | |    /  \     |  _  \  |  |  /  |          
                  \  \/   | |  | |   /    \    | | | |  |  | /  /          
                 / \  \   | |__| |  /  /\  \   | |_| |  |  |/  /          
                |  |  |   |  __  | /  /__\  \  |    /   |      \           
                |  |  |   | |  | | |   __   |  |    \   |  |\   \          
                \     /   | |  | | |  |  |  |  | |\  \  |  | \   \       
                 \___/    |_|  |_| |__|  |__|  |_| \__\ |__|  \__/        
                                                                              
                      - O R C A' S   B I G   F R I E N D -                    
                                      &                                       
                       - I N T E G R A L  F E E D E R -                       
                                                                              
 v1 FN, 2020, v2 2021, v3 2022-2024                                           
------------------------------------------------------------------------------


----------------------
SHARK INTEGRAL PACKAGE
----------------------

Number of atoms                             ...     32
Number of basis functions                   ...    317
Number of shells                            ...    149
Maximum angular momentum                    ...      2
Integral batch strategy                     ... SHARK/LIBINT Hybrid
RI-J (if used) integral strategy            ... SPLIT-RIJ (Revised 2003 algorithm where possible)
Printlevel                                  ...      1
Contraction scheme used                     ... SEGMENTED contraction
Prescreening option                         ... SCHWARTZ
   Thresh                                   ... 2.500e-11
   Tcut                                     ... 2.500e-12
   Tpresel                                  ... 2.500e-12 
Coulomb Range Separation                    ... NOT USED
Exchange Range Separation                   ... NOT USED
Multipole approximations                    ... NOT USED
Finite Nucleus Model                        ... NOT USED
CABS basis                                  ... NOT available
Auxiliary Coulomb fitting basis             ... AVAILABLE
   # of basis functions in Aux-J            ...   1000
   # of shells in Aux-J                     ...    332
   Maximum angular momentum in Aux-J        ...      4
Auxiliary J/K fitting basis                 ... NOT available
Auxiliary Correlation fitting basis         ... NOT available
Auxiliary 'external' fitting basis          ... NOT available

Checking pre-screening integrals            ... done (  0.0 sec) Dimension = 149
Check shell pair data                       ... done (  0.0 sec)
Shell pair information
Shell pair cut-off parameter TPreSel        ...   2.5e-12
Total number of shell pairs                 ...     11175
Shell pairs after pre-screening             ...      8714
Total number of primitive shell pairs       ...     41031
Primitive shell pairs kept                  ...     20803
          la=0 lb=0:   2732 shell pairs
          la=1 lb=0:   3265 shell pairs
          la=1 lb=1:   1017 shell pairs
          la=2 lb=0:   1007 shell pairs
          la=2 lb=1:    600 shell pairs
          la=2 lb=2:     93 shell pairs

Calculating one electron integrals          ... done (  0.0 sec)
Calculating RI/J V-Matrix + Cholesky decomp.... done (  0.0 sec)
Calculating Nuclear repulsion               ... done (  0.0 sec) ENN=   1455.270641856150 Eh

Diagonalization of the overlap matrix:
Smallest eigenvalue                        ... 1.188e-03
Time for diagonalization                   ...    0.012 sec
Threshold for overlap eigenvalues          ... 1.000e-07
Number of eigenvalues below threshold      ... 0
Time for construction of square roots      ...    0.008 sec
Total time needed                          ...    0.023 sec

-------------------
DFT GRID GENERATION
-------------------

General Integration Accuracy     IntAcc      ... 4.388
Radial Grid Type                 RadialGrid  ... OptM3 with GC (2021)
Angular Grid (max. ang.)         AngularGrid ... 4 (Lebedev-302)
Angular grid pruning method      GridPruning ... 4 (adaptive)
Weight generation scheme         WeightScheme... mBecke (2022)
Basis function cutoff            BFCut       ... 1.0000e-11
Integration weight cutoff        WCut        ... 1.0000e-14
Partially contracted basis set               ... off
Rotationally invariant grid construction     ... off
Angular grids for H and He will be reduced by one unit

Total number of grid points                  ...   151165
Total number of batches                      ...     2375
Average number of points per batch           ...       63
Average number of grid points per atom       ...     4724
Initializing property integral containers    ... done (  0.0 sec)

SHARK setup successfully completed in   0.9 seconds

Maximum memory used throughout the entire STARTUP-calculation: 40.9 MB


           ************************************************************
           *        Program running with 6 parallel MPI-processes     *
           *              working on a common directory               *
           ************************************************************
-------------------------------------------------------------------------------
                                 ORCA GUESS
                   Start orbitals & Density for SCF / CASSCF
-------------------------------------------------------------------------------

------------
SCF SETTINGS
------------
Hamiltonian:
 Density Functional     Method          .... DFT(GTOs)
 Exchange Functional    Exchange        .... B88
   X-Alpha parameter    XAlpha          ....  0.666667
   Becke's b parameter  XBeta           ....  0.004200
 Correlation Functional Correlation     .... P86
 LDA part of GGA corr.  LDAOpt          .... PW91-LDA
 Gradients option       PostSCFGGA      .... off
   NL short-range parameter             ....  4.400000
 RI-approximation to the Coulomb term is turned on
   Number of AuxJ basis functions       .... 1000


General Settings:
 Integral files         IntName         .... data/geom_opt_PO_BP86/119411/119411
 Hartree-Fock type      HFTyp           .... RHF
 Total Charge           Charge          ....    0
 Multiplicity           Mult            ....    1
 Number of Electrons    NEL             ....  140
 Basis Dimension        Dim             ....  317
 Nuclear Repulsion      ENuc            ....   1455.2706418562 Eh

Convergence Acceleration:
 AO-DIIS                CNVDIIS         .... on
   Start iteration      DIISMaxIt       ....    12
   Startup error        DIISStart       ....  0.200000
   # of expansion vecs  DIISMaxEq       ....     5
   Bias factor          DIISBfac        ....   1.050
   Max. coefficient     DIISMaxC        ....  10.000
 MO-DIIS                CNVKDIIS        .... off
 Trust-Rad. Augm. Hess. CNVTRAH         .... auto
   Auto Start mean grad. ratio tolernc. ....  1.125000
   Auto Start start iteration           ....    50
   Auto Start num. interpolation iter.  ....    10
   Max. Number of Micro iterations      ....    24
   Max. Number of Macro iterations      .... Maxiter - #DIIS iter
   Number of Davidson start vectors     ....     2
   Converg. threshold    (grad. norm)   ....   1.000e-05
   Grad. Scal. Fac. for Micro threshold ....   0.100
   Minimum threshold for Micro iter.    ....   1.000e-02
   NR start threshold (gradient norm)   ....   1.000e-04
   Initial trust radius                 ....   0.400
   Minimum AH scaling param. (alpha)    ....   1.000
   Maximum AH scaling param. (alpha)    .... 1000.000
   Quad. conv. algorithm                .... NR
   White noise on init. David. guess    .... on
   Maximum white noise                  ....   0.010
   Pseudo random numbers                .... off
   Inactive MOs                         .... canonical
   Orbital update algorithm             .... Taylor
   Preconditioner                       .... Diag
   Full preconditioner red. dimension   ....   250
 SOSCF                  CNVSOSCF        .... on
   Start iteration      SOSCFMaxIt      ....   150
   Startup grad/error   SOSCFStart      ....  0.003300
   Hessian update       SOSCFHessUp     .... L-BFGS
 Level Shifting         CNVShift        .... on
   Level shift para.    LevelShift      ....    0.2500
   Turn off err/grad.   ShiftErr        ....    0.0010
 Zerner damping         CNVZerner       .... off
 Static damping         CNVDamp         .... on
   Fraction old density DampFac         ....    0.7000
   Max. Damping (<1)    DampMax         ....    0.9800
   Min. Damping (>=0)   DampMin         ....    0.0000
   Turn off err/grad.   DampErr         ....    0.1000

SCF Procedure:
 Maximum # iterations   MaxIter         ....   125
 SCF integral mode      SCFMode         .... Direct
   Integral package                     .... SHARK and LIBINT hybrid scheme
 Reset frequency        DirectResetFreq ....    20
 Integral Threshold     Thresh          ....  2.500e-11 Eh
 Primitive CutOff       TCut            ....  2.500e-12 Eh

Convergence Tolerance:
 Convergence Check Mode ConvCheckMode   .... Total+1el-Energy
 Convergence forced     ConvForced      .... 0
 Energy Change          TolE            ....  1.000e-08 Eh
 1-El. energy change                    ....  1.000e-05 Eh
 Orbital Gradient       TolG            ....  1.000e-05
 Orbital Rotation angle TolX            ....  1.000e-05
 DIIS Error             TolErr          ....  5.000e-07

------------------------------
INITIAL GUESS: MODEL POTENTIAL
------------------------------
Loading Hartree-Fock densities                     ... done
Calculating cut-offs                               ... done
Initializing the effective Hamiltonian             ... done
Setting up the integral package (SHARK)            ... done
Starting the Coulomb interaction                   ... done (   0.1 sec)
Making the grid                                    ... done (   0.2 sec)
Mapping shells                                     ... done
Starting the XC term evaluation                    ... done (   0.1 sec)
  promolecular density results
     # of electrons  =    139.994153049
     EX              =   -130.859500890
     EC              =     -5.303772132
     EX+EC           =   -136.163273022
Transforming the Hamiltonian                       ... done (   0.0 sec)
Diagonalizing the Hamiltonian                      ... done (   0.0 sec)
Back transforming the eigenvectors                 ... done (   0.0 sec)
Now organizing SCF variables                       ... done
                      ------------------
                      INITIAL GUESS DONE (   0.4 sec)
                      ------------------
             **** ENERGY FILE WAS UPDATED (data/geom_opt_PO_BP86/119411/119411.en.tmp) ****
Finished Guess after   0.5 sec
Maximum memory used throughout the entire GUESS-calculation: 22.6 MB


           ************************************************************
           *        Program running with 6 parallel MPI-processes     *
           *              working on a common directory               *
           ************************************************************

-------------------------------------------------------------------------------------------
                                      ORCA LEAN-SCF
                              memory conserving SCF solver
-------------------------------------------------------------------------------------------

----------------------------------------D-I-I-S--------------------------------------------
Iteration    Energy (Eh)           Delta-E    RMSDP     MaxDP     DIISErr   Damp  Time(sec)
-------------------------------------------------------------------------------------------
               ***  Starting incremental Fock matrix formation  ***
    1    -1218.6668444614720102     0.00e+00  4.54e-03  1.67e-01  3.32e-01  0.700   0.8
    2    -1218.9976331766997646    -3.31e-01  2.56e-03  9.89e-02  8.66e-02  0.700   0.7
                               ***Turning on AO-DIIS***
    3    -1219.0855053439622679    -8.79e-02  7.43e-04  1.77e-02  2.52e-02  0.700   0.6
    4    -1219.1503859439112603    -6.49e-02  1.08e-03  3.66e-02  1.84e-02  0.000   0.6
    5    -1219.3033199364299435    -1.53e-01  3.66e-04  1.29e-02  1.03e-02  0.000   0.6
    6    -1219.3048681872446650    -1.55e-03  1.26e-04  3.08e-03  3.52e-03  0.000   0.6
                              *** Initializing SOSCF ***
---------------------------------------S-O-S-C-F--------------------------------------
Iteration    Energy (Eh)           Delta-E    RMSDP     MaxDP     MaxGrad    Time(sec)
--------------------------------------------------------------------------------------
    7    -1219.3049831395433102    -1.15e-04  5.22e-05  1.62e-03  1.55e-03     0.7
               *** Restarting incremental Fock matrix formation ***
    8    -1219.3050051523605362    -2.20e-05  3.55e-05  8.96e-04  1.72e-04     0.7
    9    -1219.3050035947799188     1.56e-06  1.89e-05  1.00e-03  7.08e-04     0.5
   10    -1219.3050067255921931    -3.13e-06  1.71e-05  4.47e-04  2.21e-04     0.5
   11    -1219.3050067922436028    -6.67e-08  7.56e-06  2.01e-04  7.73e-05     0.5
   12    -1219.3050072142423232    -4.22e-07  9.10e-06  4.52e-04  6.05e-05     0.5
   13    -1219.3050070758367838     1.38e-07  5.16e-06  2.39e-04  7.91e-05     0.6
   14    -1219.3050072920964340    -2.16e-07  1.25e-06  2.79e-05  5.10e-06     0.6
   15    -1219.3050073068634447    -1.48e-08  4.57e-07  1.60e-05  1.14e-05     0.5
   16    -1219.3050073100362169    -3.17e-09  6.39e-07  1.80e-05  7.58e-06     0.5
                 **** Energy Check signals convergence ****

               *****************************************************
               *                     SUCCESS                       *
               *           SCF CONVERGED AFTER  16 CYCLES          *
               *****************************************************

             **** ENERGY FILE WAS UPDATED (data/geom_opt_PO_BP86/119411/119411.en.tmp) ****

----------------
TOTAL SCF ENERGY
----------------

Total Energy       :      -1219.30500731003622 Eh          -33178.97604 eV

Components:
Nuclear Repulsion  :       1455.27064185615018 Eh           39599.92739 eV
Electronic Energy  :      -2674.57564916618639 Eh          -72778.90342 eV
One Electron Energy:      -4567.30279217410953 Eh         -124282.62738 eV
Two Electron Energy:       1892.72714300792313 Eh           51503.72396 eV

Virial components:
Potential Energy   :      -2429.72255890682754 Eh          -66116.11211 eV
Kinetic Energy     :       1210.41755159679110 Eh           32937.13607 eV
Virial Ratio       :          2.00734247095271

DFT components:
N(Alpha)           :       69.999978621144 electrons
N(Beta)            :       69.999978621144 electrons
N(Total)           :      139.999957242289 electrons
E(X)               :     -132.647868778834 Eh       
E(C)               :       -5.314196764388 Eh       
E(XC)              :     -137.962065543222 Eh       

---------------
SCF CONVERGENCE
---------------

  Last Energy change         ...    3.1728e-09  Tolerance :   1.0000e-08
  Last MAX-Density change    ...    1.7975e-05  Tolerance :   1.0000e-07
  Last RMS-Density change    ...    6.3869e-07  Tolerance :   5.0000e-09
  Last DIIS Error            ...    1.5495e-03  Tolerance :   5.0000e-07
  Last Orbital Gradient      ...    7.5753e-06  Tolerance :   1.0000e-05
  Last Orbital Rotation      ...    1.2471e-05  Tolerance :   1.0000e-05


----------------
ORBITAL ENERGIES
----------------

  NO   OCC          E(Eh)            E(eV) 
   0   2.0000     -76.402221     -2079.0101 
   1   2.0000     -18.830896      -512.4147 
   2   2.0000     -18.825714      -512.2737 
   3   2.0000     -18.820209      -512.1239 
   4   2.0000     -18.776729      -510.9408 
   5   2.0000     -18.767681      -510.6946 
   6   2.0000     -18.764174      -510.5991 
   7   2.0000     -18.710914      -509.1499 
   8   2.0000     -10.043066      -273.2857 
   9   2.0000     -10.035231      -273.0725 
  10   2.0000     -10.031051      -272.9588 
  11   2.0000      -9.940591      -270.4972 
  12   2.0000      -9.933873      -270.3144 
  13   2.0000      -9.929246      -270.1885 
  14   2.0000      -9.927619      -270.1443 
  15   2.0000      -9.916323      -269.8369 
  16   2.0000      -9.914381      -269.7840 
  17   2.0000      -6.364191      -173.1784 
  18   2.0000      -4.585375      -124.7744 
  19   2.0000      -4.585071      -124.7661 
  20   2.0000      -4.584833      -124.7596 
  21   2.0000      -1.016180       -27.6517 
  22   2.0000      -1.010398       -27.4943 
  23   2.0000      -1.004894       -27.3446 
  24   2.0000      -0.922552       -25.1039 
  25   2.0000      -0.914138       -24.8750 
  26   2.0000      -0.910231       -24.7686 
  27   2.0000      -0.855169       -23.2703 
  28   2.0000      -0.737322       -20.0635 
  29   2.0000      -0.724971       -19.7275 
  30   2.0000      -0.720336       -19.6014 
  31   2.0000      -0.653890       -17.7932 
  32   2.0000      -0.616392       -16.7729 
  33   2.0000      -0.609184       -16.5768 
  34   2.0000      -0.551361       -15.0033 
  35   2.0000      -0.533091       -14.5062 
  36   2.0000      -0.523816       -14.2538 
  37   2.0000      -0.478161       -13.0114 
  38   2.0000      -0.464030       -12.6269 
  39   2.0000      -0.454114       -12.3571 
  40   2.0000      -0.448368       -12.2007 
  41   2.0000      -0.443867       -12.0782 
  42   2.0000      -0.441537       -12.0148 
  43   2.0000      -0.429113       -11.6768 
  44   2.0000      -0.424386       -11.5481 
  45   2.0000      -0.422488       -11.4965 
  46   2.0000      -0.418785       -11.3957 
  47   2.0000      -0.392819       -10.6891 
  48   2.0000      -0.386783       -10.5249 
  49   2.0000      -0.380788       -10.3618 
  50   2.0000      -0.370695       -10.0871 
  51   2.0000      -0.365040        -9.9332 
  52   2.0000      -0.360670        -9.8143 
  53   2.0000      -0.347731        -9.4622 
  54   2.0000      -0.345437        -9.3998 
  55   2.0000      -0.341697        -9.2980 
  56   2.0000      -0.334085        -9.0909 
  57   2.0000      -0.328869        -8.9490 
  58   2.0000      -0.323725        -8.8090 
  59   2.0000      -0.310959        -8.4616 
  60   2.0000      -0.307184        -8.3589 
  61   2.0000      -0.293354        -7.9826 
  62   2.0000      -0.285791        -7.7768 
  63   2.0000      -0.278945        -7.5905 
  64   2.0000      -0.273982        -7.4554 
  65   2.0000      -0.242288        -6.5930 
  66   2.0000      -0.234086        -6.3698 
  67   2.0000      -0.230572        -6.2742 
  68   2.0000      -0.217513        -5.9188 
  69   2.0000      -0.215137        -5.8542 
  70   0.0000      -0.040213        -1.0942 
  71   0.0000      -0.033875        -0.9218 
  72   0.0000      -0.027033        -0.7356 
  73   0.0000       0.008375         0.2279 
  74   0.0000       0.032845         0.8937 
  75   0.0000       0.038472         1.0469 
  76   0.0000       0.039302         1.0695 
  77   0.0000       0.045253         1.2314 
  78   0.0000       0.052858         1.4384 
  79   0.0000       0.059753         1.6260 
  80   0.0000       0.069781         1.8988 
*Only the first 10 virtual orbitals were printed.

                    ********************************
                    * MULLIKEN POPULATION ANALYSIS *
                    ********************************

-----------------------
MULLIKEN ATOMIC CHARGES
-----------------------
   0 C :    0.013715
   1 C :   -0.087970
   2 P :    0.401520
   3 O :   -0.474003
   4 C :   -0.137913
   5 C :    0.009708
   6 C :    0.061090
   7 O :   -0.202903
   8 O :   -0.145690
   9 C :   -0.115732
  10 C :    0.012541
  11 C :    0.070142
  12 O :   -0.214350
  13 O :   -0.140398
  14 C :    0.067390
  15 O :   -0.214524
  16 O :   -0.144649
  17 H :    0.058200
  18 H :    0.067685
  19 H :    0.052064
  20 H :    0.049810
  21 H :    0.047676
  22 H :    0.077705
  23 H :    0.073556
  24 H :    0.050014
  25 H :    0.179486
  26 H :    0.040489
  27 H :    0.052273
  28 H :    0.070544
  29 H :    0.060758
  30 H :    0.182381
  31 H :    0.179382
Sum of atomic charges:   -0.0000000

--------------------------------
MULLIKEN REDUCED ORBITAL CHARGES
--------------------------------
  0 C s       :     2.974344  s :     2.974344
      pz      :     1.019052  p :     2.980654
      px      :     1.022365
      py      :     0.939237
      dz2     :     0.004510  d :     0.031287
      dxz     :     0.006719
      dyz     :     0.006278
      dx2y2   :     0.005521
      dxy     :     0.008260

  1 C s       :     2.994809  s :     2.994809
      pz      :     1.050908  p :     3.066860
      px      :     1.020890
      py      :     0.995062
      dz2     :     0.003437  d :     0.026301
      dxz     :     0.006203
      dyz     :     0.005796
      dx2y2   :     0.004918
      dxy     :     0.005946

  2 P s       :     5.291505  s :     5.291505
      pz      :     2.903594  p :     8.814150
      px      :     2.974952
      py      :     2.935604
      dz2     :     0.131470  d :     0.492825
      dxz     :     0.100009
      dyz     :     0.097223
      dx2y2   :     0.075889
      dxy     :     0.088234

  3 O s       :     3.822167  s :     3.822167
      pz      :     1.432445  p :     4.639733
      px      :     1.650670
      py      :     1.556618
      dz2     :     0.003765  d :     0.012103
      dxz     :     0.002480
      dyz     :     0.003779
      dx2y2   :     0.001052
      dxy     :     0.001026

  4 C s       :     3.048398  s :     3.048398
      pz      :     1.018910  p :     3.063103
      px      :     1.002313
      py      :     1.041880
      dz2     :     0.004632  d :     0.026411
      dxz     :     0.004705
      dyz     :     0.008232
      dx2y2   :     0.004852
      dxy     :     0.003990

  5 C s       :     2.976447  s :     2.976447
      pz      :     1.015071  p :     2.982342
      px      :     0.940850
      py      :     1.026421
      dz2     :     0.005261  d :     0.031502
      dxz     :     0.005737
      dyz     :     0.008572
      dx2y2   :     0.006242
      dxy     :     0.005690

  6 C s       :     3.072140  s :     3.072140
      pz      :     0.868038  p :     2.738689
      px      :     1.000628
      py      :     0.870023
      dz2     :     0.035157  d :     0.128081
      dxz     :     0.045300
      dyz     :     0.027699
      dx2y2   :     0.009536
      dxy     :     0.010389

  7 O s       :     3.745987  s :     3.745987
      pz      :     1.379139  p :     4.439629
      px      :     1.649152
      py      :     1.411338
      dz2     :     0.006149  d :     0.017287
      dxz     :     0.004716
      dyz     :     0.004896
      dx2y2   :     0.000779
      dxy     :     0.000746

  8 O s       :     3.688967  s :     3.688967
      pz      :     1.509427  p :     4.443211
      px      :     1.237999
      py      :     1.695785
      dz2     :     0.003700  d :     0.013512
      dxz     :     0.005122
      dyz     :     0.002784
      dx2y2   :     0.000985
      dxy     :     0.000922

  9 C s       :     3.016513  s :     3.016513
      pz      :     1.009458  p :     3.072600
      px      :     1.011263
      py      :     1.051880
      dz2     :     0.007693  d :     0.026619
      dxz     :     0.005717
      dyz     :     0.002790
      dx2y2   :     0.002797
      dxy     :     0.007622

 10 C s       :     2.967523  s :     2.967523
      pz      :     1.020972  p :     2.988606
      px      :     0.958649
      py      :     1.008986
      dz2     :     0.008429  d :     0.031329
      dxz     :     0.006431
      dyz     :     0.002901
      dx2y2   :     0.004099
      dxy     :     0.009469

 11 C s       :     3.078239  s :     3.078239
      pz      :     0.852805  p :     2.723258
      px      :     0.929487
      py      :     0.940965
      dz2     :     0.037727  d :     0.128361
      dxz     :     0.038110
      dyz     :     0.026376
      dx2y2   :     0.012445
      dxy     :     0.013703

 12 O s       :     3.750576  s :     3.750576
      pz      :     1.401026  p :     4.446812
      px      :     1.595416
      py      :     1.450370
      dz2     :     0.005148  d :     0.016962
      dxz     :     0.003687
      dyz     :     0.005388
      dx2y2   :     0.001526
      dxy     :     0.001213

 13 O s       :     3.689708  s :     3.689708
      pz      :     1.516997  p :     4.437128
      px      :     1.411576
      py      :     1.508555
      dz2     :     0.004085  d :     0.013562
      dxz     :     0.004020
      dyz     :     0.002787
      dx2y2   :     0.000538
      dxy     :     0.002131

 14 C s       :     3.081649  s :     3.081649
      pz      :     0.851271  p :     2.722899
      px      :     0.999619
      py      :     0.872009
      dz2     :     0.011723  d :     0.128062
      dxz     :     0.024827
      dyz     :     0.016124
      dx2y2   :     0.037433
      dxy     :     0.037955

 15 O s       :     3.749425  s :     3.749425
      pz      :     1.463546  p :     4.448149
      px      :     1.338565
      py      :     1.646039
      dz2     :     0.001976  d :     0.016949
      dxz     :     0.004835
      dyz     :     0.000411
      dx2y2   :     0.005315
      dxy     :     0.004411

 16 O s       :     3.689868  s :     3.689868
      pz      :     1.642802  p :     4.441224
      px      :     1.448772
      py      :     1.349650
      dz2     :     0.001869  d :     0.013556
      dxz     :     0.001805
      dyz     :     0.002115
      dx2y2   :     0.004055
      dxy     :     0.003712

 17 H s       :     0.918700  s :     0.918700
      pz      :     0.010660  p :     0.023099
      px      :     0.006567
      py      :     0.005872

 18 H s       :     0.909680  s :     0.909680
      pz      :     0.010088  p :     0.022634
      px      :     0.008451
      py      :     0.004095

 19 H s       :     0.924023  s :     0.924023
      pz      :     0.006203  p :     0.023913
      px      :     0.011526
      py      :     0.006184

 20 H s       :     0.926917  s :     0.926917
      pz      :     0.009142  p :     0.023272
      px      :     0.009679
      py      :     0.004452

 21 H s       :     0.929128  s :     0.929128
      pz      :     0.008432  p :     0.023196
      px      :     0.005303
      py      :     0.009460

 22 H s       :     0.898384  s :     0.898384
      pz      :     0.006101  p :     0.023910
      px      :     0.006513
      py      :     0.011296

 23 H s       :     0.903955  s :     0.903955
      pz      :     0.008003  p :     0.022489
      px      :     0.004234
      py      :     0.010251

 24 H s       :     0.926815  s :     0.926815
      pz      :     0.006827  p :     0.023172
      px      :     0.006753
      py      :     0.009592

 25 H s       :     0.755729  s :     0.755729
      pz      :     0.016024  p :     0.064785
      px      :     0.030928
      py      :     0.017833

 26 H s       :     0.936057  s :     0.936057
      pz      :     0.005306  p :     0.023453
      px      :     0.008267
      py      :     0.009880

 27 H s       :     0.924594  s :     0.924594
      pz      :     0.010921  p :     0.023133
      px      :     0.006657
      py      :     0.005555

 28 H s       :     0.906891  s :     0.906891
      pz      :     0.011045  p :     0.022565
      px      :     0.006290
      py      :     0.005231

 29 H s       :     0.916252  s :     0.916252
      pz      :     0.005123  p :     0.022991
      px      :     0.006112
      py      :     0.011755

 30 H s       :     0.752563  s :     0.752563
      pz      :     0.014864  p :     0.065056
      px      :     0.024115
      py      :     0.026077

 31 H s       :     0.755507  s :     0.755507
      pz      :     0.017086  p :     0.065112
      px      :     0.029992
      py      :     0.018034



                     *******************************
                     * LOEWDIN POPULATION ANALYSIS *
                     *******************************

----------------------
LOEWDIN ATOMIC CHARGES
----------------------
   0 C :   -0.062428
   1 C :   -0.188757
   2 P :    0.867822
   3 O :   -0.504194
   4 C :   -0.186434
   5 C :   -0.070256
   6 C :    0.056571
   7 O :   -0.175201
   8 O :   -0.024989
   9 C :   -0.189246
  10 C :   -0.066620
  11 C :    0.061301
  12 O :   -0.180808
  13 O :   -0.017105
  14 C :    0.059532
  15 O :   -0.183413
  16 O :   -0.020972
  17 H :    0.053867
  18 H :    0.050050
  19 H :    0.037682
  20 H :    0.036707
  21 H :    0.033370
  22 H :    0.044837
  23 H :    0.056127
  24 H :    0.045578
  25 H :    0.095180
  26 H :    0.035264
  27 H :    0.036929
  28 H :    0.052458
  29 H :    0.053611
  30 H :    0.097855
  31 H :    0.095683

-------------------------------
LOEWDIN REDUCED ORBITAL CHARGES
-------------------------------
  0 C s       :     2.843375  s :     2.843375
      pz      :     1.072252  p :     3.134340
      px      :     1.050735
      py      :     1.011354
      dz2     :     0.012848  d :     0.084712
      dxz     :     0.018878
      dyz     :     0.014185
      dx2y2   :     0.016606
      dxy     :     0.022196

  1 C s       :     2.883896  s :     2.883896
      pz      :     1.100103  p :     3.235524
      px      :     1.089435
      py      :     1.045986
      dz2     :     0.009373  d :     0.069337
      dxz     :     0.017572
      dyz     :     0.014277
      dx2y2   :     0.014084
      dxy     :     0.014030

  2 P s       :     4.928324  s :     4.928324
      pz      :     2.810038  p :     8.521610
      px      :     2.871490
      py      :     2.840082
      dz2     :     0.186273  d :     0.682244
      dxz     :     0.128542
      dyz     :     0.142059
      dx2y2   :     0.100611
      dxy     :     0.124760

  3 O s       :     3.653712  s :     3.653712
      pz      :     1.541367  p :     4.831675
      px      :     1.672749
      py      :     1.617560
      dz2     :     0.005908  d :     0.018808
      dxz     :     0.002926
      dyz     :     0.007272
      dx2y2   :     0.001512
      dxy     :     0.001189

  4 C s       :     2.885384  s :     2.885384
      pz      :     1.054125  p :     3.230888
      px      :     1.085988
      py      :     1.090774
      dz2     :     0.011545  d :     0.070162
      dxz     :     0.013447
      dyz     :     0.021256
      dx2y2   :     0.013289
      dxy     :     0.010625

  5 C s       :     2.842273  s :     2.842273
      pz      :     1.052780  p :     3.142819
      px      :     1.024036
      py      :     1.066004
      dz2     :     0.012808  d :     0.085164
      dxz     :     0.017482
      dyz     :     0.021900
      dx2y2   :     0.017265
      dxy     :     0.015709

  6 C s       :     2.853828  s :     2.853828
      pz      :     0.976474  p :     2.805814
      px      :     0.982955
      py      :     0.846385
      dz2     :     0.085393  d :     0.283788
      dxz     :     0.104462
      dyz     :     0.055791
      dx2y2   :     0.018138
      dxy     :     0.020003

  7 O s       :     3.556948  s :     3.556948
      pz      :     1.500898  p :     4.587816
      px      :     1.669407
      py      :     1.417510
      dz2     :     0.012505  d :     0.030436
      dxz     :     0.008658
      dyz     :     0.007076
      dx2y2   :     0.001057
      dxy     :     0.001140

  8 O s       :     3.442766  s :     3.442766
      pz      :     1.580276  p :     4.555147
      px      :     1.304381
      py      :     1.670490
      dz2     :     0.006391  d :     0.027076
      dxz     :     0.011126
      dyz     :     0.003490
      dx2y2   :     0.003429
      dxy     :     0.002641

  9 C s       :     2.885959  s :     2.885959
      pz      :     1.063616  p :     3.233256
      px      :     1.060967
      py      :     1.108673
      dz2     :     0.019060  d :     0.070031
      dxz     :     0.017404
      dyz     :     0.005969
      dx2y2   :     0.007172
      dxy     :     0.020425

 10 C s       :     2.844268  s :     2.844268
      pz      :     1.058666  p :     3.137552
      px      :     1.025434
      py      :     1.053452
      dz2     :     0.021006  d :     0.084800
      dxz     :     0.020509
      dyz     :     0.006262
      dx2y2   :     0.010816
      dxy     :     0.026207

 11 C s       :     2.855999  s :     2.855999
      pz      :     0.951559  p :     2.798441
      px      :     0.919995
      py      :     0.926887
      dz2     :     0.088053  d :     0.284259
      dxz     :     0.083896
      dyz     :     0.059419
      dx2y2   :     0.022587
      dxy     :     0.030304

 12 O s       :     3.553891  s :     3.553891
      pz      :     1.506479  p :     4.596823
      px      :     1.602250
      py      :     1.488094
      dz2     :     0.009546  d :     0.030094
      dxz     :     0.005694
      dyz     :     0.010740
      dx2y2   :     0.002102
      dxy     :     0.002012

 13 O s       :     3.441789  s :     3.441789
      pz      :     1.575966  p :     4.548227
      px      :     1.438120
      py      :     1.534141
      dz2     :     0.007336  d :     0.027089
      dxz     :     0.008432
      dyz     :     0.004136
      dx2y2   :     0.001251
      dxy     :     0.005934

 14 C s       :     2.857192  s :     2.857192
      pz      :     0.837034  p :     2.799676
      px      :     1.054715
      py      :     0.907927
      dz2     :     0.025405  d :     0.283600
      dxz     :     0.049678
      dyz     :     0.033449
      dx2y2   :     0.085970
      dxy     :     0.089098

 15 O s       :     3.554433  s :     3.554433
      pz      :     1.463374  p :     4.598925
      px      :     1.473226
      py      :     1.662325
      dz2     :     0.004165  d :     0.030055
      dxz     :     0.006543
      dyz     :     0.000618
      dx2y2   :     0.011143
      dxy     :     0.007587

 16 O s       :     3.442607  s :     3.442607
      pz      :     1.628277  p :     4.551298
      px      :     1.527047
      py      :     1.395974
      dz2     :     0.003530  d :     0.027067
      dxz     :     0.002680
      dyz     :     0.005040
      dx2y2   :     0.008256
      dxy     :     0.007560

 17 H s       :     0.877028  s :     0.877028
      pz      :     0.032343  p :     0.069105
      px      :     0.018739
      py      :     0.018023

 18 H s       :     0.879152  s :     0.879152
      pz      :     0.030372  p :     0.070799
      px      :     0.027772
      py      :     0.012654

 19 H s       :     0.888821  s :     0.888821
      pz      :     0.019340  p :     0.073497
      px      :     0.034328
      py      :     0.019828

 20 H s       :     0.890296  s :     0.890296
      pz      :     0.030681  p :     0.072996
      px      :     0.027972
      py      :     0.014344

 21 H s       :     0.893309  s :     0.893309
      pz      :     0.027851  p :     0.073321
      px      :     0.016439
      py      :     0.029030

 22 H s       :     0.881523  s :     0.881523
      pz      :     0.018621  p :     0.073641
      px      :     0.022647
      py      :     0.032372

 23 H s       :     0.873614  s :     0.873614
      pz      :     0.025789  p :     0.070259
      px      :     0.013367
      py      :     0.031103

 24 H s       :     0.884968  s :     0.884968
      pz      :     0.020333  p :     0.069453
      px      :     0.020739
      py      :     0.028382

 25 H s       :     0.734763  s :     0.734763
      pz      :     0.044631  p :     0.170057
      px      :     0.078015
      py      :     0.047411

 26 H s       :     0.893134  s :     0.893134
      pz      :     0.014767  p :     0.071602
      px      :     0.024868
      py      :     0.031967

 27 H s       :     0.890180  s :     0.890180
      pz      :     0.035386  p :     0.072891
      px      :     0.020342
      py      :     0.017163

 28 H s       :     0.876881  s :     0.876881
      pz      :     0.036290  p :     0.070662
      px      :     0.019481
      py      :     0.014890

 29 H s       :     0.876925  s :     0.876925
      pz      :     0.014207  p :     0.069464
      px      :     0.018684
      py      :     0.036573

 30 H s       :     0.732348  s :     0.732348
      pz      :     0.039613  p :     0.169797
      px      :     0.060335
      py      :     0.069848

 31 H s       :     0.734137  s :     0.734137
      pz      :     0.043540  p :     0.170180
      px      :     0.084990
      py      :     0.041649



                      *****************************
                      * MAYER POPULATION ANALYSIS *
                      *****************************

  NA   - Mulliken gross atomic population
  ZA   - Total nuclear charge
  QA   - Mulliken gross atomic charge
  VA   - Mayer's total valence
  BVA  - Mayer's bonded valence
  FA   - Mayer's free valence

  ATOM       NA         ZA         QA         VA         BVA        FA
  0 C      5.9863     6.0000     0.0137     3.9336     3.9336    -0.0000
  1 C      6.0880     6.0000    -0.0880     3.9076     3.9076    -0.0000
  2 P     14.5985    15.0000     0.4015     4.9533     4.9533    -0.0000
  3 O      8.4740     8.0000    -0.4740     2.1232     2.1232    -0.0000
  4 C      6.1379     6.0000    -0.1379     3.9262     3.9262    -0.0000
  5 C      5.9903     6.0000     0.0097     3.8733     3.8733    -0.0000
  6 C      5.9389     6.0000     0.0611     4.4104     4.4104    -0.0000
  7 O      8.2029     8.0000    -0.2029     2.2918     2.2918    -0.0000
  8 O      8.1457     8.0000    -0.1457     2.2879     2.2879    -0.0000
  9 C      6.1157     6.0000    -0.1157     3.9102     3.9102    -0.0000
 10 C      5.9875     6.0000     0.0125     3.9218     3.9218    -0.0000
 11 C      5.9299     6.0000     0.0701     4.4101     4.4101    -0.0000
 12 O      8.2143     8.0000    -0.2143     2.2851     2.2851    -0.0000
 13 O      8.1404     8.0000    -0.1404     2.2981     2.2981    -0.0000
 14 C      5.9326     6.0000     0.0674     4.4075     4.4075    -0.0000
 15 O      8.2145     8.0000    -0.2145     2.2850     2.2850    -0.0000
 16 O      8.1446     8.0000    -0.1446     2.2926     2.2926    -0.0000
 17 H      0.9418     1.0000     0.0582     0.9907     0.9907    -0.0000
 18 H      0.9323     1.0000     0.0677     1.0247     1.0247     0.0000
 19 H      0.9479     1.0000     0.0521     1.0165     1.0165    -0.0000
 20 H      0.9502     1.0000     0.0498     1.0031     1.0031     0.0000
 21 H      0.9523     1.0000     0.0477     0.9963     0.9963    -0.0000
 22 H      0.9223     1.0000     0.0777     1.0238     1.0238    -0.0000
 23 H      0.9264     1.0000     0.0736     1.0130     1.0130     0.0000
 24 H      0.9500     1.0000     0.0500     1.0015     1.0015     0.0000
 25 H      0.8205     1.0000     0.1795     1.0410     1.0410    -0.0000
 26 H      0.9595     1.0000     0.0405     0.9966     0.9966    -0.0000
 27 H      0.9477     1.0000     0.0523     0.9985     0.9985    -0.0000
 28 H      0.9295     1.0000     0.0705     1.0153     1.0153    -0.0000
 29 H      0.9392     1.0000     0.0608     0.9898     0.9898    -0.0000
 30 H      0.8176     1.0000     0.1824     1.0373     1.0373    -0.0000
 31 H      0.8206     1.0000     0.1794     1.0403     1.0403    -0.0000

  Mayer bond orders larger than 0.100000
B(  0-C ,  1-C ) :   1.0796 B(  0-C , 14-C ) :   0.9745 B(  0-C , 17-H ) :   0.9055 
B(  0-C , 18-H ) :   0.9150 B(  1-C ,  2-P ) :   0.9314 B(  1-C , 19-H ) :   0.9036 
B(  1-C , 20-H ) :   0.9121 B(  2-P ,  3-O ) :   1.8738 B(  2-P ,  4-C ) :   0.9605 
B(  2-P ,  9-C ) :   0.9245 B(  4-C ,  5-C ) :   1.0567 B(  4-C , 21-H ) :   0.9024 
B(  4-C , 22-H ) :   0.9163 B(  5-C ,  6-C ) :   0.9683 B(  5-C , 23-H ) :   0.9115 
B(  5-C , 24-H ) :   0.9111 B(  6-C ,  7-O ) :   2.0861 B(  6-C ,  8-O ) :   1.2639 
B(  8-O , 25-H ) :   0.9404 B(  9-C , 10-C ) :   1.0745 B(  9-C , 26-H ) :   0.9170 
B(  9-C , 27-H ) :   0.9081 B( 10-C , 11-C ) :   0.9775 B( 10-C , 28-H ) :   0.9134 
B( 10-C , 29-H ) :   0.9059 B( 11-C , 12-O ) :   2.0417 B( 11-C , 13-O ) :   1.2690 
B( 13-O , 30-H ) :   0.9409 B( 14-C , 15-O ) :   2.0451 B( 14-C , 16-O ) :   1.2618 
B( 16-O , 31-H ) :   0.9423 

-------
TIMINGS
-------

Total SCF time: 0 days 0 hours 0 min 9 sec 

Total time                  ....       9.907 sec
Sum of individual times     ....       9.841 sec  ( 99.3%)

SCF preparation             ....       0.102 sec  (  1.0%)
Fock matrix formation       ....       8.896 sec  ( 89.8%)
  Startup                   ....       0.048 sec  (  0.5% of F)
  Split-RI-J                ....       3.024 sec  ( 34.0% of F)
  XC integration            ....       5.635 sec  ( 63.3% of F)
    Basis function eval.    ....       1.726 sec  ( 30.6% of XC)
    Density eval.           ....       1.587 sec  ( 28.2% of XC)
    XC-Functional eval.     ....       0.169 sec  (  3.0% of XC)
    XC-Potential eval.      ....       1.220 sec  ( 21.7% of XC)
Diagonalization             ....       0.000 sec  (  0.0%)
Density matrix formation    ....       0.118 sec  (  1.2%)
Total Energy calculation    ....       0.044 sec  (  0.4%)
[...]
      dx2y2   :     0.002166
      dxy     :     0.002486

  8 O s       :     3.450625  s :     3.450625
      pz      :     1.581588  p :     4.562378
      px      :     1.308979
      py      :     1.671812
      dz2     :     0.006644  d :     0.026056
      dxz     :     0.006781
      dyz     :     0.005094
      dx2y2   :     0.006223
      dxy     :     0.001314

  9 C s       :     2.904415  s :     2.904415
      pz      :     1.059604  p :     3.220441
      px      :     1.061910
      py      :     1.098927
      dz2     :     0.017791  d :     0.066439
      dxz     :     0.017822
      dyz     :     0.005866
      dx2y2   :     0.006091
      dxy     :     0.018869

 10 C s       :     2.856805  s :     2.856805
      pz      :     1.056138  p :     3.138674
      px      :     1.030846
      py      :     1.051690
      dz2     :     0.019159  d :     0.082253
      dxz     :     0.020327
      dyz     :     0.007966
      dx2y2   :     0.009384
      dxy     :     0.025416

 11 C s       :     2.860422  s :     2.860422
      pz      :     0.945135  p :     2.791934
      px      :     0.914829
      py      :     0.931970
      dz2     :     0.086377  d :     0.280379
      dxz     :     0.081410
      dyz     :     0.057864
      dx2y2   :     0.023408
      dxy     :     0.031321

 12 O s       :     3.554948  s :     3.554948
      pz      :     1.497459  p :     4.593713
      px      :     1.604238
      py      :     1.492017
      dz2     :     0.009279  d :     0.029925
      dxz     :     0.005194
      dyz     :     0.011161
      dx2y2   :     0.002287
      dxy     :     0.002004

 13 O s       :     3.445981  s :     3.445981
      pz      :     1.573177  p :     4.551620
      px      :     1.429109
      py      :     1.549334
      dz2     :     0.007230  d :     0.026461
      dxz     :     0.008242
      dyz     :     0.003730
      dx2y2   :     0.001196
      dxy     :     0.006063

 14 C s       :     2.861421  s :     2.861421
      pz      :     0.833900  p :     2.793278
      px      :     1.055805
      py      :     0.903574
      dz2     :     0.025697  d :     0.280260
      dxz     :     0.044724
      dyz     :     0.037186
      dx2y2   :     0.090893
      dxy     :     0.081760

 15 O s       :     3.554162  s :     3.554162
      pz      :     1.458143  p :     4.593451
      px      :     1.492458
      py      :     1.642850
      dz2     :     0.004097  d :     0.030012
      dxz     :     0.006445
      dyz     :     0.001040
      dx2y2   :     0.009918
      dxy     :     0.008513

 16 O s       :     3.447097  s :     3.447097
      pz      :     1.644328  p :     4.553598
      px      :     1.510595
      py      :     1.398676
      dz2     :     0.003724  d :     0.026399
      dxz     :     0.001841
      dyz     :     0.005213
      dx2y2   :     0.008944
      dxy     :     0.006678

 17 H s       :     0.879359  s :     0.879359
      pz      :     0.028345  p :     0.066405
      px      :     0.019147
      py      :     0.018912

 18 H s       :     0.877594  s :     0.877594
      pz      :     0.032138  p :     0.069128
      px      :     0.025173
      py      :     0.011817

 19 H s       :     0.889440  s :     0.889440
      pz      :     0.016433  p :     0.071961
      px      :     0.037479
      py      :     0.018049

 20 H s       :     0.893278  s :     0.893278
      pz      :     0.030947  p :     0.070164
      px      :     0.025995
      py      :     0.013223

 21 H s       :     0.896317  s :     0.896317
      pz      :     0.027882  p :     0.069124
      px      :     0.015125
      py      :     0.026117

 22 H s       :     0.878185  s :     0.878185
      pz      :     0.016324  p :     0.074271
      px      :     0.021330
      py      :     0.036617

 23 H s       :     0.871138  s :     0.871138
      pz      :     0.028696  p :     0.069054
      px      :     0.014028
      py      :     0.026330

 24 H s       :     0.890545  s :     0.890545
      pz      :     0.017080  p :     0.066698
      px      :     0.016771
      py      :     0.032847

 25 H s       :     0.734421  s :     0.734421
      pz      :     0.039031  p :     0.168847
      px      :     0.089348
      py      :     0.040468

 26 H s       :     0.895455  s :     0.895455
      pz      :     0.013406  p :     0.068747
      px      :     0.024359
      py      :     0.030982

 27 H s       :     0.893013  s :     0.893013
      pz      :     0.033572  p :     0.069924
      px      :     0.020438
      py      :     0.015914

 28 H s       :     0.874392  s :     0.874392
      pz      :     0.033666  p :     0.069304
      px      :     0.020012
      py      :     0.015626

 29 H s       :     0.880745  s :     0.880745
      pz      :     0.014138  p :     0.066765
      px      :     0.018150
      py      :     0.034477

 30 H s       :     0.731285  s :     0.731285
      pz      :     0.038298  p :     0.168300
      px      :     0.061299
      py      :     0.068703

 31 H s       :     0.732766  s :     0.732766
      pz      :     0.041670  p :     0.168420
      px      :     0.086180
      py      :     0.040570



                      *****************************
                      * MAYER POPULATION ANALYSIS *
                      *****************************

  NA   - Mulliken gross atomic population
  ZA   - Total nuclear charge
  QA   - Mulliken gross atomic charge
  VA   - Mayer's total valence
  BVA  - Mayer's bonded valence
  FA   - Mayer's free valence

  ATOM       NA         ZA         QA         VA         BVA        FA
  0 C      6.0230     6.0000    -0.0230     3.9229     3.9229    -0.0000
  1 C      6.1054     6.0000    -0.1054     3.9099     3.9099    -0.0000
  2 P     14.5620    15.0000     0.4380     4.7927     4.7927    -0.0000
  3 O      8.4830     8.0000    -0.4830     2.1096     2.1096    -0.0000
  4 C      6.1440     6.0000    -0.1440     3.9093     3.9093    -0.0000
  5 C      6.0297     6.0000    -0.0297     3.8602     3.8602    -0.0000
  6 C      5.9196     6.0000     0.0804     4.3950     4.3950    -0.0000
  7 O      8.1916     8.0000    -0.1916     2.3059     2.3059    -0.0000
  8 O      8.1632     8.0000    -0.1632     2.2728     2.2728    -0.0000
  9 C      6.1331     6.0000    -0.1331     3.9069     3.9069    -0.0000
 10 C      6.0233     6.0000    -0.0233     3.9091     3.9091    -0.0000
 11 C      5.9132     6.0000     0.0868     4.3855     4.3855    -0.0000
 12 O      8.2120     8.0000    -0.2120     2.2871     2.2871    -0.0000
 13 O      8.1500     8.0000    -0.1500     2.2909     2.2909    -0.0000
 14 C      5.9143     6.0000     0.0857     4.3788     4.3788    -0.0000
 15 O      8.2088     8.0000    -0.2088     2.2903     2.2903    -0.0000
 16 O      8.1534     8.0000    -0.1534     2.2872     2.2872    -0.0000
 17 H      0.9384     1.0000     0.0616     0.9893     0.9893    -0.0000
 18 H      0.9241     1.0000     0.0759     1.0228     1.0228    -0.0000
 19 H      0.9367     1.0000     0.0633     1.0164     1.0164    -0.0000
 20 H      0.9426     1.0000     0.0574     0.9964     0.9964    -0.0000
 21 H      0.9499     1.0000     0.0501     0.9830     0.9830    -0.0000
 22 H      0.9072     1.0000     0.0928     1.0387     1.0387    -0.0000
 23 H      0.9180     1.0000     0.0820     1.0189     1.0189    -0.0000
 24 H      0.9527     1.0000     0.0473     0.9992     0.9992    -0.0000
 25 H      0.8181     1.0000     0.1819     1.0355     1.0355    -0.0000
 26 H      0.9523     1.0000     0.0477     0.9927     0.9927    -0.0000
 27 H      0.9413     1.0000     0.0587     0.9935     0.9935    -0.0000
 28 H      0.9202     1.0000     0.0798     1.0165     1.0165    -0.0000
 29 H      0.9376     1.0000     0.0624     0.9895     0.9895    -0.0000
 30 H      0.8146     1.0000     0.1854     1.0323     1.0323    -0.0000
 31 H      0.8167     1.0000     0.1833     1.0341     1.0341    -0.0000

  Mayer bond orders larger than 0.100000
B(  0-C ,  1-C ) :   1.0749 B(  0-C , 14-C ) :   0.9691 B(  0-C , 17-H ) :   0.9086 
B(  0-C , 18-H ) :   0.9142 B(  1-C ,  2-P ) :   0.9081 B(  1-C , 19-H ) :   0.9105 
B(  1-C , 20-H ) :   0.9199 B(  2-P ,  3-O ) :   1.8133 B(  2-P ,  4-C ) :   0.9404 
B(  2-P ,  9-C ) :   0.8945 B(  4-C ,  5-C ) :   1.0536 B(  4-C , 21-H ) :   0.9153 
B(  4-C , 22-H ) :   0.9036 B(  5-C ,  6-C ) :   0.9674 B(  5-C , 23-H ) :   0.9005 
B(  5-C , 24-H ) :   0.9187 B(  6-C ,  7-O ) :   2.1020 B(  6-C ,  8-O ) :   1.2434 
B(  8-O , 25-H ) :   0.9406 B(  9-C , 10-C ) :   1.0699 B(  9-C , 26-H ) :   0.9250 
B(  9-C , 27-H ) :   0.9202 B( 10-C , 11-C ) :   0.9719 B( 10-C , 28-H ) :   0.9106 
B( 10-C , 29-H ) :   0.9106 B( 11-C , 12-O ) :   2.0377 B( 11-C , 13-O ) :   1.2600 
B( 13-O , 30-H ) :   0.9396 B( 14-C , 15-O ) :   2.0371 B( 14-C , 16-O ) :   1.2541 
B( 16-O , 31-H ) :   0.9407 

-------
TIMINGS
-------

Total SCF time: 0 days 0 hours 0 min 3 sec 

Total time                  ....       3.812 sec
Sum of individual times     ....       3.743 sec  ( 98.2%)

SCF preparation             ....       0.123 sec  (  3.2%)
Fock matrix formation       ....       3.227 sec  ( 84.7%)
  Startup                   ....       0.021 sec  (  0.7% of F)
  Split-RI-J                ....       1.148 sec  ( 35.6% of F)
  XC integration            ....       1.987 sec  ( 61.6% of F)
    Basis function eval.    ....       0.600 sec  ( 30.2% of XC)
    Density eval.           ....       0.536 sec  ( 27.0% of XC)
    XC-Functional eval.     ....       0.062 sec  (  3.1% of XC)
    XC-Potential eval.      ....       0.413 sec  ( 20.8% of XC)
Diagonalization             ....       0.000 sec  (  0.0%)
Density matrix formation    ....       0.046 sec  (  1.2%)
Total Energy calculation    ....       0.018 sec  (  0.5%)
Population analysis         ....       0.108 sec  (  2.8%)
Orbital Transformation      ....       0.027 sec  (  0.7%)
Orbital Orthonormalization  ....       0.000 sec  (  0.0%)
DIIS solution               ....       0.036 sec  (  0.9%)
SOSCF solution              ....       0.158 sec  (  4.1%)
Finished LeanSCF after   3.9 sec

Maximum memory used throughout the entire LEANSCF-calculation: 33.7 MB


-------------------------------------------------------------------------------
                          DFT DISPERSION CORRECTION                            
                                                                               
                              DFTD3 V3.1  Rev 1                                
                          USING Becke-Johnson damping                          
-------------------------------------------------------------------------------
The BP86 functional is recognized
Active option DFTDOPT                   ...         4   

molecular C6(AA) [au] = 10542.300324 


            DFT-D V3
 parameters
 s6 scaling factor         :     1.0000 
 a1 scaling factor         :     0.3946 
 s8 scaling factor         :     3.2822 
 a2 scaling factor         :     4.8516 
 ad hoc parameters k1-k3   :    16.0000     1.3333    -4.0000 

 Edisp/kcal,au: -38.220194360070  -0.060907750182 
 E6   /kcal   : -14.368278096 
 E8   /kcal   : -23.851916264 
 % E8         :  62.406580247 

-------------------------   ----------------
Dispersion correction           -0.060907750
-------------------------   ----------------


-------------------------   --------------------
FINAL SINGLE POINT ENERGY     -1219.376306582064
-------------------------   --------------------

                                *** OPTIMIZATION RUN DONE ***



           ************************************************************
           *        Program running with 6 parallel MPI-processes     *
           *              working on a common directory               *
           ************************************************************

------------------------------------------------------------------------------
                              ORCA PROPERTY CALCULATIONS
------------------------------------------------------------------------------

GBWName                                 ... data/geom_opt_PO_BP86/119411/119411.gbw
Number of atoms                         ...     32
Number of basis functions               ...    317
Max core memory                         ...   1024 MB

Electric properties:
Dipole moment                           ... YES
Quadrupole moment                       ...  NO
Static polarizability (Dipole/Dipole)   ...  NO
Static polarizability (Dipole/Quad.)    ...  NO
Static polarizability (Quad./Quad.)     ...  NO
Static polarizability (Velocity)        ...  NO

Atomic electric properties:
Dipole moment                           ...  NO
Quadrupole moment                       ...  NO
Static polarizability                   ...  NO

Choice of electric origin               ... Center of mass
Position of electric origin             ...     0.207963     0.335222    -0.100406

General magnetic properties:
Magnetizability                         ...  NO

EPR properties:
g-Tensor (aka g-matrix)                 ...  NO
Zero-Field splitting spin-orbit         ...  NO
Zero-field splitting spin-spin          ...  NO
Hyperfine couplings                     ...  NO (   0 nuclei)
Quadrupole couplings                    ...  NO (   0 nuclei)
Contact density                         ...  NO (   0 nuclei)

NMR properties:
Chemical shifts                         ...  NO (   0 nuclei)
Spin-rotation constants                 ...  NO (   0 nuclei)
Spin-spin couplings                     ...  NO (   0 nuclei,    0 pairs)

Choice of magnetic origin               ... GIAO
Position of magnetic origin             ...     0.000000     0.000000     0.000000

Properties with geometric perturbations:
SCF Hessian                             ...  NO
IR spectrum                             ...  NO
VCD spectrum                            ...  NO
X-ray spectroscopy properties:
SCF XES/XAS/RIXS spectra                ...  NO


-------------
DIPOLE MOMENT
-------------

Method             : SCF
Type of density    : Electron Density
Multiplicity       :   1
Irrep              :   0
Energy             : -1219.3153988318817937 Eh
Relativity type    : 
Basis              : AO
                                X                 Y                 Z
Electronic contribution:      2.489575233       4.303393489      -1.962616978
Nuclear contribution   :     -3.173984543      -5.001831144       1.964998518
                        -----------------------------------------
Total Dipole Moment    :     -0.684409310      -0.698437655       0.002381540
                        -----------------------------------------
Magnitude (a.u.)       :      0.977873679
Magnitude (Debye)      :      2.485557363



--------------------
Rotational spectrum 
--------------------
 
Rotational constants in cm-1:             0.015936             0.009163             0.006575 
Rotational constants in MHz :           477.750407           274.687147           197.116186 

Dipole components along the rotational axes: 
x,y,z [a.u.] :    -0.543004    -0.737185     0.343426 
x,y,z [Debye]:    -1.380207    -1.873776     0.872918 

 

Dipole moment calculation done in   0.0 sec 

Maximum memory used throughout the entire PROP-calculation: 17.2 MB

--------------------------------
SUGGESTED CITATIONS FOR THIS RUN
--------------------------------

Below you find a list of papers that are relevant to this ORCA run
We neither can nor want to force you to cite these papers, but we appreciate if you do
You receive ORCA, which is the product of decades of hard work by many enthusiastic individuals, for free
The only thing we kindly ask in return is that you cite our papers,
We deeply appreciate it, if you show your appreciation for ORCA by not just citing the generic ORCA reference.

Please note that relegating all ORCA citations to the supporting information does *not* help us.
SI sections are not indexed - citations you put there will not count into any citation statistics
But we need these citations in order to attract the funding resources that allow us to do what we are doing

Therefore, if you are a happy ORCA user, please consider citing a few of the papers listed below in the main body of your paper

In addition to the list printed below, the program has created the file data/geom_opt_PO_BP86/119411/119411.bibtex that contains the list in bibtex format
You can import this file easily into all common literature databanks and citation aid programs


List of essential papers. We consider these as the minimum necessary citations

  1. Neese,F.
     Software update: the ORCA program system, version 5.0
     WIRES Comput. Molec. Sci., 2022 12(1)e1606
     doi.org/10.1002/wcms.1606

List of papers to cite with high priority. The work reported in these papers was absolutely
necessary for this run to complete.
Our perspective: the developers of density functionals and basis sets usually get cited in chemistry papers
Good! But without the algorithms to do something with them, the functionals or basis sets would not do anything.
Hence, in our opinion, the algorithm design and method developments papers are equally worthy of getting cited

  1. Neese,F.
     An improvement of the resolution of the identity approximation for the formation of the Coulomb matrix
     J. Comp. Chem., 2003 24(14)1740-1747
     doi.org/10.1002/jcc.10318
  2. Neese,F.
     The SHARK Integral Generation and Digestion System
     J. Comp. Chem., 2022  1-16
     doi.org/10.1002/jcc.26942
  3. Grimme,S.; Antony,J.; Ehrlich,S.; Krieg,H.
     A consistent and accurate ab initio parametrization of density functional dispersion correction (DFT-D) for the 94 elements H-Pu
     J. Chem. Phys., 2010 132 154104-XXXX
     doi.org/10.1063/1.3382344
  4. Grimme,S.; Ehrlich,S.; Goerigk,L.
     Effect of the damping function in dispersion corrected density functional theory
     J. Comput. Chem., 2011 32(7)1456-1465
     doi.org/10.1002/jcc.21759

List of suggested additional citations. These are papers that are important in the 'surrounding' of 
of this run, or papers that preceded the highly important papers. If you like your results we are grateful for a citation.

  1. Neese,F.
     The ORCA program system
     WIRES Comput. Molec. Sci., 2012 2(1)73-78
     doi.org/10.1002/wcms.81
  2. Neese,F.
     Software update: the ORCA program system, version 4.0
     WIRES Comput. Molec. Sci., 2018 8(1)1-6
     doi.org/10.1002/wcms.1327
  3. Neese,F.; Wennmohs,F.; Becker,U.; Riplinger,C.
     The ORCA quantum chemistry program package
     J. Chem. Phys., 2020 152 Art. No. L224108
     doi.org/10.1063/5.0004608

List of optional additional citations

  1. Neese,F.
     Approximate second-order SCF convergence for spin unrestricted wavefunctions
     Chem. Phys. Lett., 2000 325(1-3)93-98
     doi.org/10.1016/s0009-2614(00)00662-x

Timings for individual modules:

Sum of individual times          ...      282.821 sec (=   4.714 min)
Startup calculation              ...       25.731 sec (=   0.429 min)   9.1 %
SCF iterations                   ...      160.586 sec (=   2.676 min)  56.8 %
Property calculations            ...        0.177 sec (=   0.003 min)   0.1 %
SCF Gradient evaluation          ...       96.036 sec (=   1.601 min)  34.0 %
Geometry relaxation              ...        0.291 sec (=   0.005 min)   0.1 %
                             ****ORCA TERMINATED NORMALLY****
TOTAL RUN TIME: 0 days 0 hours 4 minutes 47 seconds 400 msec
