
                                 *****************
                                 * O   R   C   A *
                                 *****************

                                            #,                                       
                                            ###                                      
                                            ####                                     
                                            #####                                    
                                            ######                                   
                                           ########,                                 
                                     ,,################,,,,,                         
                               ,,#################################,,                 
                          ,,##########################################,,             
                       ,#########################################, ''#####,          
                    ,#############################################,,   '####,        
                  ,##################################################,,,,####,       
                ,###########''''           ''''###############################       
              ,#####''   ,,,,##########,,,,          '''####'''          '####       
            ,##' ,,,,###########################,,,                        '##       
           ' ,,###''''                  '''############,,,                           
         ,,##''                                '''############,,,,        ,,,,,,###''
      ,#''                                            '''#######################'''  
     '                                                          ''''####''''         
             ,#######,   #######,   ,#######,      ##                                
            ,#'     '#,  ##    ##  ,#'     '#,    #''#        ,####,   ,####,        
            ##       ##  ##   ,#'  ##            #'  '#       #'       #'  '#        
            ##       ##  #######   ##           ,######,      #####,   #    #        
            '#,     ,#'  ##    ##  '#,     ,#' ,#      #,     #,   #   #,  ,#        
             '#######'   ##     ##  '#######'  #'      '#     '####' # '####'        



                #########################################################
                #                        -***-                          #
                #          Department of theory and spectroscopy        #
                #                                                       #
                #                      Frank Neese                      #
                #                                                       #
                #     Directorship, Architecture, Infrastructure        #
                #                    SHARK, DRIVERS                     #
                #        Core code/Algorithms in most modules           #
                #                                                       #
                #        Max Planck Institute fuer Kohlenforschung      #
                #                Kaiser Wilhelm Platz 1                 #
                #                 D-45470 Muelheim/Ruhr                 #
                #                      Germany                          #
                #                                                       #
                #                  All rights reserved                  #
                #                        -***-                          #
                #########################################################


                         Program Version 6.0.0  -   RELEASE   -


 With contributions from (in alphabetic order):
   Daniel Aravena         : Magnetic Suceptibility
   Michael Atanasov       : Ab Initio Ligand Field Theory (pilot matlab implementation)
   Alexander A. Auer      : GIAO ZORA, VPT2 properties, NMR spectrum
   Ute Becker             : All parallelization in ORCA, NUMFREQ, NUMCALC
   Giovanni Bistoni       : ED, misc. LED, open-shell LED, HFLD
   Martin Brehm           : Molecular dynamics
   Dmytro Bykov           : pre 5.0 version of the SCF Hessian
   Marcos Casanova-Páez   : Triplet and SCS-CIS(D). UHF-(DLPNO)-IP/EA/STEOM-CCSD. UHF-CVS-IP/STEOM-CCSD
   Vijay G. Chilkuri      : MRCI spin determinant printing, contributions to CSF-ICE
   Pauline Colinet        : FMM embedding
   Dipayan Datta          : RHF DLPNO-CCSD density
   Achintya Kumar Dutta   : EOM-CC, STEOM-CC
   Nicolas Foglia         : Exact transition moments, OPA infrastructure, MCD improvements
   Dmitry Ganyushin       : Spin-Orbit,Spin-Spin,Magnetic field MRCI
   Miquel Garcia          : C-PCM and meta-GGA Hessian, CCSD/C-PCM, Gaussian charge scheme
   Tiago L. C. Gouveia    : GS-ROHF, GS-ROCIS
   Yang Guo               : DLPNO-NEVPT2, F12-NEVPT2, CIM, IAO-localization
   Andreas Hansen         : Spin unrestricted coupled pair/coupled cluster methods
   Ingolf Harden          : AUTO-CI MPn and infrastructure 
   Benjamin Helmich-Paris : MC-RPA, TRAH-(SCF,CASSCF), AVAS, COSX integrals, SCF dyn. polar.
   Lee Huntington         : MR-EOM, pCC
   Robert Izsak           : Overlap fitted RIJCOSX, COSX-SCS-MP3, EOM
   Riya Kayal             : Wick's Theorem for AUTO-CI, AUTO-CI UHF-CCSDT
   Emily Kempfer          : AUTO-CI, RHF CISDT and CCSDT
   Christian Kollmar      : KDIIS, OOCD, Brueckner-CCSD(T), CCSD density, CASPT2, CASPT2-K, improved NEVPT2
   Axel Koslowski         : Symmetry handling
   Simone Kossmann        : Meta GGA functionals, TD-DFT gradient, OOMP2, (MP2 Hessian; deprecated post 5.0)
   Lucas Lang             : DCDCAS
   Marvin Lechner         : AUTO-CI (C++ implementation), FIC-MRCC
   Spencer Leger          : CASSCF response
   Dagmar Lenk            : GEPOL surface, SMD, ORCA-2-JSON
   Dimitrios Liakos       : Extrapolation schemes; Compound Job, initial MDCI parallelization
   Dimitrios Manganas     : Further ROCIS development; embedding schemes. LFT, Crystal Embedding
   Dimitrios Pantazis     : SARC Basis sets
   Anastasios Papadopoulos: AUTO-CI, single reference methods and gradients
   Taras Petrenko         : pre 6.0 DFT Hessian and TD-DFT gradient, (ASA, deprecated), ECA, 1-Electron XAS/XES, NRVS
   Peter Pinski           : DLPNO-MP2, DLPNO-MP2 Gradient
   Christoph Reimann      : Effective Core Potentials
   Marius Retegan         : Local ZFS, SOC
   Christoph Riplinger    : Optimizer, TS searches, QM/MM, DLPNO-CCSD(T), (RO)-DLPNO pert. Triples
   Michael Roemelt        : Original ROCIS implementation
   Masaaki Saitow         : Open-shell DLPNO-CCSD energy and density
   Barbara Sandhoefer     : DKH picture change effects
   Kantharuban Sivalingam : CASSCF convergence/infrastructure, NEVPT2 and variants, FIC-MRCI
   Bernardo de Souza      : ESD, SOC TD-DFT
   Georgi Stoychev        : AutoAux, RI-MP2 NMR, DLPNO-MP2 response, X2C
   Van Anh Tran           : RI-MP2 g-tensors
   Willem Van den Heuvel  : Paramagnetic NMR
   Zikuan Wang            : NOTCH, Electric field optimization 
   Frank Wennmohs         : Technical directorship and infrastructure
   Hang Xu                : AUTO-CI-Response properties 


 We gratefully acknowledge several colleagues who have allowed us to
 interface, adapt or use parts of their codes:
   Stefan Grimme, W. Hujo, H. Kruse, P. Pracht,  : VdW corrections, initial TS optimization,
                  C. Bannwarth, S. Ehlert,         DFT functionals, gCP, sTDA/sTD-DF
                  L. Wittmann, M. Mueller
   Ed Valeev, F. Pavosevic, A. Kumar             : LibInt (2-el integral package), F12 methods
   Garnet Chan, S. Sharma, J. Yang, R. Olivares  : DMRG
   Ulf Ekstrom                                   : XCFun DFT Library
   Mihaly Kallay                                 : mrcc  (arbitrary order and MRCC methods)
   Frank Weinhold                                : gennbo (NPA and NBO analysis)
   Simon Mueller                                 : openCOSMO-RS
   Christopher J. Cramer and Donald G. Truhlar   : smd solvation model
   Lars Goerigk                                  : TD-DFT with DH, B97 family of functionals
   V. Asgeirsson, H. Jonsson                     : NEB implementation
   FAccTs GmbH                                   : IRC, NEB, NEB-TS, DLPNO-Multilevel, CI-OPT
                                                   MM, QMMM, 2- and 3-layer-ONIOM, Crystal-QMMM,
                                                   LR-CPCM, SF, NACMEs, symmetry and pop. for TD-DFT,
                                                   nearIR, NL-DFT gradient (VV10), updates on ESD,
                                                   ML-optimized integration grids, MBIS, APM,
                                                   GOAT, DOCKER, SOLVATOR, interface openCOSMO-RS
   S Lehtola, MJT Oliveira, MAL Marques          : LibXC Library
   Liviu Ungur et al                             : ANISO software


 Your calculation uses the libint2 library for the computation of 2-el integrals
 For citations please refer to: http://libint.valeyev.net

 Your ORCA version has been built with support for libXC version: 6.2.2
 For citations please refer to: https://libxc.gitlab.io

 This ORCA versions uses:
   CBLAS   interface :  Fast vector & matrix operations
   LAPACKE interface :  Fast linear algebra routines
   Shared memory     :  Shared parallel matrices


Your calculation utilizes the atom-pairwise dispersion correction
with the Becke-Johnson damping scheme (D3BJ)


Warning: RI is on but no J-basis has been assigned. Assigning Def2/J (nothing to worry about!)
================================================================================

----- Orbital basis set information -----
Your calculation utilizes the basis: def2-SVP
   F. Weigend and R. Ahlrichs, Phys. Chem. Chem. Phys. 7, 3297 (2005).

----- AuxJ basis set information -----
Your calculation utilizes the auxiliary basis: def2/J
   F. Weigend, Phys. Chem. Chem. Phys. 8, 1057 (2006).

================================================================================
                                        WARNINGS
                       Please study these warnings very carefully!
================================================================================


WARNING: Geometry Optimization
  ===> : Switching off AutoStart
         For restart on a previous wavefunction, please use MOREAD

================================================================================
                                       INPUT FILE
================================================================================
NAME = data/geom_opt_PO_BP86/82101/82101.inp
|  1> ! RI BP86 def2-SVP D3BJ TIGHTSCF Opt
|  2> %pal
|  3> nprocs 6
|  4> end
|  5> 
|  6> * xyz 0 1
|  7> C      5.190295   -1.759299    0.837978
|  8> C      4.194894   -2.526958    1.436820
|  9> C      2.948456   -1.962223    1.712470
| 10> C      2.677631   -0.626698    1.377435
| 11> C      3.695469    0.140675    0.799360
| 12> C      4.941932   -0.425312    0.523891
| 13> C      1.331013   -0.028287    1.700814
| 14> P      0.561082    1.105574    0.529341
| 15> O      1.340789    2.389130    0.381555
| 16> C      0.360190    0.239743   -1.030041
| 17> C     -0.398765   -1.062950   -1.045239
| 18> C      0.268040   -2.278628   -0.849047
| 19> C     -0.439179   -3.481708   -0.831063
| 20> C     -1.819430   -3.482673   -1.017700
| 21> C     -2.491002   -2.281617   -1.233079
| 22> C     -1.783823   -1.078514   -1.251065
| 23> C     -1.077764    1.380602    1.228859
| 24> C     -2.097351    2.166185    0.441872
| 25> C     -3.445680    1.777706    0.459673
| 26> C     -4.405325    2.503317   -0.248202
| 27> C     -4.031537    3.634560   -0.968831
| 28> C     -2.700538    4.044770   -0.973487
| 29> C     -1.739768    3.319743   -0.265566
| 30> H      6.162527   -2.195867    0.625614
| 31> H      4.391028   -3.564360    1.694876
| 32> H      2.187558   -2.576973    2.189045
| 33> H      3.537941    1.191267    0.561449
| 34> H      5.721659    0.181412    0.070113
| 35> H      0.614005   -0.840197    1.871832
| 36> H      1.425820    0.499066    2.658044
| 37> H     -0.118795    0.928411   -1.737346
| 38> H      1.359471    0.063787   -1.447711
| 39> H      1.348668   -2.302929   -0.725142
| 40> H      0.089927   -4.419418   -0.681221
| 41> H     -2.369253   -4.420129   -1.009976
| 42> H     -3.565564   -2.281359   -1.397450
| 43> H     -2.324536   -0.154509   -1.444826
| 44> H     -0.945159    1.885841    2.193497
| 45> H     -1.492538    0.391915    1.459087
| 46> H     -3.760424    0.901998    1.023658
| 47> H     -5.445662    2.189130   -0.232399
| 48> H     -4.777489    4.202966   -1.517828
| 49> H     -2.407513    4.936172   -1.522619
| 50> H     -0.711298    3.676640   -0.271115
| 51> **                         ****END OF INPUT****
================================================================================

                       *****************************
                       * Geometry Optimization Run *
                       *****************************

Geometry optimization settings:
Update method            Update   .... BFGS
Choice of coordinates    CoordSys .... (2022) Redundant Internals
Initial Hessian          InHess   .... Almloef's Model
Max. no of cycles        MaxIter  .... 132

Convergence Tolerances:
Energy Change            TolE     ....  5.0000e-06 Eh
Max. Gradient            TolMAXG  ....  3.0000e-04 Eh/bohr
RMS Gradient             TolRMSG  ....  1.0000e-04 Eh/bohr
Max. Displacement        TolMAXD  ....  4.0000e-03 bohr
RMS Displacement         TolRMSD  ....  2.0000e-03 bohr
Strict Convergence                .... False

------------------------------------------------------------------------------
                        ORCA OPTIMIZATION COORDINATE SETUP
------------------------------------------------------------------------------

The optimization will be done in redundant internal coordinates (2022)
Making redundant internal coordinates   ...  (2022 redundants) done
Evaluating the initial hessian          ...  (Almloef) done
Evaluating the coordinates              ...  done
Calculating the B-matrix                .... done
Calculating the G-matrix                .... done
Diagonalizing the G-matrix              .... done
Small eigenvalue found = 2.283e-03
Small eigenvalue found = 3.571e-03
Small eigenvalue found = 4.670e-03
Small eigenvalue found = 8.011e-03
Small eigenvalue found = 9.455e-03
Small eigenvalue found = 2.082e-02
Small eigenvalue found = 2.656e-02
The first mode is                       ....  103
The number of degrees of freedom        ....  126

    -----------------------------------------------------------------
                    Redundant Internal Coordinates


    -----------------------------------------------------------------
         Definition                    Initial Value    Approx d2E/dq
    -----------------------------------------------------------------
      1. B(C   1,C   0)                  1.3924         0.619347   
      2. B(C   2,C   1)                  1.3959         0.611417   
      3. B(C   3,C   2)                  1.4033         0.595026   
      4. B(C   4,C   3)                  1.3997         0.603030   
      5. B(C   5,C   4)                  1.3964         0.610309   
      6. B(C   5,C   0)                  1.3928         0.618432   
      7. B(C   6,C   3)                  1.5087         0.404042   
      8. B(P   7,C   6)                  1.8030         0.460605   
      9. B(O   8,P   7)                  1.5091         1.214498   
     10. B(C   9,P   7)                  1.7949         0.474491   
     11. B(C  10,C   9)                  1.5077         0.405421   
     12. B(C  11,C  10)                  1.4004         0.601476   
     13. B(C  12,C  11)                  1.3957         0.611926   
     14. B(C  13,C  12)                  1.3928         0.618374   
     15. B(C  14,C  13)                  1.3928         0.618369   
     16. B(C  15,C  14)                  1.3957         0.611927   
     17. B(C  15,C  10)                  1.4004         0.601477   
     18. B(C  16,P   7)                  1.8030         0.460606   
     19. B(C  17,C  16)                  1.5087         0.404044   
     20. B(C  18,C  17)                  1.4033         0.595024   
     21. B(C  19,C  18)                  1.3959         0.611416   
     22. B(C  20,C  19)                  1.3924         0.619347   
     23. B(C  21,C  20)                  1.3928         0.618435   
     24. B(C  22,C  21)                  1.3964         0.610308   
     25. B(C  22,C  17)                  1.3997         0.603027   
     26. B(H  23,C   0)                  1.0867         0.364487   
     27. B(H  24,C   1)                  1.0869         0.364278   
     28. B(H  25,C   2)                  1.0881         0.362594   
     29. B(H  26,C   4)                  1.0887         0.361889   
     30. B(H  27,C   5)                  1.0872         0.363824   
     31. B(H  28,C   6)                  1.0966         0.351466   
     32. B(H  29,C   6)                  1.0970         0.350976   
     33. B(H  30,C   9)                  1.0973         0.350628   
     34. B(H  31,C   9)                  1.0973         0.350628   
     35. B(H  32,C  11)                  1.0880         0.362783   
     36. B(H  33,C  12)                  1.0871         0.364006   
     37. B(H  34,C  13)                  1.0868         0.364325   
     38. B(H  35,C  14)                  1.0871         0.364009   
     39. B(H  36,C  15)                  1.0880         0.362783   
     40. B(H  37,C  16)                  1.0970         0.350977   
     41. B(H  38,C  16)                  1.0966         0.351466   
     42. B(H  39,C  18)                  1.0881         0.362594   
     43. B(H  40,C  19)                  1.0869         0.364278   
     44. B(H  41,C  20)                  1.0867         0.364486   
     45. B(H  42,C  21)                  1.0872         0.363821   
     46. B(H  43,C  22)                  1.0886         0.361892   
     47. A(C   1,C   0,H  23)          120.1419         0.353570   
     48. A(C   5,C   0,H  23)          120.0161         0.353482   
     49. A(C   1,C   0,C   5)          119.8387         0.433786   
     50. A(C   0,C   1,C   2)          120.0151         0.432897   
     51. A(C   0,C   1,H  24)          119.9567         0.353536   
     52. A(C   2,C   1,H  24)          120.0272         0.352765   
     53. A(C   1,C   2,H  25)          118.8376         0.352489   
     54. A(C   3,C   2,H  25)          120.4838         0.350873   
     55. A(C   1,C   2,C   3)          120.6782         0.429793   
     56. A(C   2,C   3,C   6)          119.9065         0.399292   
     57. A(C   2,C   3,C   4)          118.6884         0.428729   
     58. A(C   4,C   3,C   6)          121.3431         0.400231   
     59. A(C   5,C   4,H  26)          118.5031         0.352265   
     60. A(C   3,C   4,C   5)          120.5563         0.430685   
     61. A(C   3,C   4,H  26)          120.9390         0.351551   
     62. A(C   0,C   5,H  27)          120.0487         0.353373   
     63. A(C   0,C   5,C   4)          120.1920         0.432641   
     64. A(C   4,C   5,H  27)          119.7575         0.352583   
     65. A(P   7,C   6,H  29)          107.5506         0.355155   
     66. A(C   3,C   6,H  28)          108.8668         0.327220   
     67. A(C   3,C   6,H  29)          107.4924         0.327144   
     68. A(H  28,C   6,H  29)          106.0424         0.288571   
     69. A(C   3,C   6,P   7)          119.4286         0.406698   
     70. A(P   7,C   6,H  28)          106.7220         0.355239   
     71. A(O   8,P   7,C   9)          112.5222         0.531162   
     72. A(C   9,P   7,C  16)          107.9939         0.446460   
     73. A(O   8,P   7,C  16)          112.2031         0.528199   
     74. A(C   6,P   7,C  16)          103.4147         0.444065   
     75. A(C   6,P   7,C   9)          107.9939         0.446460   
     76. A(C   6,P   7,O   8)          112.2030         0.528199   
     77. A(H  30,C   9,H  31)          104.6448         0.288419   
     78. A(P   7,C   9,C  10)          118.8082         0.409088   
     79. A(C  10,C   9,H  31)          108.4236         0.327275   
     80. A(C  10,C   9,H  30)          108.4236         0.327275   
     81. A(P   7,C   9,H  30)          107.8261         0.356890   
     82. A(P   7,C   9,H  31)          107.8259         0.356890   
     83. A(C  11,C  10,C  15)          118.8103         0.429360   
     84. A(C   9,C  10,C  15)          120.5947         0.400290   
     85. A(C   9,C  10,C  11)          120.5946         0.400290   
     86. A(C  12,C  11,H  32)          118.8540         0.352569   
     87. A(C  10,C  11,H  32)          120.5505         0.351544   
     88. A(C  10,C  11,C  12)          120.5872         0.430690   
     89. A(C  11,C  12,H  33)          119.9151         0.352770   
     90. A(C  13,C  12,H  33)          120.0141         0.353397   
     91. A(C  11,C  12,C  13)          120.0679         0.432839   
     92. A(C  14,C  13,H  34)          120.0648         0.353449   
     93. A(C  12,C  13,H  34)          120.0649         0.353449   
     94. A(C  12,C  13,C  14)          119.8641         0.433655   
     95. A(C  13,C  14,H  35)          120.0140         0.353397   
     96. A(C  13,C  14,C  15)          120.0679         0.432839   
     97. A(C  15,C  14,H  35)          119.9152         0.352771   
     98. A(C  14,C  15,H  36)          118.8541         0.352570   
     99. A(C  10,C  15,H  36)          120.5504         0.351544   
    100. A(C  10,C  15,C  14)          120.5872         0.430690   
    101. A(P   7,C  16,C  17)          119.4287         0.406698   
    102. A(H  37,C  16,H  38)          106.0425         0.288571   
    103. A(P   7,C  16,H  38)          106.7218         0.355239   
    104. A(C  17,C  16,H  37)          107.4925         0.327145   
    105. A(P   7,C  16,H  37)          107.5506         0.355155   
    106. A(C  17,C  16,H  38)          108.8668         0.327220   
    107. A(C  18,C  17,C  22)          118.6883         0.428729   
    108. A(C  16,C  17,C  22)          121.3431         0.400231   
    109. A(C  16,C  17,C  18)          119.9064         0.399292   
    110. A(C  17,C  18,C  19)          120.6782         0.429792   
    111. A(C  19,C  18,H  39)          118.8377         0.352489   
    112. A(C  17,C  18,H  39)          120.4837         0.350873   
    113. A(C  18,C  19,C  20)          120.0151         0.432897   
    114. A(C  20,C  19,H  40)          119.9568         0.353536   
    115. A(C  18,C  19,H  40)          120.0270         0.352765   
    116. A(C  19,C  20,C  21)          119.8387         0.433786   
    117. A(C  21,C  20,H  41)          120.0160         0.353482   
    118. A(C  19,C  20,H  41)          120.1420         0.353570   
    119. A(C  22,C  21,H  42)          119.7574         0.352582   
    120. A(C  20,C  21,H  42)          120.0487         0.353372   
    121. A(C  20,C  21,C  22)          120.1921         0.432641   
    122. A(C  21,C  22,H  43)          118.5030         0.352265   
    123. A(C  17,C  22,H  43)          120.9391         0.351551   
    124. A(C  17,C  22,C  21)          120.5563         0.430684   
    125. D(C   2,C   1,C   0,C   5)      0.4523         0.026540   
    126. D(H  24,C   1,C   0,H  23)      0.1532         0.026540   
    127. D(H  24,C   1,C   0,C   5)   -179.1817         0.026540   
    128. D(C   2,C   1,C   0,H  23)    179.7872         0.026540   
    129. D(H  25,C   2,C   1,H  24)      0.1833         0.025825   
    130. D(C   3,C   2,C   1,H  24)   -179.5935         0.025825   
    131. D(H  25,C   2,C   1,C   0)   -179.4505         0.025825   
    132. D(C   3,C   2,C   1,C   0)      0.7727         0.025825   
    133. D(C   4,C   3,C   2,C   1)     -1.9711         0.024386   
    134. D(C   6,C   3,C   2,H  25)      1.0823         0.024386   
    135. D(C   6,C   3,C   2,C   1)   -179.1445         0.024386   
    136. D(C   4,C   3,C   2,H  25)    178.2557         0.024386   
    137. D(H  26,C   4,C   3,C   2)   -177.5499         0.025083   
    138. D(C   5,C   4,C   3,C   6)    179.1081         0.025083   
    139. D(C   5,C   4,C   3,C   2)      1.9770         0.025083   
    140. D(H  26,C   4,C   3,C   6)     -0.4188         0.025083   
    141. D(H  27,C   5,C   4,C   3)    179.6950         0.025726   
    142. D(H  27,C   5,C   4,H  26)     -0.7668         0.025726   
    143. D(C   0,C   5,C   4,C   3)     -0.7904         0.025726   
    144. D(H  27,C   5,C   0,C   1)    179.0683         0.026457   
    145. D(C   0,C   5,C   4,H  26)    178.7478         0.025726   
    146. D(C   4,C   5,C   0,C   1)     -0.4448         0.026457   
    147. D(C   4,C   5,C   0,H  23)   -179.7806         0.026457   
    148. D(H  27,C   5,C   0,H  23)     -0.2674         0.026457   
    149. D(H  29,C   6,C   3,C   2)     95.7365         0.012105   
    150. D(H  28,C   6,C   3,C   4)    164.1901         0.012105   
    151. D(H  28,C   6,C   3,C   2)    -18.7133         0.012105   
    152. D(P   7,C   6,C   3,C   2)   -141.5257         0.012105   
    153. D(P   7,C   6,C   3,C   4)     41.3776         0.012105   
    154. D(O   8,P   7,C   6,H  28)    170.3344         0.004627   
    155. D(O   8,P   7,C   6,C   3)    -65.8066         0.004627   
    156. D(C   9,P   7,C   6,H  28)    -65.0851         0.004627   
    157. D(C   9,P   7,C   6,C   3)     58.7740         0.004627   
    158. D(O   8,P   7,C   6,H  29)     56.9026         0.004627   
    159. D(C   9,P   7,C   6,H  29)   -178.5168         0.004627   
    160. D(H  30,C   9,P   7,C  16)     68.1487         0.004825   
    161. D(H  30,C   9,P   7,O   8)    -56.2408         0.004825   
    162. D(H  30,C   9,P   7,C   6)    179.3699         0.004825   
    163. D(C  10,C   9,P   7,C  16)    -55.6110         0.004825   
    164. D(C  10,C   9,P   7,O   8)    179.9996         0.004825   
    165. D(C  10,C   9,P   7,C   6)     55.6102         0.004825   
    166. D(C  15,C  10,C   9,H  30)    -33.5795         0.012184   
    167. D(C  15,C  10,C   9,P   7)     89.8860         0.012184   
    168. D(C  11,C  10,C   9,H  31)     33.5794         0.012184   
    169. D(C  11,C  10,C   9,H  30)    146.6488         0.012184   
    170. D(C  11,C  10,C   9,P   7)    -89.8858         0.012184   
    171. D(H  32,C  11,C  10,C  15)    177.6132         0.024946   
    172. D(H  32,C  11,C  10,C   9)     -2.6110         0.024946   
    173. D(C  12,C  11,C  10,C  15)     -1.3263         0.024946   
    174. D(C  12,C  11,C  10,C   9)    178.4495         0.024946   
    175. D(H  33,C  12,C  11,H  32)      0.8389         0.025871   
    176. D(H  33,C  12,C  11,C  10)    179.7962         0.025871   
    177. D(C  13,C  12,C  11,H  32)   -178.5414         0.025871   
    178. D(C  13,C  12,C  11,C  10)      0.4159         0.025871   
    179. D(H  34,C  13,C  12,H  33)      0.2321         0.026452   
    180. D(H  34,C  13,C  12,C  11)    179.6118         0.026452   
    181. D(C  14,C  13,C  12,H  33)   -178.8623         0.026452   
    182. D(C  14,C  13,C  12,C  11)      0.5174         0.026452   
    183. D(H  35,C  14,C  13,H  34)     -0.2324         0.026451   
    184. D(H  35,C  14,C  13,C  12)    178.8620         0.026451   
    185. D(C  15,C  14,C  13,H  34)   -179.6121         0.026451   
    186. D(C  15,C  14,C  13,C  12)     -0.5177         0.026451   
    187. D(C  14,C  15,C  10,C   9)   -178.4498         0.024947   
    188. D(H  36,C  15,C  14,H  35)     -0.8386         0.025871   
    189. D(H  36,C  15,C  14,C  13)    178.5417         0.025871   
    190. D(C  10,C  15,C  14,H  35)   -179.7956         0.025871   
    191. D(C  10,C  15,C  14,C  13)     -0.4153         0.025871   
    192. D(H  36,C  15,C  10,C  11)   -177.6132         0.024947   
    193. D(H  36,C  15,C  10,C   9)      2.6110         0.024947   
    194. D(C  14,C  15,C  10,C  11)      1.3260         0.024947   
    195. D(H  37,C  16,P   7,C   9)    178.5165         0.004627   
    196. D(H  37,C  16,P   7,O   8)    -56.9029         0.004627   
    197. D(H  37,C  16,P   7,C   6)     64.2250         0.004627   
    198. D(C  17,C  16,P   7,C   9)    -58.7743         0.004627   
    199. D(C  17,C  16,P   7,O   8)     65.8063         0.004627   
    200. D(C  17,C  16,P   7,C   6)   -173.0658         0.004627   
    201. D(C  22,C  17,C  16,H  37)     81.3604         0.012105   
    202. D(C  22,C  17,C  16,P   7)    -41.3775         0.012105   
    203. D(C  18,C  17,C  16,H  38)     18.7140         0.012105   
    204. D(C  18,C  17,C  16,H  37)    -95.7359         0.012105   
    205. D(C  18,C  17,C  16,P   7)    141.5263         0.012105   
    206. D(H  39,C  18,C  17,C  22)   -178.2560         0.024386   
    207. D(H  39,C  18,C  17,C  16)     -1.0829         0.024386   
    208. D(C  19,C  18,C  17,C  22)      1.9708         0.024386   
    209. D(C  19,C  18,C  17,C  16)    179.1439         0.024386   
    210. D(H  40,C  19,C  18,H  39)     -0.1831         0.025825   
    211. D(H  40,C  19,C  18,C  17)    179.5937         0.025825   
    212. D(C  20,C  19,C  18,H  39)    179.4505         0.025825   
    213. D(C  20,C  19,C  18,C  17)     -0.7726         0.025825   
    214. D(H  41,C  20,C  19,H  40)     -0.1532         0.026540   
    215. D(H  41,C  20,C  19,C  18)   -179.7871         0.026540   
    216. D(C  21,C  20,C  19,H  40)    179.1819         0.026540   
    217. D(C  21,C  20,C  19,C  18)     -0.4520         0.026540   
    218. D(H  42,C  21,C  20,H  41)      0.2678         0.026457   
    219. D(H  42,C  21,C  20,C  19)   -179.0682         0.026457   
    220. D(C  22,C  21,C  20,H  41)    179.7803         0.026457   
    221. D(C  22,C  21,C  20,C  19)      0.4444         0.026457   
    222. D(H  43,C  22,C  21,H  42)      0.7662         0.025726   
    223. D(H  43,C  22,C  21,C  20)   -178.7478         0.025726   
    224. D(C  17,C  22,C  21,H  42)   -179.6954         0.025726   
    225. D(C  17,C  22,C  21,C  20)      0.7907         0.025726   
    226. D(H  43,C  22,C  17,C  18)    177.5503         0.025082   
    227. D(H  43,C  22,C  17,C  16)      0.4195         0.025082   
    228. D(C  21,C  22,C  17,C  18)     -1.9768         0.025082   
    229. D(C  21,C  22,C  17,C  16)   -179.1076         0.025082   
    -----------------------------------------------------------------

Number of atoms                         .... 44
Number of degrees of freedom            .... 229


         *************************************************************
         *                GEOMETRY OPTIMIZATION CYCLE   1            *
         *************************************************************
---------------------------------
CARTESIAN COORDINATES (ANGSTROEM)
---------------------------------
  C      5.190295   -1.759299    0.837978
  C      4.194894   -2.526958    1.436820
  C      2.948456   -1.962223    1.712470
  C      2.677631   -0.626698    1.377435
  C      3.695469    0.140675    0.799360
  C      4.941932   -0.425312    0.523891
  C      1.331013   -0.028287    1.700814
  P      0.561082    1.105574    0.529341
  O      1.340789    2.389130    0.381555
  C      0.360190    0.239743   -1.030041
  C     -0.398765   -1.062950   -1.045239
  C      0.268040   -2.278628   -0.849047
  C     -0.439179   -3.481708   -0.831063
  C     -1.819430   -3.482673   -1.017700
  C     -2.491002   -2.281617   -1.233079
  C     -1.783823   -1.078514   -1.251065
  C     -1.077764    1.380602    1.228859
  C     -2.097351    2.166185    0.441872
  C     -3.445680    1.777706    0.459673
  C     -4.405325    2.503317   -0.248202
  C     -4.031537    3.634560   -0.968831
  C     -2.700538    4.044770   -0.973487
  C     -1.739768    3.319743   -0.265566
  H      6.162527   -2.195867    0.625614
  H      4.391028   -3.564360    1.694876
  H      2.187558   -2.576973    2.189045
  H      3.537941    1.191267    0.561449
  H      5.721659    0.181412    0.070113
  H      0.614005   -0.840197    1.871832
  H      1.425820    0.499066    2.658044
  H     -0.118795    0.928411   -1.737346
  H      1.359471    0.063787   -1.447711
  H      1.348668   -2.302929   -0.725142
  H      0.089927   -4.419418   -0.681221
  H     -2.369253   -4.420129   -1.009976
  H     -3.565564   -2.281359   -1.397450
  H     -2.324536   -0.154509   -1.444826
  H     -0.945159    1.885841    2.193497
  H     -1.492538    0.391915    1.459087
  H     -3.760424    0.901998    1.023658
  H     -5.445662    2.189130   -0.232399
  H     -4.777489    4.202966   -1.517828
  H     -2.407513    4.936172   -1.522619
  H     -0.711298    3.676640   -0.271115

----------------------------
CARTESIAN COORDINATES (A.U.)
----------------------------
  NO LB      ZA    FRAG     MASS         X           Y           Z
   0 C     6.0000    0    12.011    9.808236   -3.324593    1.583549
   1 C     6.0000    0    12.011    7.927201   -4.775259    2.715196
   2 C     6.0000    0    12.011    5.571774   -3.708064    3.236099
   3 C     6.0000    0    12.011    5.059989   -1.184288    2.602975
   4 C     6.0000    0    12.011    6.983424    0.265837    1.510571
   5 C     6.0000    0    12.011    9.338898   -0.803723    0.990011
   6 C     6.0000    0    12.011    2.515250   -0.053455    3.214073
   7 P    15.0000    0    30.974    1.060291    2.089232    1.000310
   8 O     8.0000    0    15.999    2.533724    4.514801    0.721034
   9 C     6.0000    0    12.011    0.680660    0.453049   -1.946495
  10 C     6.0000    0    12.011   -0.753557   -2.008684   -1.975215
  11 C     6.0000    0    12.011    0.506522   -4.305983   -1.604466
  12 C     6.0000    0    12.011   -0.829928   -6.579475   -1.570481
  13 C     6.0000    0    12.011   -3.438224   -6.581298   -1.923174
  14 C     6.0000    0    12.011   -4.707312   -4.311631   -2.330182
  15 C     6.0000    0    12.011   -3.370937   -2.038096   -2.364170
  16 C     6.0000    0    12.011   -2.036679    2.608960    2.322207
  17 C     6.0000    0    12.011   -3.963419    4.093496    0.835017
  18 C     6.0000    0    12.011   -6.511392    3.359377    0.868656
  19 C     6.0000    0    12.011   -8.324858    4.730584   -0.469034
  20 C     6.0000    0    12.011   -7.618501    6.868323   -1.830825
  21 C     6.0000    0    12.011   -5.103277    7.643508   -1.839624
  22 C     6.0000    0    12.011   -3.287685    6.273405   -0.501847
  23 H     1.0000    0     1.008   11.645488   -4.149587    1.182239
  24 H     1.0000    0     1.008    8.297840   -6.735664    3.202851
  25 H     1.0000    0     1.008    4.133886   -4.869773    4.136696
  26 H     1.0000    0     1.008    6.685740    2.251168    1.060985
  27 H     1.0000    0     1.008   10.812369    0.342819    0.132494
  28 H     1.0000    0     1.008    1.160301   -1.587742    3.537250
  29 H     1.0000    0     1.008    2.694409    0.943098    5.022975
  30 H     1.0000    0     1.008   -0.224490    1.754443   -3.283108
  31 H     1.0000    0     1.008    2.569028    0.120540   -2.735777
  32 H     1.0000    0     1.008    2.548613   -4.351905   -1.370320
  33 H     1.0000    0     1.008    0.169937   -8.351490   -1.287321
  34 H     1.0000    0     1.008   -4.477239   -8.352833   -1.908578
  35 H     1.0000    0     1.008   -6.737939   -4.311144   -2.640798
  36 H     1.0000    0     1.008   -4.392736   -0.291980   -2.730325
  37 H     1.0000    0     1.008   -1.786092    3.563723    4.145109
  38 H     1.0000    0     1.008   -2.820488    0.740612    2.757275
  39 H     1.0000    0     1.008   -7.106172    1.704529    1.934433
  40 H     1.0000    0     1.008  -10.290810    4.136856   -0.439170
  41 H     1.0000    0     1.008   -9.028146    7.942455   -2.868279
  42 H     1.0000    0     1.008   -4.549540    9.328013   -2.877333
  43 H     1.0000    0     1.008   -1.344158    6.947843   -0.512333

--------------------------------
INTERNAL COORDINATES (ANGSTROEM)
--------------------------------
 C      0   0   0     0.000000000000     0.00000000     0.00000000
 C      1   0   0     1.392384728459     0.00000000     0.00000000
 C      2   1   0     1.395892628596   120.01507151     0.00000000
 C      3   2   1     1.403289584325   120.67820369     0.77266637
 C      4   3   2     1.399652178578   118.68835791   358.02888309
 C      1   2   3     1.392787183854   119.83866478     0.45234697
 C      4   3   2     1.508658258349   119.90645502   180.85548458
 P      7   4   3     1.802992928941   119.42855016   218.47427714
 O      8   7   4     1.509072467704   112.20304413   294.19343900
 C      8   7   4     1.794907556993   107.99390060    58.77397857
 C     10   8   7     1.507730985116   118.80820234    55.61020827
 C     11  10   8     1.400354672422   120.59463339   270.11421060
 C     12  11  10     1.395666014710   120.58721299   178.44951518
 C     13  12  11     1.392812666512   120.06787323     0.41586013
 C     14  13  12     1.392814625125   119.86407475     0.51743880
 C     15  14  13     1.395665598503   120.06790608   359.48228982
 C      8   7   4     1.802992524894   103.41473658   173.06545115
 C     17   8   7     1.508657296614   119.42866881   186.93424824
 C     18  17   8     1.403290383806   119.90644722   141.52626014
 C     19  18  17     1.395892855835   120.67817131   179.14387702
 C     20  19  18     1.392384411588   120.01511822   359.22740939
 C     21  20  19     1.392785791296   119.83867306   359.54797068
 C     22  21  20     1.396386510201   120.19207396     0.44436264
 H      1   2   3     1.086703800004   120.14189669   179.78723197
 H      2   1   3     1.086859859732   119.95673912   180.36594505
 H      3   2   1     1.088120884612   118.83761307   180.54953997
 H      5   4   3     1.088650662595   120.93896466   182.45007525
 H      6   1   2     1.087199466514   120.04866782   179.06832874
 H      7   4   3     1.096606345271   108.86681240   341.28669789
 H      7   4   3     1.096986247297   107.49244289    95.73651888
 H     10   8   7     1.097255944379   107.82610140   179.36986861
 H     10   8   7     1.097256241630   107.82593884   291.85071685
 H     12  11  10     1.087979715808   120.55045229   357.38898879
 H     13  12  11     1.087062936678   119.91512004   179.79617589
 H     14  13  12     1.086825074904   120.06492187   179.61182223
 H     15  14  13     1.087060892521   120.01400700   178.86197761
 H     16  15  14     1.087979371824   118.85408913   178.54168844
 H     17   8   7     1.096985416580   107.55056289    64.22498485
 H     17   8   7     1.096605848529   106.72183053   310.79327495
 H     19  18  17     1.088121025909   120.48373759   358.91706570
 H     20  19  18     1.086859825068   120.02704833   179.59373739
 H     21  20  19     1.086704869387   120.14199099   180.21287814
 H     22  21  20     1.087201512900   120.04874316   180.93183408
 H     23  22  21     1.088649071515   118.50300847   181.25222819

---------------------------
INTERNAL COORDINATES (A.U.)
---------------------------
 C      0   0   0     0.000000000000     0.00000000     0.00000000
 C      1   0   0     2.631225809842     0.00000000     0.00000000
 C      2   1   0     2.637854780406   120.01507151     0.00000000
 C      3   2   1     2.651833000958   120.67820369     0.77266637
 C      4   3   2     2.644959300259   118.68835791   358.02888309
 C      1   2   3     2.631986340319   119.83866478     0.45234697
 C      4   3   2     2.850950937959   119.90645502   180.85548458
 P      7   4   3     3.407162857095   119.42855016   218.47427714
 O      8   7   4     2.851733680201   112.20304413   294.19343900
 C      8   7   4     3.391883718422   107.99390060    58.77397857
 C     10   8   7     2.849198645496   118.80820234    55.61020827
 C     11  10   8     2.646286821234   120.59463339   270.11421060
 C     12  11  10     2.637426542224   120.58721299   178.44951518
 C     13  12  11     2.632034495563   120.06787323     0.41586013
 C     14  13  12     2.632038196806   119.86407475     0.51743880
 C     15  14  13     2.637425755707   120.06790608   359.48228982
 C      8   7   4     3.407162093557   103.41473658   173.06545115
 C     17   8   7     2.850949120543   119.42866881   186.93424824
 C     18  17   8     2.651834511759   119.90644722   141.52626014
 C     19  18  17     2.637855209825   120.67817131   179.14387702
 C     20  19  18     2.631225211043   120.01511822   359.22740939
 C     21  20  19     2.631983708767   119.83867306   359.54797068
 C     22  21  20     2.638788081381   120.19207396     0.44436264
 H      1   2   3     2.053572570700   120.14189669   179.78723197
 H      2   1   3     2.053867480845   119.95673912   180.36594505
 H      3   2   1     2.056250472517   118.83761307   180.54953997
 H      5   4   3     2.057251607817   120.93896466   182.45007525
 H      6   1   2     2.054509244657   120.04866782   179.06832874
 H      7   4   3     2.072285669282   108.86681240   341.28669789
 H      7   4   3     2.073003580069   107.49244289    95.73651888
 H     10   8   7     2.073513233693   107.82610140   179.36986861
 H     10   8   7     2.073513795417   107.82593884   291.85071685
 H     12  11  10     2.055983702139   120.55045229   357.38898879
 H     13  12  11     2.054251240658   119.91512004   179.79617589
 H     14  13  12     2.053801747048   120.06492187   179.61182223
 H     15  14  13     2.054247377761   120.01400700   178.86197761
 H     16  15  14     2.055983052103   118.85408913   178.54168844
 H     17   8   7     2.073002010242   107.55056289    64.22498485
 H     17   8   7     2.072284730577   106.72183053   310.79327495
 H     19  18  17     2.056250739529   120.48373759   358.91706570
 H     20  19  18     2.053867415340   120.02704833   179.59373739
 H     21  20  19     2.053574591540   120.14199099   180.21287814
 H     22  21  20     2.054513111767   120.04874316   180.93183408
 H     23  22  21     2.057248601111   118.50300847   181.25222819

---------------------
BASIS SET INFORMATION
---------------------
There are 4 groups of distinct atoms

 Group   1 Type C   : 7s4p1d contracted to 3s2p1d pattern {511/31/1}
 Group   2 Type P   : 10s7p1d contracted to 4s3p1d pattern {5311/511/1}
 Group   3 Type O   : 7s4p1d contracted to 3s2p1d pattern {511/31/1}
 Group   4 Type H   : 4s1p contracted to 2s1p pattern {31/1}

Atom   0C    basis set group =>   1
Atom   1C    basis set group =>   1
Atom   2C    basis set group =>   1
Atom   3C    basis set group =>   1
Atom   4C    basis set group =>   1
Atom   5C    basis set group =>   1
Atom   6C    basis set group =>   1
Atom   7P    basis set group =>   2
Atom   8O    basis set group =>   3
Atom   9C    basis set group =>   1
Atom  10C    basis set group =>   1
Atom  11C    basis set group =>   1
Atom  12C    basis set group =>   1
Atom  13C    basis set group =>   1
Atom  14C    basis set group =>   1
Atom  15C    basis set group =>   1
Atom  16C    basis set group =>   1
Atom  17C    basis set group =>   1
Atom  18C    basis set group =>   1
Atom  19C    basis set group =>   1
Atom  20C    basis set group =>   1
Atom  21C    basis set group =>   1
Atom  22C    basis set group =>   1
Atom  23H    basis set group =>   4
Atom  24H    basis set group =>   4
Atom  25H    basis set group =>   4
Atom  26H    basis set group =>   4
Atom  27H    basis set group =>   4
Atom  28H    basis set group =>   4
Atom  29H    basis set group =>   4
Atom  30H    basis set group =>   4
Atom  31H    basis set group =>   4
Atom  32H    basis set group =>   4
Atom  33H    basis set group =>   4
Atom  34H    basis set group =>   4
Atom  35H    basis set group =>   4
Atom  36H    basis set group =>   4
Atom  37H    basis set group =>   4
Atom  38H    basis set group =>   4
Atom  39H    basis set group =>   4
Atom  40H    basis set group =>   4
Atom  41H    basis set group =>   4
Atom  42H    basis set group =>   4
Atom  43H    basis set group =>   4
---------------------------------
AUXILIARY/J BASIS SET INFORMATION
---------------------------------
There are 4 groups of distinct atoms

 Group   1 Type C   : 12s5p4d2f1g contracted to 6s4p3d1f1g pattern {711111/2111/211/2/1}
 Group   2 Type P   : 14s5p5d2f1g contracted to 8s4p3d1f1g pattern {71111111/2111/311/2/1}
 Group   3 Type O   : 12s5p4d2f1g contracted to 6s4p3d1f1g pattern {711111/2111/211/2/1}
 Group   4 Type H   : 5s2p1d contracted to 3s1p1d pattern {311/2/1}

Atom   0C    basis set group =>   1
Atom   1C    basis set group =>   1
Atom   2C    basis set group =>   1
Atom   3C    basis set group =>   1
Atom   4C    basis set group =>   1
Atom   5C    basis set group =>   1
Atom   6C    basis set group =>   1
Atom   7P    basis set group =>   2
Atom   8O    basis set group =>   3
Atom   9C    basis set group =>   1
Atom  10C    basis set group =>   1
Atom  11C    basis set group =>   1
Atom  12C    basis set group =>   1
Atom  13C    basis set group =>   1
Atom  14C    basis set group =>   1
Atom  15C    basis set group =>   1
Atom  16C    basis set group =>   1
Atom  17C    basis set group =>   1
Atom  18C    basis set group =>   1
Atom  19C    basis set group =>   1
Atom  20C    basis set group =>   1
Atom  21C    basis set group =>   1
Atom  22C    basis set group =>   1
Atom  23H    basis set group =>   4
Atom  24H    basis set group =>   4
Atom  25H    basis set group =>   4
Atom  26H    basis set group =>   4
Atom  27H    basis set group =>   4
Atom  28H    basis set group =>   4
Atom  29H    basis set group =>   4
Atom  30H    basis set group =>   4
Atom  31H    basis set group =>   4
Atom  32H    basis set group =>   4
Atom  33H    basis set group =>   4
Atom  34H    basis set group =>   4
Atom  35H    basis set group =>   4
Atom  36H    basis set group =>   4
Atom  37H    basis set group =>   4
Atom  38H    basis set group =>   4
Atom  39H    basis set group =>   4
Atom  40H    basis set group =>   4
Atom  41H    basis set group =>   4
Atom  42H    basis set group =>   4
Atom  43H    basis set group =>   4


           ************************************************************
           *        Program running with 6 parallel MPI-processes     *
           *              working on a common directory               *
           ************************************************************
------------------------------------------------------------------------------
                             ORCA STARTUP CALCULATIONS
                           -- RI-GTO INTEGRALS CHOSEN --
------------------------------------------------------------------------------
------------------------------------------------------------------------------
                   ___                                                        
                  /   \      - P O W E R E D   B Y -                         
                 /     \                                                     
                 |  |  |   _    _      __       _____    __    __             
                 |  |  |  | |  | |    /  \     |  _  \  |  |  /  |          
                  \  \/   | |  | |   /    \    | | | |  |  | /  /          
                 / \  \   | |__| |  /  /\  \   | |_| |  |  |/  /          
                |  |  |   |  __  | /  /__\  \  |    /   |      \           
                |  |  |   | |  | | |   __   |  |    \   |  |\   \          
                \     /   | |  | | |  |  |  |  | |\  \  |  | \   \       
                 \___/    |_|  |_| |__|  |__|  |_| \__\ |__|  \__/        
                                                                              
                      - O R C A' S   B I G   F R I E N D -                    
                                      &                                       
                       - I N T E G R A L  F E E D E R -                       
                                                                              
 v1 FN, 2020, v2 2021, v3 2022-2024                                           
------------------------------------------------------------------------------


----------------------
SHARK INTEGRAL PACKAGE
----------------------

Number of atoms                             ...     44
Number of basis functions                   ...    431
Number of shells                            ...    203
Maximum angular momentum                    ...      2
Integral batch strategy                     ... SHARK/LIBINT Hybrid
RI-J (if used) integral strategy            ... SPLIT-RIJ (Revised 2003 algorithm where possible)
Printlevel                                  ...      1
Contraction scheme used                     ... SEGMENTED contraction
Prescreening option                         ... SCHWARTZ
   Thresh                                   ... 2.500e-11
   Tcut                                     ... 2.500e-12
   Tpresel                                  ... 2.500e-12 
Coulomb Range Separation                    ... NOT USED
Exchange Range Separation                   ... NOT USED
Multipole approximations                    ... NOT USED
Finite Nucleus Model                        ... NOT USED
CABS basis                                  ... NOT available
Auxiliary Coulomb fitting basis             ... AVAILABLE
   # of basis functions in Aux-J            ...   1360
   # of shells in Aux-J                     ...    452
   Maximum angular momentum in Aux-J        ...      4
Auxiliary J/K fitting basis                 ... NOT available
Auxiliary Correlation fitting basis         ... NOT available
Auxiliary 'external' fitting basis          ... NOT available

Checking pre-screening integrals            ... done (  0.0 sec) Dimension = 203
Check shell pair data                       ... done (  0.0 sec)
Shell pair information
Shell pair cut-off parameter TPreSel        ...   2.5e-12
Total number of shell pairs                 ...     20706
Shell pairs after pre-screening             ...     15147
Total number of primitive shell pairs       ...     75450
Primitive shell pairs kept                  ...     34864
          la=0 lb=0:   4783 shell pairs
          la=1 lb=0:   5717 shell pairs
          la=1 lb=1:   1746 shell pairs
          la=2 lb=0:   1722 shell pairs
          la=2 lb=1:   1026 shell pairs
          la=2 lb=2:    153 shell pairs

Calculating one electron integrals          ... done (  0.0 sec)
Calculating RI/J V-Matrix + Cholesky decomp.... done (  0.1 sec)
Calculating Nuclear repulsion               ... done (  0.0 sec) ENN=   1975.843823722967 Eh

Diagonalization of the overlap matrix:
Smallest eigenvalue                        ... 2.760e-04
Time for diagonalization                   ...    0.026 sec
Threshold for overlap eigenvalues          ... 1.000e-07
Number of eigenvalues below threshold      ... 0
Time for construction of square roots      ...    0.015 sec
Total time needed                          ...    0.042 sec

-------------------
DFT GRID GENERATION
-------------------

General Integration Accuracy     IntAcc      ... 4.388
Radial Grid Type                 RadialGrid  ... OptM3 with GC (2021)
Angular Grid (max. ang.)         AngularGrid ... 4 (Lebedev-302)
Angular grid pruning method      GridPruning ... 4 (adaptive)
Weight generation scheme         WeightScheme... mBecke (2022)
Basis function cutoff            BFCut       ... 1.0000e-11
Integration weight cutoff        WCut        ... 1.0000e-14
Partially contracted basis set               ... off
Rotationally invariant grid construction     ... off
Angular grids for H and He will be reduced by one unit

Total number of grid points                  ...   204850
Total number of batches                      ...     3223
Average number of points per batch           ...       63
Average number of grid points per atom       ...     4656
Initializing property integral containers    ... done (  0.0 sec)

SHARK setup successfully completed in   1.7 seconds

Maximum memory used throughout the entire STARTUP-calculation: 57.4 MB


           ************************************************************
           *        Program running with 6 parallel MPI-processes     *
           *              working on a common directory               *
           ************************************************************
-------------------------------------------------------------------------------
                                 ORCA GUESS
                   Start orbitals & Density for SCF / CASSCF
-------------------------------------------------------------------------------

------------
SCF SETTINGS
------------
Hamiltonian:
 Density Functional     Method          .... DFT(GTOs)
 Exchange Functional    Exchange        .... B88
   X-Alpha parameter    XAlpha          ....  0.666667
   Becke's b parameter  XBeta           ....  0.004200
 Correlation Functional Correlation     .... P86
 LDA part of GGA corr.  LDAOpt          .... PW91-LDA
 Gradients option       PostSCFGGA      .... off
   NL short-range parameter             ....  4.400000
 RI-approximation to the Coulomb term is turned on
   Number of AuxJ basis functions       .... 1360


General Settings:
 Integral files         IntName         .... data/geom_opt_PO_BP86/82101/82101
 Hartree-Fock type      HFTyp           .... RHF
 Total Charge           Charge          ....    0
 Multiplicity           Mult            ....    1
 Number of Electrons    NEL             ....  170
 Basis Dimension        Dim             ....  431
 Nuclear Repulsion      ENuc            ....   1975.8438237230 Eh

Convergence Acceleration:
 AO-DIIS                CNVDIIS         .... on
   Start iteration      DIISMaxIt       ....    12
   Startup error        DIISStart       ....  0.200000
   # of expansion vecs  DIISMaxEq       ....     5
   Bias factor          DIISBfac        ....   1.050
   Max. coefficient     DIISMaxC        ....  10.000
 MO-DIIS                CNVKDIIS        .... off
 Trust-Rad. Augm. Hess. CNVTRAH         .... auto
   Auto Start mean grad. ratio tolernc. ....  1.125000
   Auto Start start iteration           ....    50
   Auto Start num. interpolation iter.  ....    10
   Max. Number of Micro iterations      ....    24
   Max. Number of Macro iterations      .... Maxiter - #DIIS iter
   Number of Davidson start vectors     ....     2
   Converg. threshold    (grad. norm)   ....   1.000e-05
   Grad. Scal. Fac. for Micro threshold ....   0.100
   Minimum threshold for Micro iter.    ....   1.000e-02
   NR start threshold (gradient norm)   ....   1.000e-04
   Initial trust radius                 ....   0.400
   Minimum AH scaling param. (alpha)    ....   1.000
   Maximum AH scaling param. (alpha)    .... 1000.000
   Quad. conv. algorithm                .... NR
   White noise on init. David. guess    .... on
   Maximum white noise                  ....   0.010
   Pseudo random numbers                .... off
   Inactive MOs                         .... canonical
   Orbital update algorithm             .... Taylor
   Preconditioner                       .... Diag
   Full preconditioner red. dimension   ....   250
 SOSCF                  CNVSOSCF        .... on
   Start iteration      SOSCFMaxIt      ....   150
   Startup grad/error   SOSCFStart      ....  0.003300
   Hessian update       SOSCFHessUp     .... L-BFGS
 Level Shifting         CNVShift        .... on
   Level shift para.    LevelShift      ....    0.2500
   Turn off err/grad.   ShiftErr        ....    0.0010
 Zerner damping         CNVZerner       .... off
 Static damping         CNVDamp         .... on
   Fraction old density DampFac         ....    0.7000
   Max. Damping (<1)    DampMax         ....    0.9800
   Min. Damping (>=0)   DampMin         ....    0.0000
   Turn off err/grad.   DampErr         ....    0.1000

SCF Procedure:
 Maximum # iterations   MaxIter         ....   125
 SCF integral mode      SCFMode         .... Direct
   Integral package                     .... SHARK and LIBINT hybrid scheme
 Reset frequency        DirectResetFreq ....    20
 Integral Threshold     Thresh          ....  2.500e-11 Eh
 Primitive CutOff       TCut            ....  2.500e-12 Eh

Convergence Tolerance:
 Convergence Check Mode ConvCheckMode   .... Total+1el-Energy
 Convergence forced     ConvForced      .... 0
 Energy Change          TolE            ....  1.000e-08 Eh
 1-El. energy change                    ....  1.000e-05 Eh
 Orbital Gradient       TolG            ....  1.000e-05
 Orbital Rotation angle TolX            ....  1.000e-05
 DIIS Error             TolErr          ....  5.000e-07

------------------------------
INITIAL GUESS: MODEL POTENTIAL
------------------------------
Loading Hartree-Fock densities                     ... done
Calculating cut-offs                               ... done
Initializing the effective Hamiltonian             ... done
Setting up the integral package (SHARK)            ... done
Starting the Coulomb interaction                   ... done (   0.2 sec)
Making the grid                                    ... done (   0.4 sec)
Mapping shells                                     ... done
Starting the XC term evaluation                    ... done (   0.2 sec)
  promolecular density results
     # of electrons  =    169.983956864
     EX              =   -145.100553339
     EC              =     -6.283429745
     EX+EC           =   -151.383983085
Transforming the Hamiltonian                       ... done (   0.0 sec)
Diagonalizing the Hamiltonian                      ... done (   0.0 sec)
Back transforming the eigenvectors                 ... done (   0.0 sec)
Now organizing SCF variables                       ... done
                      ------------------
                      INITIAL GUESS DONE (   0.8 sec)
                      ------------------
             **** ENERGY FILE WAS UPDATED (data/geom_opt_PO_BP86/82101/82101.en.tmp) ****
Finished Guess after   0.9 sec
Maximum memory used throughout the entire GUESS-calculation: 32.8 MB


           ************************************************************
           *        Program running with 6 parallel MPI-processes     *
           *              working on a common directory               *
           ************************************************************

-------------------------------------------------------------------------------------------
                                      ORCA LEAN-SCF
                              memory conserving SCF solver
-------------------------------------------------------------------------------------------

----------------------------------------D-I-I-S--------------------------------------------
Iteration    Energy (Eh)           Delta-E    RMSDP     MaxDP     DIISErr   Damp  Time(sec)
-------------------------------------------------------------------------------------------
               ***  Starting incremental Fock matrix formation  ***
    1    -1228.2548259885616062     0.00e+00  2.88e-03  2.01e-01  3.34e-01  0.700   1.3
    2    -1228.5076493283027048    -2.53e-01  1.76e-03  1.15e-01  8.29e-02  0.700   1.4
                               ***Turning on AO-DIIS***
    3    -1228.5932359197790902    -8.56e-02  6.16e-04  2.27e-02  2.73e-02  0.700   1.2
    4    -1228.6485918999519527    -5.54e-02  1.09e-03  4.23e-02  1.02e-02  0.000   1.2
    5    -1228.7707029321818482    -1.22e-01  2.36e-04  8.86e-03  6.92e-03  0.000   1.3
                              *** Initializing SOSCF ***
---------------------------------------S-O-S-C-F--------------------------------------
Iteration    Energy (Eh)           Delta-E    RMSDP     MaxDP     MaxGrad    Time(sec)
--------------------------------------------------------------------------------------
    6    -1228.7718638301871579    -1.16e-03  8.86e-05  2.58e-03  1.12e-03     1.2
               *** Restarting incremental Fock matrix formation ***
    7    -1228.7719249786787259    -6.11e-05  6.63e-05  2.42e-03  2.12e-04     1.3
    8    -1228.7719214432695480     3.54e-06  2.40e-05  8.77e-04  4.54e-04     1.2
    9    -1228.7719315508165892    -1.01e-05  2.57e-05  1.48e-03  2.44e-04     1.0
   10    -1228.7719296629279597     1.89e-06  1.40e-05  9.87e-04  2.16e-04     1.0
   11    -1228.7719330943468776    -3.43e-06  7.10e-06  3.24e-04  4.21e-05     1.1
   12    -1228.7719327888808039     3.05e-07  4.48e-06  2.53e-04  9.11e-05     1.1
   13    -1228.7719331814855650    -3.93e-07  2.24e-06  7.75e-05  1.07e-05     1.1
   14    -1228.7719331604507715     2.10e-08  1.17e-06  4.91e-05  1.35e-05     1.1
   15    -1228.7719331900057114    -2.96e-08  4.01e-07  1.58e-05  1.53e-06     1.0
                  *** Gradient check signals convergence ***

               *****************************************************
               *                     SUCCESS                       *
               *           SCF CONVERGED AFTER  15 CYCLES          *
               *****************************************************

             **** ENERGY FILE WAS UPDATED (data/geom_opt_PO_BP86/82101/82101.en.tmp) ****

----------------
TOTAL SCF ENERGY
----------------

Total Energy       :      -1228.77193319000571 Eh          -33436.58419 eV

Components:
Nuclear Repulsion  :       1975.84382372296704 Eh           53765.44383 eV
Electronic Energy  :      -3204.61575691297276 Eh          -87202.02801 eV
One Electron Energy:      -5600.10986458482785 Eh         -152386.73661 eV
Two Electron Energy:       2395.49410767185509 Eh           65184.70860 eV

Virial components:
Potential Energy   :      -2446.51581063405501 Eh          -66573.07972 eV
Kinetic Energy     :       1217.74387744404908 Eh           33136.49553 eV
Virial Ratio       :          2.00905613729638

DFT components:
N(Alpha)           :       84.999791812776 electrons
N(Beta)            :       84.999791812776 electrons
N(Total)           :      169.999583625551 electrons
E(X)               :     -147.363871891259 Eh       
E(C)               :       -6.286715188818 Eh       
E(XC)              :     -153.650587080077 Eh       

---------------
SCF CONVERGENCE
---------------

  Last Energy change         ...    2.9555e-08  Tolerance :   1.0000e-08
  Last MAX-Density change    ...    1.5850e-05  Tolerance :   1.0000e-07
  Last RMS-Density change    ...    4.0097e-07  Tolerance :   5.0000e-09
  Last DIIS Error            ...    1.1176e-03  Tolerance :   5.0000e-07
  Last Orbital Gradient      ...    1.5259e-06  Tolerance :   1.0000e-05
  Last Orbital Rotation      ...    5.2723e-06  Tolerance :   1.0000e-05


----------------
ORBITAL ENERGIES
----------------

  NO   OCC          E(Eh)            E(eV) 
   0   2.0000     -76.410463     -2079.2344 
   1   2.0000     -18.708595      -509.0868 
   2   2.0000      -9.934262      -270.3250 
   3   2.0000      -9.932641      -270.2809 
   4   2.0000      -9.932628      -270.2806 
   5   2.0000      -9.926088      -270.1026 
   6   2.0000      -9.926081      -270.1024 
   7   2.0000      -9.924187      -270.0509 
   8   2.0000      -9.921375      -269.9743 
   9   2.0000      -9.921349      -269.9736 
  10   2.0000      -9.919659      -269.9276 
  11   2.0000      -9.919648      -269.9273 
  12   2.0000      -9.919644      -269.9272 
  13   2.0000      -9.919639      -269.9271 
  14   2.0000      -9.919614      -269.9264 
  15   2.0000      -9.918746      -269.9028 
  16   2.0000      -9.918740      -269.9026 
  17   2.0000      -9.916031      -269.8289 
  18   2.0000      -9.916026      -269.8288 
  19   2.0000      -9.915818      -269.8231 
  20   2.0000      -9.915814      -269.8230 
  21   2.0000      -9.911638      -269.7094 
  22   2.0000      -9.911630      -269.7092 
  23   2.0000      -6.371490      -173.3771 
  24   2.0000      -4.592649      -124.9723 
  25   2.0000      -4.592371      -124.9648 
  26   2.0000      -4.592315      -124.9632 
  27   2.0000      -0.852155       -23.1883 
  28   2.0000      -0.785358       -21.3707 
  29   2.0000      -0.780787       -21.2463 
  30   2.0000      -0.780391       -21.2355 
  31   2.0000      -0.724545       -19.7159 
  32   2.0000      -0.705175       -19.1888 
  33   2.0000      -0.704513       -19.1708 
  34   2.0000      -0.676280       -18.4025 
  35   2.0000      -0.672008       -18.2863 
  36   2.0000      -0.672003       -18.2861 
  37   2.0000      -0.653161       -17.7734 
  38   2.0000      -0.627619       -17.0784 
  39   2.0000      -0.620436       -16.8829 
  40   2.0000      -0.550490       -14.9796 
  41   2.0000      -0.547383       -14.8950 
  42   2.0000      -0.546526       -14.8717 
  43   2.0000      -0.543359       -14.7856 
  44   2.0000      -0.533327       -14.5126 
  45   2.0000      -0.525093       -14.2885 
  46   2.0000      -0.491594       -13.3770 
  47   2.0000      -0.470500       -12.8029 
  48   2.0000      -0.461652       -12.5622 
  49   2.0000      -0.458350       -12.4723 
  50   2.0000      -0.432034       -11.7563 
  51   2.0000      -0.427792       -11.6408 
  52   2.0000      -0.420991       -11.4557 
  53   2.0000      -0.413209       -11.2440 
  54   2.0000      -0.410374       -11.1668 
  55   2.0000      -0.404190       -10.9986 
  56   2.0000      -0.397521       -10.8171 
  57   2.0000      -0.390780       -10.6337 
  58   2.0000      -0.383850       -10.4451 
  59   2.0000      -0.379676       -10.3315 
  60   2.0000      -0.378208       -10.2916 
  61   2.0000      -0.375888       -10.2284 
  62   2.0000      -0.373215       -10.1557 
  63   2.0000      -0.365203        -9.9377 
  64   2.0000      -0.360648        -9.8137 
  65   2.0000      -0.360342        -9.8054 
  66   2.0000      -0.339703        -9.2438 
  67   2.0000      -0.333364        -9.0713 
  68   2.0000      -0.323888        -8.8134 
  69   2.0000      -0.323630        -8.8064 
  70   2.0000      -0.315194        -8.5769 
  71   2.0000      -0.309883        -8.4323 
  72   2.0000      -0.306735        -8.3467 
  73   2.0000      -0.304694        -8.2912 
  74   2.0000      -0.303915        -8.2700 
  75   2.0000      -0.303258        -8.2521 
  76   2.0000      -0.295004        -8.0275 
  77   2.0000      -0.238726        -6.4961 
  78   2.0000      -0.238676        -6.4947 
  79   2.0000      -0.233317        -6.3489 
  80   2.0000      -0.232880        -6.3370 
  81   2.0000      -0.230651        -6.2763 
  82   2.0000      -0.227731        -6.1969 
  83   2.0000      -0.210269        -5.7217 
  84   2.0000      -0.208080        -5.6621 
  85   0.0000      -0.050612        -1.3772 
  86   0.0000      -0.050129        -1.3641 
  87   0.0000      -0.047297        -1.2870 
  88   0.0000      -0.043000        -1.1701 
  89   0.0000      -0.042107        -1.1458 
  90   0.0000      -0.039779        -1.0824 
  91   0.0000       0.023457         0.6383 
  92   0.0000       0.031782         0.8648 
  93   0.0000       0.044982         1.2240 
  94   0.0000       0.046309         1.2601 
  95   0.0000       0.053483         1.4553 
*Only the first 10 virtual orbitals were printed.

                    ********************************
                    * MULLIKEN POPULATION ANALYSIS *
                    ********************************

-----------------------
MULLIKEN ATOMIC CHARGES
-----------------------
   0 C :    0.011646
   1 C :    0.002723
   2 C :   -0.022796
   3 C :   -0.048105
   4 C :   -0.006732
   5 C :    0.005558
   6 C :   -0.013977
   7 P :    0.399414
   8 O :   -0.461179
   9 C :   -0.022649
  10 C :   -0.039430
  11 C :   -0.022577
  12 C :    0.005215
  13 C :    0.010167
  14 C :    0.005187
  15 C :   -0.022936
  16 C :   -0.014378
  17 C :   -0.047733
  18 C :   -0.022794
  19 C :    0.002777
  20 C :    0.011735
  21 C :    0.005402
  22 C :   -0.006849
  23 H :   -0.005706
  24 H :   -0.006971
  25 H :   -0.017225
  26 H :    0.011210
  27 H :   -0.002859
  28 H :    0.035854
  29 H :    0.075011
  30 H :    0.063868
  31 H :    0.063783
  32 H :    0.000646
  33 H :   -0.005339
  34 H :   -0.004768
  35 H :   -0.005299
  36 H :    0.000734
  37 H :    0.075048
  38 H :    0.035966
  39 H :   -0.017330
  40 H :   -0.006983
  41 H :   -0.005716
  42 H :   -0.002833
  43 H :    0.011222
Sum of atomic charges:   -0.0000000

--------------------------------
MULLIKEN REDUCED ORBITAL CHARGES
--------------------------------
  0 C s       :     3.165401  s :     3.165401
      pz      :     0.980375  p :     2.789929
      px      :     0.861810
      py      :     0.947743
      dz2     :     0.003767  d :     0.033025
      dxz     :     0.003497
      dyz     :     0.006019
      dx2y2   :     0.009662
      dxy     :     0.010079

  1 C s       :     3.171542  s :     3.171542
      pz      :     0.979308  p :     2.792744
      px      :     0.965215
      py      :     0.848220
      dz2     :     0.003702  d :     0.032991
      dxz     :     0.006262
      dyz     :     0.003467
      dx2y2   :     0.010838
      dxy     :     0.008722

  2 C s       :     3.226618  s :     3.226618
      pz      :     0.960905  p :     2.764013
      px      :     0.870459
      py      :     0.932650
      dz2     :     0.002608  d :     0.032165
      dxz     :     0.004878
      dyz     :     0.005416
      dx2y2   :     0.008911
      dxy     :     0.010353

  3 C s       :     3.067063  s :     3.067063
      pz      :     0.994242  p :     2.940039
      px      :     0.955886
      py      :     0.989911
      dz2     :     0.004519  d :     0.041003
      dxz     :     0.006096
      dyz     :     0.006900
      dx2y2   :     0.011869
      dxy     :     0.011619

  4 C s       :     3.243656  s :     3.243656
      pz      :     0.968477  p :     2.731436
      px      :     0.914104
      py      :     0.848855
      dz2     :     0.003465  d :     0.031640
      dxz     :     0.005887
      dyz     :     0.003359
      dx2y2   :     0.010098
      dxy     :     0.008830

  5 C s       :     3.173294  s :     3.173294
      pz      :     0.954632  p :     2.788141
      px      :     0.909252
      py      :     0.924257
      dz2     :     0.002561  d :     0.033007
      dxz     :     0.004770
      dyz     :     0.005502
      dx2y2   :     0.009241
      dxy     :     0.010933

  6 C s       :     2.971753  s :     2.971753
      pz      :     1.044923  p :     3.015916
      px      :     0.972107
      py      :     0.998886
      dz2     :     0.004777  d :     0.026309
      dxz     :     0.004102
      dyz     :     0.005783
      dx2y2   :     0.004063
      dxy     :     0.007584

  7 P s       :     5.289269  s :     5.289269
      pz      :     2.987720  p :     8.813898
      px      :     2.940061
      py      :     2.886117
      dz2     :     0.058839  d :     0.497419
      dxz     :     0.074335
      dyz     :     0.141038
      dx2y2   :     0.132169
      dxy     :     0.091038

  8 O s       :     3.826906  s :     3.826906
      pz      :     1.654492  p :     4.622432
      px      :     1.557627
      py      :     1.410313
      dz2     :     0.001307  d :     0.011841
      dxz     :     0.000974
      dyz     :     0.002487
      dx2y2   :     0.003389
      dxy     :     0.003683

  9 C s       :     2.995957  s :     2.995957
      pz      :     1.040165  p :     3.000562
      px      :     1.002582
      py      :     0.957815
      dz2     :     0.003531  d :     0.026130
      dxz     :     0.003798
      dyz     :     0.007380
      dx2y2   :     0.006151
      dxy     :     0.005270

 10 C s       :     3.064231  s :     3.064231
      pz      :     0.992197  p :     2.933794
      px      :     0.976891
      py      :     0.964705
      dz2     :     0.002987  d :     0.041406
      dxz     :     0.006090
      dyz     :     0.006347
      dx2y2   :     0.013014
      dxy     :     0.012967

 11 C s       :     3.227274  s :     3.227274
      pz      :     0.987542  p :     2.763365
      px      :     0.828004
      py      :     0.947818
      dz2     :     0.002325  d :     0.031938
      dxz     :     0.002272
      dyz     :     0.006134
      dx2y2   :     0.011844
      dxy     :     0.009363

 12 C s       :     3.174806  s :     3.174806
      pz      :     0.981241  p :     2.786933
      px      :     0.931747
      py      :     0.873946
      dz2     :     0.002294  d :     0.033046
      dxz     :     0.005353
      dyz     :     0.003418
      dx2y2   :     0.010310
      dxy     :     0.011671

 13 C s       :     3.165379  s :     3.165379
      pz      :     0.989369  p :     2.791485
      px      :     0.931529
      py      :     0.870588
      dz2     :     0.002530  d :     0.032969
      dxz     :     0.005128
      dyz     :     0.003309
      dx2y2   :     0.010217
      dxy     :     0.011785

 14 C s       :     3.174847  s :     3.174847
      pz      :     0.980593  p :     2.786920
      px      :     0.839851
      py      :     0.966476
      dz2     :     0.002346  d :     0.033046
      dxz     :     0.002397
      dyz     :     0.006425
      dx2y2   :     0.012416
      dxy     :     0.009462

 15 C s       :     3.227349  s :     3.227349
      pz      :     0.983420  p :     2.763649
      px      :     0.937186
      py      :     0.843042
      dz2     :     0.002343  d :     0.031939
      dxz     :     0.005118
      dyz     :     0.003447
      dx2y2   :     0.010130
      dxy     :     0.010901

 16 C s       :     2.971986  s :     2.971986
      pz      :     1.050983  p :     3.016083
      px      :     0.990889
      py      :     0.974212
      dz2     :     0.005875  d :     0.026309
      dxz     :     0.004708
      dyz     :     0.004638
      dx2y2   :     0.006169
      dxy     :     0.004918

 17 C s       :     3.066791  s :     3.066791
      pz      :     0.984293  p :     2.939939
      px      :     0.977242
      py      :     0.978403
      dz2     :     0.005905  d :     0.041003
      dxz     :     0.008386
      dyz     :     0.005671
      dx2y2   :     0.010479
      dxy     :     0.010562

 18 C s       :     3.226600  s :     3.226600
      pz      :     0.938601  p :     2.764028
      px      :     0.951637
      py      :     0.873789
      dz2     :     0.003643  d :     0.032166
      dxz     :     0.007303
      dyz     :     0.004049
      dx2y2   :     0.008777
      dxy     :     0.008394

 19 C s       :     3.171593  s :     3.171593
      pz      :     0.981340  p :     2.792640
      px      :     0.849960
      py      :     0.961339
      dz2     :     0.005889  d :     0.032991
      dxz     :     0.004831
      dyz     :     0.005311
      dx2y2   :     0.008996
      dxy     :     0.007964

 20 C s       :     3.165365  s :     3.165365
      pz      :     0.949703  p :     2.789875
      px      :     0.906672
      py      :     0.933500
      dz2     :     0.003731  d :     0.033025
      dxz     :     0.007100
      dyz     :     0.004439
      dx2y2   :     0.008144
      dxy     :     0.009611

 21 C s       :     3.173336  s :     3.173336
      pz      :     0.944832  p :     2.788255
      px      :     0.951827
      py      :     0.891595
      dz2     :     0.003658  d :     0.033008
      dxz     :     0.007381
      dyz     :     0.004083
      dx2y2   :     0.009231
      dxy     :     0.008654

 22 C s       :     3.243722  s :     3.243722
      pz      :     0.964050  p :     2.731488
      px      :     0.830837
      py      :     0.936601
      dz2     :     0.005370  d :     0.031639
      dxz     :     0.004700
      dyz     :     0.005256
      dx2y2   :     0.008606
      dxy     :     0.007708

 23 H s       :     0.983323  s :     0.983323
      pz      :     0.005220  p :     0.022383
      px      :     0.011763
      py      :     0.005400

 24 H s       :     0.984565  s :     0.984565
      pz      :     0.005390  p :     0.022406
      px      :     0.004210
      py      :     0.012806

 25 H s       :     0.994798  s :     0.994798
      pz      :     0.006794  p :     0.022427
      px      :     0.008749
      py      :     0.006883

 26 H s       :     0.964875  s :     0.964875
      pz      :     0.005088  p :     0.023915
      px      :     0.004456
      py      :     0.014371

 27 H s       :     0.980562  s :     0.980562
      pz      :     0.006455  p :     0.022297
      px      :     0.008926
      py      :     0.006916

 28 H s       :     0.940471  s :     0.940471
      pz      :     0.005611  p :     0.023675
      px      :     0.008020
      py      :     0.010044

 29 H s       :     0.901002  s :     0.901002
      pz      :     0.011285  p :     0.023987
      px      :     0.005130
      py      :     0.007572

 30 H s       :     0.912407  s :     0.912407
      pz      :     0.008667  p :     0.023724
      px      :     0.006927
      py      :     0.008130

 31 H s       :     0.912491  s :     0.912491
      pz      :     0.006466  p :     0.023727
      px      :     0.012114
      py      :     0.005147

 32 H s       :     0.976243  s :     0.976243
      pz      :     0.005338  p :     0.023112
      px      :     0.014098
      py      :     0.003676

 33 H s       :     0.982987  s :     0.982987
      pz      :     0.005169  p :     0.022352
      px      :     0.006090
      py      :     0.011093

 34 H s       :     0.982382  s :     0.982382
      pz      :     0.005066  p :     0.022386
      px      :     0.006255
      py      :     0.011065

 35 H s       :     0.982947  s :     0.982947
      pz      :     0.005217  p :     0.022352
      px      :     0.013397
      py      :     0.003738

 36 H s       :     0.976155  s :     0.976155
      pz      :     0.005335  p :     0.023111
      px      :     0.006295
      py      :     0.011482

 37 H s       :     0.900967  s :     0.900967
      pz      :     0.011198  p :     0.023985
      px      :     0.005527
      py      :     0.007261

 38 H s       :     0.940356  s :     0.940356
      pz      :     0.005388  p :     0.023678
      px      :     0.006420
      py      :     0.011870

 39 H s       :     0.994903  s :     0.994903
      pz      :     0.007331  p :     0.022427
      px      :     0.004483
      py      :     0.010612

 40 H s       :     0.984577  s :     0.984577
[...]
      dyz     :     0.012888
      dx2y2   :     0.023093
      dxy     :     0.025767

 21 C s       :     2.872699  s :     2.872699
      pz      :     0.996464  p :     3.067828
      px      :     1.051762
      py      :     1.019602
      dz2     :     0.010015  d :     0.086437
      dxz     :     0.018423
      dyz     :     0.010901
      dx2y2   :     0.024005
      dxy     :     0.023093

 22 C s       :     2.875797  s :     2.875797
      pz      :     0.995454  p :     3.072848
      px      :     1.047567
      py      :     1.029826
      dz2     :     0.011588  d :     0.084009
      dxz     :     0.012201
      dyz     :     0.016081
      dx2y2   :     0.023560
      dxy     :     0.020578

 23 H s       :     0.901638  s :     0.901638
      pz      :     0.016109  p :     0.065976
      px      :     0.035544
      py      :     0.014323

 24 H s       :     0.901620  s :     0.901620
      pz      :     0.013630  p :     0.065782
      px      :     0.012485
      py      :     0.039667

 25 H s       :     0.904437  s :     0.904437
      pz      :     0.017326  p :     0.066508
      px      :     0.025629
      py      :     0.023553

 26 H s       :     0.891176  s :     0.891176
      pz      :     0.013307  p :     0.074149
      px      :     0.015181
      py      :     0.045662

 27 H s       :     0.899760  s :     0.899760
      pz      :     0.016672  p :     0.065720
      px      :     0.025336
      py      :     0.023712

 28 H s       :     0.890789  s :     0.890789
      pz      :     0.014888  p :     0.070295
      px      :     0.023647
      py      :     0.031759

 29 H s       :     0.878553  s :     0.878553
      pz      :     0.036389  p :     0.069482
      px      :     0.013066
      py      :     0.020027

 30 H s       :     0.879570  s :     0.879570
      pz      :     0.025979  p :     0.069935
      px      :     0.017787
      py      :     0.026169

 31 H s       :     0.879688  s :     0.879688
      pz      :     0.019088  p :     0.069862
      px      :     0.038744
      py      :     0.012030

 32 H s       :     0.896283  s :     0.896283
      pz      :     0.014673  p :     0.069492
      px      :     0.043986
      py      :     0.010833

 33 H s       :     0.901227  s :     0.901227
      pz      :     0.014498  p :     0.065761
      px      :     0.018427
      py      :     0.032836

 34 H s       :     0.901402  s :     0.901402
      pz      :     0.014167  p :     0.066056
      px      :     0.018598
      py      :     0.033291

 35 H s       :     0.901287  s :     0.901287
      pz      :     0.014119  p :     0.065754
      px      :     0.040696
      py      :     0.010939

 36 H s       :     0.896578  s :     0.896578
      pz      :     0.015237  p :     0.069537
      px      :     0.018942
      py      :     0.035359

 37 H s       :     0.878303  s :     0.878303
      pz      :     0.035602  p :     0.069509
      px      :     0.015378
      py      :     0.018529

 38 H s       :     0.891200  s :     0.891200
      pz      :     0.014408  p :     0.070183
      px      :     0.020044
      py      :     0.035731

 39 H s       :     0.904484  s :     0.904484
      pz      :     0.018310  p :     0.066506
      px      :     0.014510
      py      :     0.033686

 40 H s       :     0.901514  s :     0.901514
      pz      :     0.013702  p :     0.065787
      px      :     0.037508
      py      :     0.014577

 41 H s       :     0.901556  s :     0.901556
      pz      :     0.023273  p :     0.065979
      px      :     0.022153
      py      :     0.020554

 42 H s       :     0.899674  s :     0.899674
      pz      :     0.017670  p :     0.065723
      px      :     0.014666
      py      :     0.033386

 43 H s       :     0.891240  s :     0.891240
      pz      :     0.013552  p :     0.074004
      px      :     0.045929
      py      :     0.014524



                      *****************************
                      * MAYER POPULATION ANALYSIS *
                      *****************************

  NA   - Mulliken gross atomic population
  ZA   - Total nuclear charge
  QA   - Mulliken gross atomic charge
  VA   - Mayer's total valence
  BVA  - Mayer's bonded valence
  FA   - Mayer's free valence

  ATOM       NA         ZA         QA         VA         BVA        FA
  0 C      5.9960     6.0000     0.0040     3.8230     3.8230    -0.0000
  1 C      6.0062     6.0000    -0.0062     3.8453     3.8453    -0.0000
  2 C      6.0295     6.0000    -0.0295     3.8572     3.8572    -0.0000
  3 C      6.0601     6.0000    -0.0601     3.9980     3.9980    -0.0000
  4 C      6.0057     6.0000    -0.0057     3.8142     3.8142    -0.0000
  5 C      6.0020     6.0000    -0.0020     3.8310     3.8310    -0.0000
  6 C      6.0353     6.0000    -0.0353     3.7894     3.7894    -0.0000
  7 P     14.6001    15.0000     0.3999     4.8471     4.8471    -0.0000
  8 O      8.4549     8.0000    -0.4549     2.1210     2.1210    -0.0000
  9 C      6.0503     6.0000    -0.0503     3.7705     3.7705    -0.0000
 10 C      6.0316     6.0000    -0.0316     3.9186     3.9186    -0.0000
 11 C      6.0308     6.0000    -0.0308     3.8569     3.8569    -0.0000
 12 C      6.0022     6.0000    -0.0022     3.8398     3.8398    -0.0000
 13 C      5.9978     6.0000     0.0022     3.8211     3.8211    -0.0000
 14 C      6.0020     6.0000    -0.0020     3.8397     3.8397    -0.0000
 15 C      6.0304     6.0000    -0.0304     3.8559     3.8559    -0.0000
 16 C      6.0333     6.0000    -0.0333     3.7877     3.7877    -0.0000
 17 C      6.0620     6.0000    -0.0620     4.0008     4.0008    -0.0000
 18 C      6.0282     6.0000    -0.0282     3.8568     3.8568    -0.0000
 19 C      6.0066     6.0000    -0.0066     3.8463     3.8463    -0.0000
 20 C      5.9960     6.0000     0.0040     3.8233     3.8233    -0.0000
 21 C      6.0016     6.0000    -0.0016     3.8309     3.8309    -0.0000
 22 C      6.0058     6.0000    -0.0058     3.8139     3.8139    -0.0000
 23 H      0.9964     1.0000     0.0036     0.9788     0.9788    -0.0000
 24 H      0.9988     1.0000     0.0012     0.9784     0.9784    -0.0000
 25 H      1.0083     1.0000    -0.0083     0.9901     0.9901    -0.0000
 26 H      0.9781     1.0000     0.0219     1.0431     1.0431     0.0000
 27 H      0.9938     1.0000     0.0062     0.9791     0.9791     0.0000
 28 H      0.9515     1.0000     0.0485     1.0009     1.0009    -0.0000
 29 H      0.9227     1.0000     0.0773     0.9877     0.9877    -0.0000
 30 H      0.9280     1.0000     0.0720     1.0020     1.0020     0.0000
 31 H      0.9286     1.0000     0.0714     1.0020     1.0020     0.0000
 32 H      0.9910     1.0000     0.0090     1.0042     1.0042    -0.0000
 33 H      0.9975     1.0000     0.0025     0.9788     0.9788    -0.0000
 34 H      0.9959     1.0000     0.0041     0.9789     0.9789     0.0000
 35 H      0.9978     1.0000     0.0022     0.9787     0.9787    -0.0000
 36 H      0.9936     1.0000     0.0064     1.0058     1.0058    -0.0000
 37 H      0.9225     1.0000     0.0775     0.9881     0.9881    -0.0000
 38 H      0.9530     1.0000     0.0470     1.0012     1.0012    -0.0000
 39 H      1.0079     1.0000    -0.0079     0.9897     0.9897    -0.0000
 40 H      0.9986     1.0000     0.0014     0.9784     0.9784    -0.0000
 41 H      0.9962     1.0000     0.0038     0.9788     0.9788    -0.0000
 42 H      0.9936     1.0000     0.0064     0.9791     0.9791     0.0000
 43 H      0.9782     1.0000     0.0218     1.0427     1.0427    -0.0000

  Mayer bond orders larger than 0.100000
B(  0-C ,  1-C ) :   1.3810 B(  0-C ,  5-C ) :   1.3757 B(  0-C , 23-H ) :   0.9772 
B(  1-C ,  2-C ) :   1.3741 B(  1-C , 24-H ) :   0.9747 B(  2-C ,  3-C ) :   1.3836 
B(  2-C , 25-H ) :   0.9726 B(  3-C ,  4-C ) :   1.3808 B(  3-C ,  6-C ) :   1.0465 
B(  4-C ,  5-C ) :   1.3713 B(  4-C , 26-H ) :   0.9567 B(  5-C , 27-H ) :   0.9755 
B(  6-C ,  7-P ) :   0.9162 B(  6-C , 28-H ) :   0.9001 B(  6-C , 29-H ) :   0.8972 
B(  7-P ,  8-O ) :   1.7808 B(  7-P ,  9-C ) :   0.9082 B(  7-P , 16-C ) :   0.9146 
B(  9-C , 10-C ) :   1.0060 B(  9-C , 30-H ) :   0.9044 B(  9-C , 31-H ) :   0.9045 
B( 10-C , 11-C ) :   1.3764 B( 10-C , 15-C ) :   1.3770 B( 11-C , 12-C ) :   1.3827 
B( 11-C , 32-H ) :   0.9685 B( 12-C , 13-C ) :   1.3757 B( 12-C , 33-H ) :   0.9750 
B( 13-C , 14-C ) :   1.3761 B( 13-C , 34-H ) :   0.9772 B( 14-C , 15-C ) :   1.3824 
B( 14-C , 35-H ) :   0.9751 B( 15-C , 36-H ) :   0.9684 B( 16-C , 17-C ) :   1.0475 
B( 16-C , 37-H ) :   0.8967 B( 16-C , 38-H ) :   0.9005 B( 17-C , 18-C ) :   1.3840 
B( 17-C , 22-C ) :   1.3798 B( 18-C , 19-C ) :   1.3738 B( 18-C , 39-H ) :   0.9721 
B( 19-C , 20-C ) :   1.3816 B( 19-C , 40-H ) :   0.9746 B( 20-C , 21-C ) :   1.3753 
B( 20-C , 41-H ) :   0.9772 B( 21-C , 22-C ) :   1.3716 B( 21-C , 42-H ) :   0.9756 
B( 22-C , 43-H ) :   0.9569 

-------
TIMINGS
-------

Total SCF time: 0 days 0 hours 0 min 8 sec 

Total time                  ....       8.128 sec
Sum of individual times     ....       8.005 sec  ( 98.5%)

SCF preparation             ....       0.166 sec  (  2.0%)
Fock matrix formation       ....       7.123 sec  ( 87.6%)
  Startup                   ....       0.035 sec  (  0.5% of F)
  Split-RI-J                ....       2.757 sec  ( 38.7% of F)
  XC integration            ....       4.216 sec  ( 59.2% of F)
    Basis function eval.    ....       1.286 sec  ( 30.5% of XC)
    Density eval.           ....       1.339 sec  ( 31.8% of XC)
    XC-Functional eval.     ....       0.121 sec  (  2.9% of XC)
    XC-Potential eval.      ....       0.901 sec  ( 21.4% of XC)
Diagonalization             ....       0.000 sec  (  0.0%)
Density matrix formation    ....       0.085 sec  (  1.0%)
Total Energy calculation    ....       0.028 sec  (  0.3%)
Population analysis         ....       0.122 sec  (  1.5%)
Orbital Transformation      ....       0.060 sec  (  0.7%)
Orbital Orthonormalization  ....       0.000 sec  (  0.0%)
DIIS solution               ....       0.071 sec  (  0.9%)
SOSCF solution              ....       0.350 sec  (  4.3%)
Finished LeanSCF after   8.2 sec

Maximum memory used throughout the entire LEANSCF-calculation: 48.2 MB


-------------------------------------------------------------------------------
                          DFT DISPERSION CORRECTION                            
                                                                               
                              DFTD3 V3.1  Rev 1                                
                          USING Becke-Johnson damping                          
-------------------------------------------------------------------------------
The BP86 functional is recognized
Active option DFTDOPT                   ...         4   

molecular C6(AA) [au] = 24254.305299 


            DFT-D V3
 parameters
 s6 scaling factor         :     1.0000 
 a1 scaling factor         :     0.3946 
 s8 scaling factor         :     3.2822 
 a2 scaling factor         :     4.8516 
 ad hoc parameters k1-k3   :    16.0000     1.3333    -4.0000 

 Edisp/kcal,au: -66.249444289094  -0.105575198400 
 E6   /kcal   : -24.628391269 
 E8   /kcal   : -41.621053020 
 % E8         :  62.824757953 

-------------------------   ----------------
Dispersion correction           -0.105575198
-------------------------   ----------------


-------------------------   --------------------
FINAL SINGLE POINT ENERGY     -1228.889237321104
-------------------------   --------------------

                                *** OPTIMIZATION RUN DONE ***



           ************************************************************
           *        Program running with 6 parallel MPI-processes     *
           *              working on a common directory               *
           ************************************************************

------------------------------------------------------------------------------
                              ORCA PROPERTY CALCULATIONS
------------------------------------------------------------------------------

GBWName                                 ... data/geom_opt_PO_BP86/82101/82101.gbw
Number of atoms                         ...     44
Number of basis functions               ...    431
Max core memory                         ...   1024 MB

Electric properties:
Dipole moment                           ... YES
Quadrupole moment                       ...  NO
Static polarizability (Dipole/Dipole)   ...  NO
Static polarizability (Dipole/Quad.)    ...  NO
Static polarizability (Quad./Quad.)     ...  NO
Static polarizability (Velocity)        ...  NO

Atomic electric properties:
Dipole moment                           ...  NO
Quadrupole moment                       ...  NO
Static polarizability                   ...  NO

Choice of electric origin               ... Center of mass
Position of electric origin             ...     0.156832     0.285202     0.228552

General magnetic properties:
Magnetizability                         ...  NO

EPR properties:
g-Tensor (aka g-matrix)                 ...  NO
Zero-Field splitting spin-orbit         ...  NO
Zero-field splitting spin-spin          ...  NO
Hyperfine couplings                     ...  NO (   0 nuclei)
Quadrupole couplings                    ...  NO (   0 nuclei)
Contact density                         ...  NO (   0 nuclei)

NMR properties:
Chemical shifts                         ...  NO (   0 nuclei)
Spin-rotation constants                 ...  NO (   0 nuclei)
Spin-spin couplings                     ...  NO (   0 nuclei,    0 pairs)

Choice of magnetic origin               ... GIAO
Position of magnetic origin             ...     0.000000     0.000000     0.000000

Properties with geometric perturbations:
SCF Hessian                             ...  NO
IR spectrum                             ...  NO
VCD spectrum                            ...  NO
X-ray spectroscopy properties:
SCF XES/XAS/RIXS spectra                ...  NO


-------------
DIPOLE MOMENT
-------------

Method             : SCF
Type of density    : Electron Density
Multiplicity       :   1
Irrep              :   0
Energy             : -1228.7836621227042997 Eh
Relativity type    : 
Basis              : AO
                                X                 Y                 Z
Electronic contribution:      2.345464857       4.304917245       0.876898143
Nuclear contribution   :     -2.997511602      -5.348800769      -0.743119259
                        -----------------------------------------
Total Dipole Moment    :     -0.652046745      -1.043883524       0.133778884
                        -----------------------------------------
Magnitude (a.u.)       :      1.238044651
Magnitude (Debye)      :      3.146859419



--------------------
Rotational spectrum 
--------------------
 
Rotational constants in cm-1:             0.012824             0.005604             0.004222 
Rotational constants in MHz :           384.451467           167.992624           126.575015 

Dipole components along the rotational axes: 
x,y,z [a.u.] :     0.006815    -1.161703     0.427966 
x,y,z [Debye]:     0.017322    -2.952813     1.087804 

 

Dipole moment calculation done in   0.0 sec 

Maximum memory used throughout the entire PROP-calculation: 25.0 MB

--------------------------------
SUGGESTED CITATIONS FOR THIS RUN
--------------------------------

Below you find a list of papers that are relevant to this ORCA run
We neither can nor want to force you to cite these papers, but we appreciate if you do
You receive ORCA, which is the product of decades of hard work by many enthusiastic individuals, for free
The only thing we kindly ask in return is that you cite our papers,
We deeply appreciate it, if you show your appreciation for ORCA by not just citing the generic ORCA reference.

Please note that relegating all ORCA citations to the supporting information does *not* help us.
SI sections are not indexed - citations you put there will not count into any citation statistics
But we need these citations in order to attract the funding resources that allow us to do what we are doing

Therefore, if you are a happy ORCA user, please consider citing a few of the papers listed below in the main body of your paper

In addition to the list printed below, the program has created the file data/geom_opt_PO_BP86/82101/82101.bibtex that contains the list in bibtex format
You can import this file easily into all common literature databanks and citation aid programs


List of essential papers. We consider these as the minimum necessary citations

  1. Neese,F.
     Software update: the ORCA program system, version 5.0
     WIRES Comput. Molec. Sci., 2022 12(1)e1606
     doi.org/10.1002/wcms.1606

List of papers to cite with high priority. The work reported in these papers was absolutely
necessary for this run to complete.
Our perspective: the developers of density functionals and basis sets usually get cited in chemistry papers
Good! But without the algorithms to do something with them, the functionals or basis sets would not do anything.
Hence, in our opinion, the algorithm design and method developments papers are equally worthy of getting cited

  1. Neese,F.
     An improvement of the resolution of the identity approximation for the formation of the Coulomb matrix
     J. Comp. Chem., 2003 24(14)1740-1747
     doi.org/10.1002/jcc.10318
  2. Neese,F.
     The SHARK Integral Generation and Digestion System
     J. Comp. Chem., 2022  1-16
     doi.org/10.1002/jcc.26942
  3. Grimme,S.; Antony,J.; Ehrlich,S.; Krieg,H.
     A consistent and accurate ab initio parametrization of density functional dispersion correction (DFT-D) for the 94 elements H-Pu
     J. Chem. Phys., 2010 132 154104-XXXX
     doi.org/10.1063/1.3382344
  4. Grimme,S.; Ehrlich,S.; Goerigk,L.
     Effect of the damping function in dispersion corrected density functional theory
     J. Comput. Chem., 2011 32(7)1456-1465
     doi.org/10.1002/jcc.21759

List of suggested additional citations. These are papers that are important in the 'surrounding' of 
of this run, or papers that preceded the highly important papers. If you like your results we are grateful for a citation.

  1. Neese,F.
     The ORCA program system
     WIRES Comput. Molec. Sci., 2012 2(1)73-78
     doi.org/10.1002/wcms.81
  2. Neese,F.
     Software update: the ORCA program system, version 4.0
     WIRES Comput. Molec. Sci., 2018 8(1)1-6
     doi.org/10.1002/wcms.1327
  3. Neese,F.; Wennmohs,F.; Becker,U.; Riplinger,C.
     The ORCA quantum chemistry program package
     J. Chem. Phys., 2020 152 Art. No. L224108
     doi.org/10.1063/5.0004608

List of optional additional citations

  1. Neese,F.
     Approximate second-order SCF convergence for spin unrestricted wavefunctions
     Chem. Phys. Lett., 2000 325(1-3)93-98
     doi.org/10.1016/s0009-2614(00)00662-x

Timings for individual modules:

Sum of individual times          ...      246.275 sec (=   4.105 min)
Startup calculation              ...       19.285 sec (=   0.321 min)   7.8 %
SCF iterations                   ...      150.680 sec (=   2.511 min)  61.2 %
Property calculations            ...        0.195 sec (=   0.003 min)   0.1 %
SCF Gradient evaluation          ...       75.878 sec (=   1.265 min)  30.8 %
Geometry relaxation              ...        0.237 sec (=   0.004 min)   0.1 %
                             ****ORCA TERMINATED NORMALLY****
TOTAL RUN TIME: 0 days 0 hours 4 minutes 8 seconds 436 msec
