
                                 *****************
                                 * O   R   C   A *
                                 *****************

                                            #,                                       
                                            ###                                      
                                            ####                                     
                                            #####                                    
                                            ######                                   
                                           ########,                                 
                                     ,,################,,,,,                         
                               ,,#################################,,                 
                          ,,##########################################,,             
                       ,#########################################, ''#####,          
                    ,#############################################,,   '####,        
                  ,##################################################,,,,####,       
                ,###########''''           ''''###############################       
              ,#####''   ,,,,##########,,,,          '''####'''          '####       
            ,##' ,,,,###########################,,,                        '##       
           ' ,,###''''                  '''############,,,                           
         ,,##''                                '''############,,,,        ,,,,,,###''
      ,#''                                            '''#######################'''  
     '                                                          ''''####''''         
             ,#######,   #######,   ,#######,      ##                                
            ,#'     '#,  ##    ##  ,#'     '#,    #''#        ,####,   ,####,        
            ##       ##  ##   ,#'  ##            #'  '#       #'       #'  '#        
            ##       ##  #######   ##           ,######,      #####,   #    #        
            '#,     ,#'  ##    ##  '#,     ,#' ,#      #,     #,   #   #,  ,#        
             '#######'   ##     ##  '#######'  #'      '#     '####' # '####'        



                #########################################################
                #                        -***-                          #
                #          Department of theory and spectroscopy        #
                #                                                       #
                #                      Frank Neese                      #
                #                                                       #
                #     Directorship, Architecture, Infrastructure        #
                #                    SHARK, DRIVERS                     #
                #        Core code/Algorithms in most modules           #
                #                                                       #
                #        Max Planck Institute fuer Kohlenforschung      #
                #                Kaiser Wilhelm Platz 1                 #
                #                 D-45470 Muelheim/Ruhr                 #
                #                      Germany                          #
                #                                                       #
                #                  All rights reserved                  #
                #                        -***-                          #
                #########################################################


                         Program Version 6.0.0  -   RELEASE   -


 With contributions from (in alphabetic order):
   Daniel Aravena         : Magnetic Suceptibility
   Michael Atanasov       : Ab Initio Ligand Field Theory (pilot matlab implementation)
   Alexander A. Auer      : GIAO ZORA, VPT2 properties, NMR spectrum
   Ute Becker             : All parallelization in ORCA, NUMFREQ, NUMCALC
   Giovanni Bistoni       : ED, misc. LED, open-shell LED, HFLD
   Martin Brehm           : Molecular dynamics
   Dmytro Bykov           : pre 5.0 version of the SCF Hessian
   Marcos Casanova-Páez   : Triplet and SCS-CIS(D). UHF-(DLPNO)-IP/EA/STEOM-CCSD. UHF-CVS-IP/STEOM-CCSD
   Vijay G. Chilkuri      : MRCI spin determinant printing, contributions to CSF-ICE
   Pauline Colinet        : FMM embedding
   Dipayan Datta          : RHF DLPNO-CCSD density
   Achintya Kumar Dutta   : EOM-CC, STEOM-CC
   Nicolas Foglia         : Exact transition moments, OPA infrastructure, MCD improvements
   Dmitry Ganyushin       : Spin-Orbit,Spin-Spin,Magnetic field MRCI
   Miquel Garcia          : C-PCM and meta-GGA Hessian, CCSD/C-PCM, Gaussian charge scheme
   Tiago L. C. Gouveia    : GS-ROHF, GS-ROCIS
   Yang Guo               : DLPNO-NEVPT2, F12-NEVPT2, CIM, IAO-localization
   Andreas Hansen         : Spin unrestricted coupled pair/coupled cluster methods
   Ingolf Harden          : AUTO-CI MPn and infrastructure 
   Benjamin Helmich-Paris : MC-RPA, TRAH-(SCF,CASSCF), AVAS, COSX integrals, SCF dyn. polar.
   Lee Huntington         : MR-EOM, pCC
   Robert Izsak           : Overlap fitted RIJCOSX, COSX-SCS-MP3, EOM
   Riya Kayal             : Wick's Theorem for AUTO-CI, AUTO-CI UHF-CCSDT
   Emily Kempfer          : AUTO-CI, RHF CISDT and CCSDT
   Christian Kollmar      : KDIIS, OOCD, Brueckner-CCSD(T), CCSD density, CASPT2, CASPT2-K, improved NEVPT2
   Axel Koslowski         : Symmetry handling
   Simone Kossmann        : Meta GGA functionals, TD-DFT gradient, OOMP2, (MP2 Hessian; deprecated post 5.0)
   Lucas Lang             : DCDCAS
   Marvin Lechner         : AUTO-CI (C++ implementation), FIC-MRCC
   Spencer Leger          : CASSCF response
   Dagmar Lenk            : GEPOL surface, SMD, ORCA-2-JSON
   Dimitrios Liakos       : Extrapolation schemes; Compound Job, initial MDCI parallelization
   Dimitrios Manganas     : Further ROCIS development; embedding schemes. LFT, Crystal Embedding
   Dimitrios Pantazis     : SARC Basis sets
   Anastasios Papadopoulos: AUTO-CI, single reference methods and gradients
   Taras Petrenko         : pre 6.0 DFT Hessian and TD-DFT gradient, (ASA, deprecated), ECA, 1-Electron XAS/XES, NRVS
   Peter Pinski           : DLPNO-MP2, DLPNO-MP2 Gradient
   Christoph Reimann      : Effective Core Potentials
   Marius Retegan         : Local ZFS, SOC
   Christoph Riplinger    : Optimizer, TS searches, QM/MM, DLPNO-CCSD(T), (RO)-DLPNO pert. Triples
   Michael Roemelt        : Original ROCIS implementation
   Masaaki Saitow         : Open-shell DLPNO-CCSD energy and density
   Barbara Sandhoefer     : DKH picture change effects
   Kantharuban Sivalingam : CASSCF convergence/infrastructure, NEVPT2 and variants, FIC-MRCI
   Bernardo de Souza      : ESD, SOC TD-DFT
   Georgi Stoychev        : AutoAux, RI-MP2 NMR, DLPNO-MP2 response, X2C
   Van Anh Tran           : RI-MP2 g-tensors
   Willem Van den Heuvel  : Paramagnetic NMR
   Zikuan Wang            : NOTCH, Electric field optimization 
   Frank Wennmohs         : Technical directorship and infrastructure
   Hang Xu                : AUTO-CI-Response properties 


 We gratefully acknowledge several colleagues who have allowed us to
 interface, adapt or use parts of their codes:
   Stefan Grimme, W. Hujo, H. Kruse, P. Pracht,  : VdW corrections, initial TS optimization,
                  C. Bannwarth, S. Ehlert,         DFT functionals, gCP, sTDA/sTD-DF
                  L. Wittmann, M. Mueller
   Ed Valeev, F. Pavosevic, A. Kumar             : LibInt (2-el integral package), F12 methods
   Garnet Chan, S. Sharma, J. Yang, R. Olivares  : DMRG
   Ulf Ekstrom                                   : XCFun DFT Library
   Mihaly Kallay                                 : mrcc  (arbitrary order and MRCC methods)
   Frank Weinhold                                : gennbo (NPA and NBO analysis)
   Simon Mueller                                 : openCOSMO-RS
   Christopher J. Cramer and Donald G. Truhlar   : smd solvation model
   Lars Goerigk                                  : TD-DFT with DH, B97 family of functionals
   V. Asgeirsson, H. Jonsson                     : NEB implementation
   FAccTs GmbH                                   : IRC, NEB, NEB-TS, DLPNO-Multilevel, CI-OPT
                                                   MM, QMMM, 2- and 3-layer-ONIOM, Crystal-QMMM,
                                                   LR-CPCM, SF, NACMEs, symmetry and pop. for TD-DFT,
                                                   nearIR, NL-DFT gradient (VV10), updates on ESD,
                                                   ML-optimized integration grids, MBIS, APM,
                                                   GOAT, DOCKER, SOLVATOR, interface openCOSMO-RS
   S Lehtola, MJT Oliveira, MAL Marques          : LibXC Library
   Liviu Ungur et al                             : ANISO software


 Your calculation uses the libint2 library for the computation of 2-el integrals
 For citations please refer to: http://libint.valeyev.net

 Your ORCA version has been built with support for libXC version: 6.2.2
 For citations please refer to: https://libxc.gitlab.io

 This ORCA versions uses:
   CBLAS   interface :  Fast vector & matrix operations
   LAPACKE interface :  Fast linear algebra routines
   Shared memory     :  Shared parallel matrices


Your calculation utilizes the atom-pairwise dispersion correction
with the Becke-Johnson damping scheme (D3BJ)


Warning: RI is on but no J-basis has been assigned. Assigning Def2/J (nothing to worry about!)
================================================================================

----- Orbital basis set information -----
Your calculation utilizes the basis: def2-SVP
   F. Weigend and R. Ahlrichs, Phys. Chem. Chem. Phys. 7, 3297 (2005).

----- AuxJ basis set information -----
Your calculation utilizes the auxiliary basis: def2/J
   F. Weigend, Phys. Chem. Chem. Phys. 8, 1057 (2006).

================================================================================
                                        WARNINGS
                       Please study these warnings very carefully!
================================================================================


WARNING: Geometry Optimization
  ===> : Switching off AutoStart
         For restart on a previous wavefunction, please use MOREAD

================================================================================
                                       INPUT FILE
================================================================================
NAME = data/geom_opt_P_BP86/13831/13831.inp
|  1> ! RI BP86 def2-SVP D3BJ TIGHTSCF Opt
|  2> %pal
|  3> nprocs 6
|  4> end
|  5> 
|  6> * xyz 0 1
|  7> C     -0.819809    4.828366    2.039791
|  8> C     -0.064777    3.508943    2.067416
|  9> C     -0.366296    2.664094    0.828128
| 10> C      0.397212    1.339551    0.866723
| 11> P      0.107513    0.315772   -0.651226
| 12> C      1.128925   -1.173937   -0.234451
| 13> C      2.625863   -0.922065   -0.420424
| 14> C      3.437185   -2.184134   -0.121331
| 15> C      4.927682   -1.944589   -0.302309
| 16> C     -1.585643   -0.340399   -0.278557
| 17> C     -2.100441   -1.274663   -1.374451
| 18> C     -3.519239   -1.756069   -1.064969
| 19> C     -4.040812   -2.686798   -2.148213
| 20> H     -0.541355    5.421406    1.162817
| 21> H     -0.589394    5.415670    2.934153
| 22> H     -1.901285    4.661043    2.012565
| 23> H     -0.342059    2.955004    2.971853
| 24> H      1.010824    3.711901    2.127475
| 25> H     -0.093184    3.229828   -0.071961
| 26> H     -1.446196    2.482016    0.772495
| 27> H      0.117873    0.768407    1.759188
| 28> H      1.469317    1.551663    0.940045
| 29> H      0.824477   -1.995546   -0.891754
| 30> H      0.923921   -1.489092    0.794811
| 31> H      2.827736   -0.596149   -1.448934
| 32> H      2.963110   -0.114248    0.239975
| 33> H      3.248251   -2.512883    0.907244
| 34> H      3.120815   -2.996749   -0.785622
| 35> H      5.154818   -1.644564   -1.330275
| 36> H      5.487803   -2.859124   -0.083704
| 37> H      5.283502   -1.158957    0.371859
| 38> H     -1.579375   -0.858261    0.687107
| 39> H     -2.271814    0.508430   -0.186716
| 40> H     -1.440994   -2.144782   -1.476696
| 41> H     -2.095792   -0.757579   -2.342649
| 42> H     -4.193291   -0.896241   -0.975160
| 43> H     -3.532379   -2.281310   -0.102842
| 44> H     -3.406807   -3.574287   -2.241638
| 45> H     -4.070294   -2.181461   -3.118823
| 46> H     -5.055595   -3.018209   -1.906796
| 47> **                         ****END OF INPUT****
================================================================================

                       *****************************
                       * Geometry Optimization Run *
                       *****************************

Geometry optimization settings:
Update method            Update   .... BFGS
Choice of coordinates    CoordSys .... (2022) Redundant Internals
Initial Hessian          InHess   .... Almloef's Model
Max. no of cycles        MaxIter  .... 120

Convergence Tolerances:
Energy Change            TolE     ....  5.0000e-06 Eh
Max. Gradient            TolMAXG  ....  3.0000e-04 Eh/bohr
RMS Gradient             TolRMSG  ....  1.0000e-04 Eh/bohr
Max. Displacement        TolMAXD  ....  4.0000e-03 bohr
RMS Displacement         TolRMSD  ....  2.0000e-03 bohr
Strict Convergence                .... False

------------------------------------------------------------------------------
                        ORCA OPTIMIZATION COORDINATE SETUP
------------------------------------------------------------------------------

The optimization will be done in redundant internal coordinates (2022)
Making redundant internal coordinates   ...  (2022 redundants) done
Evaluating the initial hessian          ...  (Almloef) done
Evaluating the coordinates              ...  done
Calculating the B-matrix                .... done
Calculating the G-matrix                .... done
Diagonalizing the G-matrix              .... done
Small eigenvalue found = 3.431e-03
Small eigenvalue found = 3.487e-03
Small eigenvalue found = 6.559e-03
Small eigenvalue found = 1.972e-02
Small eigenvalue found = 2.032e-02
Small eigenvalue found = 2.465e-02
The first mode is                       ....   69
The number of degrees of freedom        ....  114

    -----------------------------------------------------------------
                    Redundant Internal Coordinates


    -----------------------------------------------------------------
         Definition                    Initial Value    Approx d2E/dq
    -----------------------------------------------------------------
      1. B(C   1,C   0)                  1.5204         0.386939   
      2. B(C   2,C   1)                  1.5299         0.373746   
      3. B(C   3,C   2)                  1.5293         0.374496   
      4. B(P   4,C   3)                  1.8537         0.382316   
      5. B(C   5,P   4)                  1.8537         0.382317   
      6. B(C   6,C   5)                  1.5293         0.374496   
      7. B(C   7,C   6)                  1.5299         0.373746   
      8. B(C   8,C   7)                  1.5204         0.386938   
      9. B(C   9,P   4)                  1.8537         0.382315   
     10. B(C  10,C   9)                  1.5293         0.374496   
     11. B(C  11,C  10)                  1.5299         0.373746   
     12. B(C  12,C  11)                  1.5204         0.386940   
     13. B(H  13,C   0)                  1.0947         0.353967   
     14. B(H  14,C   0)                  1.0945         0.354214   
     15. B(H  15,C   0)                  1.0947         0.353959   
     16. B(H  16,C   1)                  1.0962         0.351940   
     17. B(H  17,C   1)                  1.0962         0.351954   
     18. B(H  18,C   2)                  1.0976         0.350139   
     19. B(H  19,C   2)                  1.0966         0.351533   
     20. B(H  20,C   3)                  1.0958         0.352537   
     21. B(H  21,C   3)                  1.0953         0.353101   
     22. B(H  22,C   5)                  1.0953         0.353100   
     23. B(H  23,C   5)                  1.0958         0.352537   
     24. B(H  24,C   6)                  1.0976         0.350138   
     25. B(H  25,C   6)                  1.0966         0.351533   
     26. B(H  26,C   7)                  1.0962         0.351941   
     27. B(H  27,C   7)                  1.0962         0.351955   
     28. B(H  28,C   8)                  1.0947         0.353965   
     29. B(H  29,C   8)                  1.0945         0.354215   
     30. B(H  30,C   8)                  1.0947         0.353960   
     31. B(H  31,C   9)                  1.0958         0.352538   
     32. B(H  32,C   9)                  1.0953         0.353101   
     33. B(H  33,C  10)                  1.0966         0.351533   
     34. B(H  34,C  10)                  1.0976         0.350139   
     35. B(H  35,C  11)                  1.0962         0.351955   
     36. B(H  36,C  11)                  1.0962         0.351941   
     37. B(H  37,C  12)                  1.0947         0.353960   
     38. B(H  38,C  12)                  1.0947         0.353965   
     39. B(H  39,C  12)                  1.0945         0.354214   
     40. A(H  14,C   0,H  15)          108.0790         0.289307   
     41. A(H  13,C   0,H  15)          108.3116         0.289275   
     42. A(H  13,C   0,H  14)          108.0826         0.289308   
     43. A(C   1,C   0,H  15)          111.0025         0.325277   
     44. A(C   1,C   0,H  13)          110.9998         0.325278   
     45. A(C   1,C   0,H  14)          110.2593         0.325315   
     46. A(C   2,C   1,H  17)          109.8769         0.323128   
     47. A(H  16,C   1,H  17)          107.2495         0.288758   
     48. A(C   0,C   1,C   2)          111.5083         0.365571   
     49. A(C   0,C   1,H  16)          109.1406         0.324971   
     50. A(C   2,C   1,H  16)          109.8420         0.323126   
     51. A(C   0,C   1,H  17)          109.1217         0.324973   
     52. A(C   3,C   2,H  19)          110.4341         0.323170   
     53. A(C   1,C   2,H  18)          109.3053         0.322854   
     54. A(C   1,C   2,C   3)          111.0664         0.363533   
     55. A(C   3,C   2,H  18)          110.0517         0.322960   
     56. A(H  18,C   2,H  19)          106.7991         0.288472   
     57. A(C   1,C   2,H  19)          109.0800         0.323064   
     58. A(C   2,C   3,H  21)          108.8216         0.323406   
     59. A(P   4,C   3,H  20)          109.8302         0.344422   
     60. A(C   2,C   3,P   4)          112.3117         0.388390   
     61. A(C   2,C   3,H  20)          110.1643         0.323322   
     62. A(H  20,C   3,H  21)          107.2133         0.288982   
     63. A(P   4,C   3,H  21)          108.3446         0.344514   
     64. A(C   3,P   4,C   5)           99.9982         0.415350   
     65. A(C   3,P   4,C   9)           99.9982         0.415350   
     66. A(C   5,P   4,C   9)           99.9982         0.415350   
     67. A(P   4,C   5,C   6)          112.3117         0.388390   
     68. A(H  22,C   5,H  23)          107.2133         0.288982   
     69. A(C   6,C   5,H  23)          110.1643         0.323322   
     70. A(P   4,C   5,H  23)          109.8302         0.344422   
     71. A(C   6,C   5,H  22)          108.8216         0.323406   
     72. A(P   4,C   5,H  22)          108.3446         0.344515   
     73. A(C   5,C   6,C   7)          111.0663         0.363533   
     74. A(C   7,C   6,H  25)          109.0800         0.323064   
     75. A(C   5,C   6,H  25)          110.4341         0.323170   
     76. A(C   7,C   6,H  24)          109.3054         0.322854   
     77. A(C   5,C   6,H  24)          110.0517         0.322960   
     78. A(H  24,C   6,H  25)          106.7991         0.288472   
     79. A(C   6,C   7,C   8)          111.5083         0.365571   
     80. A(H  26,C   7,H  27)          107.2496         0.288758   
     81. A(C   8,C   7,H  27)          109.1217         0.324973   
     82. A(C   6,C   7,H  27)          109.8770         0.323128   
     83. A(C   8,C   7,H  26)          109.1405         0.324971   
     84. A(C   6,C   7,H  26)          109.8420         0.323126   
     85. A(H  29,C   8,H  30)          108.0791         0.289307   
     86. A(H  28,C   8,H  30)          108.3115         0.289275   
     87. A(C   7,C   8,H  30)          111.0026         0.325277   
     88. A(H  28,C   8,H  29)          108.0826         0.289307   
     89. A(C   7,C   8,H  29)          110.2593         0.325315   
     90. A(C   7,C   8,H  28)          110.9997         0.325277   
     91. A(C  10,C   9,H  32)          108.8216         0.323406   
     92. A(P   4,C   9,H  32)          108.3446         0.344514   
     93. A(C  10,C   9,H  31)          110.1643         0.323322   
     94. A(P   4,C   9,H  31)          109.8302         0.344422   
     95. A(H  31,C   9,H  32)          107.2133         0.288982   
     96. A(P   4,C   9,C  10)          112.3117         0.388390   
     97. A(C  11,C  10,H  34)          109.3054         0.322854   
     98. A(C   9,C  10,H  34)          110.0518         0.322960   
     99. A(C  11,C  10,H  33)          109.0800         0.323064   
    100. A(C   9,C  10,H  33)          110.4341         0.323170   
    101. A(C   9,C  10,C  11)          111.0663         0.363533   
    102. A(H  33,C  10,H  34)          106.7991         0.288472   
    103. A(C  10,C  11,C  12)          111.5083         0.365572   
    104. A(H  35,C  11,H  36)          107.2495         0.288758   
    105. A(C  12,C  11,H  36)          109.1406         0.324971   
    106. A(C  10,C  11,H  36)          109.8421         0.323126   
    107. A(C  12,C  11,H  35)          109.1217         0.324973   
    108. A(C  10,C  11,H  35)          109.8769         0.323128   
    109. A(H  38,C  12,H  39)          108.0826         0.289307   
    110. A(H  37,C  12,H  39)          108.0790         0.289307   
    111. A(C  11,C  12,H  39)          110.2593         0.325315   
    112. A(H  37,C  12,H  38)          108.3115         0.289275   
    113. A(C  11,C  12,H  38)          110.9997         0.325278   
    114. A(C  11,C  12,H  37)          111.0026         0.325277   
    115. D(C   2,C   1,C   0,H  13)    -60.2467         0.011912   
    116. D(H  16,C   1,C   0,H  14)     58.4816         0.011912   
    117. D(C   2,C   1,C   0,H  14)   -179.9876         0.011912   
    118. D(C   2,C   1,C   0,H  15)     60.2743         0.011912   
    119. D(H  16,C   1,C   0,H  13)    178.2225         0.011912   
    120. D(H  16,C   1,C   0,H  15)    -61.2565         0.011912   
    121. D(C   3,C   2,C   1,H  16)    -58.8390         0.011153   
    122. D(H  18,C   2,C   1,H  17)    -62.7024         0.011153   
    123. D(H  18,C   2,C   1,H  16)    179.5433         0.011153   
    124. D(C   3,C   2,C   1,H  17)     58.9153         0.011153   
    125. D(H  18,C   2,C   1,C   0)     58.4204         0.011153   
    126. D(C   3,C   2,C   1,C   0)   -179.9619         0.011153   
    127. D(P   4,C   3,C   2,H  19)     61.0443         0.011195   
    128. D(P   4,C   3,C   2,H  18)    -56.6216         0.011195   
    129. D(P   4,C   3,C   2,C   1)   -177.8019         0.011195   
    130. D(H  20,C   3,C   2,H  19)    -61.7296         0.011195   
    131. D(H  20,C   3,C   2,H  18)   -179.3955         0.011195   
    132. D(H  20,C   3,C   2,C   1)     59.4242         0.011195   
    133. D(C   9,P   4,C   3,C   2)    -76.6566         0.003473   
    134. D(C   5,P   4,C   3,H  21)     60.9855         0.003473   
    135. D(C   5,P   4,C   3,H  20)    -55.8224         0.003473   
    136. D(C   9,P   4,C   3,H  20)     46.3054         0.003473   
    137. D(C   5,P   4,C   3,C   2)   -178.7844         0.003473   
    138. D(H  23,C   5,P   4,C   3)     46.3053         0.003473   
    139. D(H  22,C   5,P   4,C   9)     60.9854         0.003473   
    140. D(H  22,C   5,P   4,C   3)    163.1132         0.003473   
    141. D(C   6,C   5,P   4,C   9)   -178.7845         0.003473   
    142. D(C   6,C   5,P   4,C   3)    -76.6567         0.003473   
    143. D(C   7,C   6,C   5,H  23)     59.4241         0.011195   
    144. D(C   7,C   6,C   5,H  22)    -57.8488         0.011195   
    145. D(C   7,C   6,C   5,P   4)   -177.8021         0.011195   
    146. D(H  24,C   6,C   5,H  23)   -179.3955         0.011195   
    147. D(H  24,C   6,C   5,H  22)     63.3317         0.011195   
    148. D(H  24,C   6,C   5,P   4)    -56.6216         0.011195   
    149. D(H  26,C   7,C   6,H  25)     63.1067         0.011153   
    150. D(H  26,C   7,C   6,H  24)    179.5431         0.011153   
    151. D(H  26,C   7,C   6,C   5)    -58.8392         0.011153   
    152. D(C   8,C   7,C   6,H  25)    -58.0160         0.011153   
    153. D(C   8,C   7,C   6,H  24)     58.4203         0.011153   
    154. D(C   8,C   7,C   6,C   5)   -179.9619         0.011153   
    155. D(H  29,C   8,C   7,H  27)    -58.4260         0.011912   
    156. D(H  29,C   8,C   7,H  26)     58.4814         0.011912   
    157. D(H  29,C   8,C   7,C   6)   -179.9879         0.011912   
    158. D(H  28,C   8,C   7,H  27)     61.3149         0.011912   
    159. D(H  28,C   8,C   7,H  26)    178.2222         0.011912   
    160. D(H  28,C   8,C   7,C   6)    -60.2471         0.011912   
    161. D(H  32,C   9,P   4,C   3)     60.9853         0.003473   
    162. D(H  31,C   9,P   4,C   5)     46.3052         0.003473   
    163. D(H  31,C   9,P   4,C   3)    -55.8226         0.003473   
    164. D(C  10,C   9,P   4,C   5)    -76.6568         0.003473   
    165. D(C  10,C   9,P   4,C   3)   -178.7847         0.003473   
    166. D(H  33,C  10,C   9,H  32)   -179.0024         0.011195   
    167. D(H  33,C  10,C   9,H  31)    -61.7295         0.011195   
    168. D(H  33,C  10,C   9,P   4)     61.0443         0.011195   
    169. D(C  11,C  10,C   9,H  32)    -57.8486         0.011195   
    170. D(C  11,C  10,C   9,H  31)     59.4242         0.011195   
    171. D(C  11,C  10,C   9,P   4)   -177.8020         0.011195   
    172. D(H  35,C  11,C  10,H  33)   -179.1390         0.011153   
    173. D(H  35,C  11,C  10,C   9)     58.9151         0.011153   
    174. D(C  12,C  11,C  10,H  34)     58.4201         0.011153   
    175. D(C  12,C  11,C  10,H  33)    -58.0163         0.011153   
    176. D(H  35,C  11,C  10,H  34)    -62.7027         0.011153   
    177. D(C  12,C  11,C  10,C   9)   -179.9622         0.011153   
    178. D(H  38,C  12,C  11,H  36)    178.2221         0.011912   
    179. D(H  38,C  12,C  11,H  35)     61.3148         0.011912   
    180. D(H  38,C  12,C  11,C  10)    -60.2471         0.011912   
    181. D(H  37,C  12,C  11,H  36)    -61.2569         0.011912   
    182. D(H  37,C  12,C  11,H  35)   -178.1642         0.011912   
    183. D(H  37,C  12,C  11,C  10)     60.2739         0.011912   
    -----------------------------------------------------------------

Number of atoms                         .... 40
Number of degrees of freedom            .... 183


         *************************************************************
         *                GEOMETRY OPTIMIZATION CYCLE   1            *
         *************************************************************
---------------------------------
CARTESIAN COORDINATES (ANGSTROEM)
---------------------------------
  C     -0.819809    4.828366    2.039791
  C     -0.064777    3.508943    2.067416
  C     -0.366296    2.664094    0.828128
  C      0.397212    1.339551    0.866723
  P      0.107513    0.315772   -0.651226
  C      1.128925   -1.173937   -0.234451
  C      2.625863   -0.922065   -0.420424
  C      3.437185   -2.184134   -0.121331
  C      4.927682   -1.944589   -0.302309
  C     -1.585643   -0.340399   -0.278557
  C     -2.100441   -1.274663   -1.374451
  C     -3.519239   -1.756069   -1.064969
  C     -4.040812   -2.686798   -2.148213
  H     -0.541355    5.421406    1.162817
  H     -0.589394    5.415670    2.934153
  H     -1.901285    4.661043    2.012565
  H     -0.342059    2.955004    2.971853
  H      1.010824    3.711901    2.127475
  H     -0.093184    3.229828   -0.071961
  H     -1.446196    2.482016    0.772495
  H      0.117873    0.768407    1.759188
  H      1.469317    1.551663    0.940045
  H      0.824477   -1.995546   -0.891754
  H      0.923921   -1.489092    0.794811
  H      2.827736   -0.596149   -1.448934
  H      2.963110   -0.114248    0.239975
  H      3.248251   -2.512883    0.907244
  H      3.120815   -2.996749   -0.785622
  H      5.154818   -1.644564   -1.330275
  H      5.487803   -2.859124   -0.083704
  H      5.283502   -1.158957    0.371859
  H     -1.579375   -0.858261    0.687107
  H     -2.271814    0.508430   -0.186716
  H     -1.440994   -2.144782   -1.476696
  H     -2.095792   -0.757579   -2.342649
  H     -4.193291   -0.896241   -0.975160
  H     -3.532379   -2.281310   -0.102842
  H     -3.406807   -3.574287   -2.241638
  H     -4.070294   -2.181461   -3.118823
  H     -5.055595   -3.018209   -1.906796

----------------------------
CARTESIAN COORDINATES (A.U.)
----------------------------
  NO LB      ZA    FRAG     MASS         X           Y           Z
   0 C     6.0000    0    12.011   -1.549214    9.124289    3.854646
   1 C     6.0000    0    12.011   -0.122411    6.630941    3.906850
   2 C     6.0000    0    12.011   -0.692199    5.034408    1.564935
   3 C     6.0000    0    12.011    0.750622    2.531385    1.637869
   4 P    15.0000    0    30.974    0.203170    0.596723   -1.230639
   5 C     6.0000    0    12.011    2.133359   -2.218419   -0.443048
   6 C     6.0000    0    12.011    4.962162   -1.742450   -0.794486
   7 C     6.0000    0    12.011    6.495338   -4.127415   -0.229282
   8 C     6.0000    0    12.011    9.311969   -3.674741   -0.571281
   9 C     6.0000    0    12.011   -2.996431   -0.643261   -0.526396
  10 C     6.0000    0    12.011   -3.969258   -2.408764   -2.597336
  11 C     6.0000    0    12.011   -6.650398   -3.318489   -2.012500
  12 C     6.0000    0    12.011   -7.636028   -5.077312   -4.059534
  13 H     1.0000    0     1.008   -1.023013   10.244973    2.197406
  14 H     1.0000    0     1.008   -1.113793   10.234133    5.544746
  15 H     1.0000    0     1.008   -3.592908    8.808095    3.803197
  16 H     1.0000    0     1.008   -0.646398    5.584148    5.615988
  17 H     1.0000    0     1.008    1.910181    7.014476    4.020345
  18 H     1.0000    0     1.008   -0.176092    6.103490   -0.135987
  19 H     1.0000    0     1.008   -2.732914    4.690331    1.459804
  20 H     1.0000    0     1.008    0.222748    1.452079    3.324384
  21 H     1.0000    0     1.008    2.776607    2.932218    1.776428
  22 H     1.0000    0     1.008    1.558036   -3.771035   -1.685171
  23 H     1.0000    0     1.008    1.745958   -2.813976    1.501975
  24 H     1.0000    0     1.008    5.343647   -1.126558   -2.738088
  25 H     1.0000    0     1.008    5.599466   -0.215897    0.453487
  26 H     1.0000    0     1.008    6.138305   -4.748661    1.714443
  27 H     1.0000    0     1.008    5.897486   -5.663035   -1.484610
  28 H     1.0000    0     1.008    9.741194   -3.107776   -2.513855
  29 H     1.0000    0     1.008   10.370445   -5.402961   -0.158178
  30 H     1.0000    0     1.008    9.984372   -2.190111    0.702712
  31 H     1.0000    0     1.008   -2.984586   -1.621878    1.298444
  32 H     1.0000    0     1.008   -4.293106    0.960793   -0.352842
  33 H     1.0000    0     1.008   -2.723084   -4.053051   -2.790551
  34 H     1.0000    0     1.008   -3.960473   -1.431617   -4.426965
  35 H     1.0000    0     1.008   -7.924172   -1.693650   -1.842785
  36 H     1.0000    0     1.008   -6.675229   -4.311051   -0.194343
  37 H     1.0000    0     1.008   -6.437932   -6.754424   -4.236082
  38 H     1.0000    0     1.008   -7.691741   -4.122364   -5.893721
  39 H     1.0000    0     1.008   -9.553690   -5.703588   -3.603322

--------------------------------
INTERNAL COORDINATES (ANGSTROEM)
--------------------------------
 C      0   0   0     0.000000000000     0.00000000     0.00000000
 C      1   0   0     1.520432015770     0.00000000     0.00000000
 C      2   1   0     1.529875252139   111.50829690     0.00000000
 C      3   2   1     1.529329329784   111.06635037   180.03808093
 P      4   3   2     1.853703891684   112.31173732   182.19806733
 C      5   4   3     1.853703530517    99.99821651   181.21557406
 C      6   5   4     1.529329538379   112.31171667   283.34331391
 C      7   6   5     1.529875214223   111.06633023   182.19789376
 C      8   7   6     1.520432882609   111.50828612   180.03806624
 C      5   4   3     1.853704346744    99.99820518   283.34338429
 C     10   5   4     1.529329873420   112.31167911   181.21534381
 C     11  10   5     1.529875357656   111.06631112   182.19804125
 C     12  11  10     1.520431658874   111.50828362   180.03784894
 H      1   2   3     1.094676421776   110.99979748   299.75329026
 H      1   2   3     1.094486385336   110.25933218   180.01241360
 H      1   2   3     1.094681953803   111.00248686    60.27431259
 H      2   1   3     1.096239029689   109.14058311   238.46920332
 H      2   1   3     1.096228326785   109.12173689   121.56192625
 H      3   2   1     1.097636247224   109.30528141    58.42039374
 H      3   2   1     1.096554348299   109.07998408   301.98403287
 H      4   3   2     1.095778044077   110.16427614    59.42420137
 H      4   3   2     1.095343209799   108.82163766   302.15137648
 H      6   5   4     1.095343401584   108.34460513   163.11318976
 H      6   5   4     1.095778069996   109.83015481    46.30533012
 H      7   6   5     1.097636901386   110.05173034   303.37836767
 H      7   6   5     1.096554004005   110.43409607    61.04415151
 H      8   7   6     1.096238337216   109.84202227   301.16082319
 H      8   7   6     1.096227917819   109.87695465    58.91527405
 H      9   8   7     1.094677971039   110.99971339   299.75293712
 H      9   8   7     1.094485242884   110.25929562   180.01210009
 H      9   8   7     1.094681690743   111.00255309    60.27385267
 H     10   5   4     1.095777030132   109.83016525   304.17737868
 H     10   5   4     1.095342906018   108.34460067    60.98526525
 H     11  10   5     1.096554357975   110.43410612    61.04429717
 H     11  10   5     1.097636025038   110.05176234   303.37847676
 H     12  11  10     1.096228053267   109.87688000    58.91508043
 H     12  11  10     1.096238629045   109.84205004   301.16075653
 H     13  12  11     1.094681367235   111.00260114    60.27392703
 H     13  12  11     1.094677324143   110.99968610   299.75294348
 H     13  12  11     1.094486160670   110.25929629   180.01213347

---------------------------
INTERNAL COORDINATES (A.U.)
---------------------------
 C      0   0   0     0.000000000000     0.00000000     0.00000000
 C      1   0   0     2.873200115051     0.00000000     0.00000000
 C      2   1   0     2.891045245606   111.50829690     0.00000000
 C      3   2   1     2.890013601865   111.06635037   180.03808093
 P      4   3   2     3.502992688666   112.31173732   182.19806733
 C      5   4   3     3.502992006159    99.99821651   181.21557406
 C      6   5   4     2.890013996052   112.31171667   283.34331391
 C      7   6   5     2.891045173956   111.06633023   182.19789376
 C      8   7   6     2.873201753139   111.50828612   180.03806624
 C      5   4   3     3.502993548606    99.99820518   283.34338429
 C     10   5   4     2.890014629189   112.31167911   181.21534381
 C     11  10   5     2.891045445005   111.06631112   182.19804125
 C     12  11  10     2.873199440615   111.50828362   180.03784894
 H      1   2   3     2.068638642417   110.99979748   299.75329026
 H      1   2   3     2.068279525590   110.25933218   180.01241360
 H      1   2   3     2.068649096433   111.00248686    60.27431259
 H      2   1   3     2.071591543428   109.14058311   238.46920332
 H      2   1   3     2.071571317871   109.12173689   121.56192625
 H      3   2   1     2.074231901919   109.30528141    58.42039374
 H      3   2   1     2.072187409245   109.07998408   301.98403287
 H      4   3   2     2.070720406870   110.16427614    59.42420137
 H      4   3   2     2.069898689171   108.82163766   302.15137648
 H      6   5   4     2.069899051592   108.34460513   163.11318976
 H      6   5   4     2.070720455850   109.83015481    46.30533012
 H      7   6   5     2.074233138106   110.05173034   303.37836767
 H      7   6   5     2.072186758624   110.43409607    61.04415151
 H      8   7   6     2.071590234843   109.84202227   301.16082319
 H      8   7   6     2.071570545037   109.87695465    58.91527405
 H      9   8   7     2.068641570099   110.99971339   299.75293712
 H      9   8   7     2.068277366669   110.25929562   180.01210009
 H      9   8   7     2.068648599322   111.00255309    60.27385267
 H     10   5   4     2.070718490790   109.83016525   304.17737868
 H     10   5   4     2.069898115107   108.34460067    60.98526525
 H     11  10   5     2.072187427531   110.43410612    61.04429717
 H     11  10   5     2.074231482048   110.05176234   303.37847676
 H     12  11  10     2.071570800996   109.87688000    58.91508043
 H     12  11  10     2.071590786320   109.84205004   301.16075653
 H     13  12  11     2.068647987980   111.00260114    60.27392703
 H     13  12  11     2.068640347644   110.99968610   299.75294348
 H     13  12  11     2.068279101034   110.25929629   180.01213347

---------------------
BASIS SET INFORMATION
---------------------
There are 3 groups of distinct atoms

 Group   1 Type C   : 7s4p1d contracted to 3s2p1d pattern {511/31/1}
 Group   2 Type P   : 10s7p1d contracted to 4s3p1d pattern {5311/511/1}
 Group   3 Type H   : 4s1p contracted to 2s1p pattern {31/1}

Atom   0C    basis set group =>   1
Atom   1C    basis set group =>   1
Atom   2C    basis set group =>   1
Atom   3C    basis set group =>   1
Atom   4P    basis set group =>   2
Atom   5C    basis set group =>   1
Atom   6C    basis set group =>   1
Atom   7C    basis set group =>   1
Atom   8C    basis set group =>   1
Atom   9C    basis set group =>   1
Atom  10C    basis set group =>   1
Atom  11C    basis set group =>   1
Atom  12C    basis set group =>   1
Atom  13H    basis set group =>   3
Atom  14H    basis set group =>   3
Atom  15H    basis set group =>   3
Atom  16H    basis set group =>   3
Atom  17H    basis set group =>   3
Atom  18H    basis set group =>   3
Atom  19H    basis set group =>   3
Atom  20H    basis set group =>   3
Atom  21H    basis set group =>   3
Atom  22H    basis set group =>   3
Atom  23H    basis set group =>   3
Atom  24H    basis set group =>   3
Atom  25H    basis set group =>   3
Atom  26H    basis set group =>   3
Atom  27H    basis set group =>   3
Atom  28H    basis set group =>   3
Atom  29H    basis set group =>   3
Atom  30H    basis set group =>   3
Atom  31H    basis set group =>   3
Atom  32H    basis set group =>   3
Atom  33H    basis set group =>   3
Atom  34H    basis set group =>   3
Atom  35H    basis set group =>   3
Atom  36H    basis set group =>   3
Atom  37H    basis set group =>   3
Atom  38H    basis set group =>   3
Atom  39H    basis set group =>   3
---------------------------------
AUXILIARY/J BASIS SET INFORMATION
---------------------------------
There are 3 groups of distinct atoms

 Group   1 Type C   : 12s5p4d2f1g contracted to 6s4p3d1f1g pattern {711111/2111/211/2/1}
 Group   2 Type P   : 14s5p5d2f1g contracted to 8s4p3d1f1g pattern {71111111/2111/311/2/1}
 Group   3 Type H   : 5s2p1d contracted to 3s1p1d pattern {311/2/1}

Atom   0C    basis set group =>   1
Atom   1C    basis set group =>   1
Atom   2C    basis set group =>   1
Atom   3C    basis set group =>   1
Atom   4P    basis set group =>   2
Atom   5C    basis set group =>   1
Atom   6C    basis set group =>   1
Atom   7C    basis set group =>   1
Atom   8C    basis set group =>   1
Atom   9C    basis set group =>   1
Atom  10C    basis set group =>   1
Atom  11C    basis set group =>   1
Atom  12C    basis set group =>   1
Atom  13H    basis set group =>   3
Atom  14H    basis set group =>   3
Atom  15H    basis set group =>   3
Atom  16H    basis set group =>   3
Atom  17H    basis set group =>   3
Atom  18H    basis set group =>   3
Atom  19H    basis set group =>   3
Atom  20H    basis set group =>   3
Atom  21H    basis set group =>   3
Atom  22H    basis set group =>   3
Atom  23H    basis set group =>   3
Atom  24H    basis set group =>   3
Atom  25H    basis set group =>   3
Atom  26H    basis set group =>   3
Atom  27H    basis set group =>   3
Atom  28H    basis set group =>   3
Atom  29H    basis set group =>   3
Atom  30H    basis set group =>   3
Atom  31H    basis set group =>   3
Atom  32H    basis set group =>   3
Atom  33H    basis set group =>   3
Atom  34H    basis set group =>   3
Atom  35H    basis set group =>   3
Atom  36H    basis set group =>   3
Atom  37H    basis set group =>   3
Atom  38H    basis set group =>   3
Atom  39H    basis set group =>   3


           ************************************************************
           *        Program running with 6 parallel MPI-processes     *
           *              working on a common directory               *
           ************************************************************
------------------------------------------------------------------------------
                             ORCA STARTUP CALCULATIONS
                           -- RI-GTO INTEGRALS CHOSEN --
------------------------------------------------------------------------------
------------------------------------------------------------------------------
                   ___                                                        
                  /   \      - P O W E R E D   B Y -                         
                 /     \                                                     
                 |  |  |   _    _      __       _____    __    __             
                 |  |  |  | |  | |    /  \     |  _  \  |  |  /  |          
                  \  \/   | |  | |   /    \    | | | |  |  | /  /          
                 / \  \   | |__| |  /  /\  \   | |_| |  |  |/  /          
                |  |  |   |  __  | /  /__\  \  |    /   |      \           
                |  |  |   | |  | | |   __   |  |    \   |  |\   \          
                \     /   | |  | | |  |  |  |  | |\  \  |  | \   \       
                 \___/    |_|  |_| |__|  |__|  |_| \__\ |__|  \__/        
                                                                              
                      - O R C A' S   B I G   F R I E N D -                    
                                      &                                       
                       - I N T E G R A L  F E E D E R -                       
                                                                              
 v1 FN, 2020, v2 2021, v3 2022-2024                                           
------------------------------------------------------------------------------


----------------------
SHARK INTEGRAL PACKAGE
----------------------

Number of atoms                             ...     40
Number of basis functions                   ...    321
Number of shells                            ...    161
Maximum angular momentum                    ...      2
Integral batch strategy                     ... SHARK/LIBINT Hybrid
RI-J (if used) integral strategy            ... SPLIT-RIJ (Revised 2003 algorithm where possible)
Printlevel                                  ...      1
Contraction scheme used                     ... SEGMENTED contraction
Prescreening option                         ... SCHWARTZ
   Thresh                                   ... 2.500e-11
   Tcut                                     ... 2.500e-12
   Tpresel                                  ... 2.500e-12 
Coulomb Range Separation                    ... NOT USED
Exchange Range Separation                   ... NOT USED
Multipole approximations                    ... NOT USED
Finite Nucleus Model                        ... NOT USED
CABS basis                                  ... NOT available
Auxiliary Coulomb fitting basis             ... AVAILABLE
   # of basis functions in Aux-J            ...    936
   # of shells in Aux-J                     ...    332
   Maximum angular momentum in Aux-J        ...      4
Auxiliary J/K fitting basis                 ... NOT available
Auxiliary Correlation fitting basis         ... NOT available
Auxiliary 'external' fitting basis          ... NOT available

Checking pre-screening integrals            ... done (  0.0 sec) Dimension = 161
Check shell pair data                       ... done (  0.0 sec)
Shell pair information
Shell pair cut-off parameter TPreSel        ...   2.5e-12
Total number of shell pairs                 ...     13041
Shell pairs after pre-screening             ...      9635
Total number of primitive shell pairs       ...     44513
Primitive shell pairs kept                  ...     22173
          la=0 lb=0:   3526 shell pairs
          la=1 lb=0:   3768 shell pairs
          la=1 lb=1:    990 shell pairs
          la=2 lb=0:    856 shell pairs
          la=2 lb=1:    438 shell pairs
          la=2 lb=2:     57 shell pairs

Calculating one electron integrals          ... done (  0.0 sec)
Calculating RI/J V-Matrix + Cholesky decomp.... done (  0.0 sec)
Calculating Nuclear repulsion               ... done (  0.0 sec) ENN=    922.812865580988 Eh

Diagonalization of the overlap matrix:
Smallest eigenvalue                        ... 1.133e-03
Time for diagonalization                   ...    0.013 sec
Threshold for overlap eigenvalues          ... 1.000e-07
Number of eigenvalues below threshold      ... 0
Time for construction of square roots      ...    0.009 sec
Total time needed                          ...    0.023 sec

-------------------
DFT GRID GENERATION
-------------------

General Integration Accuracy     IntAcc      ... 4.388
Radial Grid Type                 RadialGrid  ... OptM3 with GC (2021)
Angular Grid (max. ang.)         AngularGrid ... 4 (Lebedev-302)
Angular grid pruning method      GridPruning ... 4 (adaptive)
Weight generation scheme         WeightScheme... mBecke (2022)
Basis function cutoff            BFCut       ... 1.0000e-11
Integration weight cutoff        WCut        ... 1.0000e-14
Partially contracted basis set               ... off
Rotationally invariant grid construction     ... off
Angular grids for H and He will be reduced by one unit

Total number of grid points                  ...   165007
Total number of batches                      ...     2599
Average number of points per batch           ...       63
Average number of grid points per atom       ...     4125
Initializing property integral containers    ... done (  0.0 sec)

SHARK setup successfully completed in   1.1 seconds

Maximum memory used throughout the entire STARTUP-calculation: 44.7 MB


           ************************************************************
           *        Program running with 6 parallel MPI-processes     *
           *              working on a common directory               *
           ************************************************************
-------------------------------------------------------------------------------
                                 ORCA GUESS
                   Start orbitals & Density for SCF / CASSCF
-------------------------------------------------------------------------------

------------
SCF SETTINGS
------------
Hamiltonian:
 Density Functional     Method          .... DFT(GTOs)
 Exchange Functional    Exchange        .... B88
   X-Alpha parameter    XAlpha          ....  0.666667
   Becke's b parameter  XBeta           ....  0.004200
 Correlation Functional Correlation     .... P86
 LDA part of GGA corr.  LDAOpt          .... PW91-LDA
 Gradients option       PostSCFGGA      .... off
   NL short-range parameter             ....  4.400000
 RI-approximation to the Coulomb term is turned on
   Number of AuxJ basis functions       .... 936


General Settings:
 Integral files         IntName         .... data/geom_opt_P_BP86/13831/13831
 Hartree-Fock type      HFTyp           .... RHF
 Total Charge           Charge          ....    0
 Multiplicity           Mult            ....    1
 Number of Electrons    NEL             ....  114
 Basis Dimension        Dim             ....  321
 Nuclear Repulsion      ENuc            ....    922.8128655810 Eh

Convergence Acceleration:
 AO-DIIS                CNVDIIS         .... on
   Start iteration      DIISMaxIt       ....    12
   Startup error        DIISStart       ....  0.200000
   # of expansion vecs  DIISMaxEq       ....     5
   Bias factor          DIISBfac        ....   1.050
   Max. coefficient     DIISMaxC        ....  10.000
 MO-DIIS                CNVKDIIS        .... off
 Trust-Rad. Augm. Hess. CNVTRAH         .... auto
   Auto Start mean grad. ratio tolernc. ....  1.125000
   Auto Start start iteration           ....    50
   Auto Start num. interpolation iter.  ....    10
   Max. Number of Micro iterations      ....    24
   Max. Number of Macro iterations      .... Maxiter - #DIIS iter
   Number of Davidson start vectors     ....     2
   Converg. threshold    (grad. norm)   ....   1.000e-05
   Grad. Scal. Fac. for Micro threshold ....   0.100
   Minimum threshold for Micro iter.    ....   1.000e-02
   NR start threshold (gradient norm)   ....   1.000e-04
   Initial trust radius                 ....   0.400
   Minimum AH scaling param. (alpha)    ....   1.000
   Maximum AH scaling param. (alpha)    .... 1000.000
   Quad. conv. algorithm                .... NR
   White noise on init. David. guess    .... on
   Maximum white noise                  ....   0.010
   Pseudo random numbers                .... off
   Inactive MOs                         .... canonical
   Orbital update algorithm             .... Taylor
   Preconditioner                       .... Diag
   Full preconditioner red. dimension   ....   250
 SOSCF                  CNVSOSCF        .... on
   Start iteration      SOSCFMaxIt      ....   150
   Startup grad/error   SOSCFStart      ....  0.003300
   Hessian update       SOSCFHessUp     .... L-BFGS
 Level Shifting         CNVShift        .... on
   Level shift para.    LevelShift      ....    0.2500
   Turn off err/grad.   ShiftErr        ....    0.0010
 Zerner damping         CNVZerner       .... off
 Static damping         CNVDamp         .... on
   Fraction old density DampFac         ....    0.7000
   Max. Damping (<1)    DampMax         ....    0.9800
   Min. Damping (>=0)   DampMin         ....    0.0000
   Turn off err/grad.   DampErr         ....    0.1000

SCF Procedure:
 Maximum # iterations   MaxIter         ....   125
 SCF integral mode      SCFMode         .... Direct
   Integral package                     .... SHARK and LIBINT hybrid scheme
 Reset frequency        DirectResetFreq ....    20
 Integral Threshold     Thresh          ....  2.500e-11 Eh
 Primitive CutOff       TCut            ....  2.500e-12 Eh

Convergence Tolerance:
 Convergence Check Mode ConvCheckMode   .... Total+1el-Energy
 Convergence forced     ConvForced      .... 0
 Energy Change          TolE            ....  1.000e-08 Eh
 1-El. energy change                    ....  1.000e-05 Eh
 Orbital Gradient       TolG            ....  1.000e-05
 Orbital Rotation angle TolX            ....  1.000e-05
 DIIS Error             TolErr          ....  5.000e-07

------------------------------
INITIAL GUESS: MODEL POTENTIAL
------------------------------
Loading Hartree-Fock densities                     ... done
Calculating cut-offs                               ... done
Initializing the effective Hamiltonian             ... done
Setting up the integral package (SHARK)            ... done
Starting the Coulomb interaction                   ... done (   0.1 sec)
Making the grid                                    ... done (   0.2 sec)
Mapping shells                                     ... done
Starting the XC term evaluation                    ... done (   0.1 sec)
  promolecular density results
     # of electrons  =    113.990229859
     EX              =    -92.394754410
     EC              =     -4.159023542
     EX+EC           =    -96.553777952
Transforming the Hamiltonian                       ... done (   0.0 sec)
Diagonalizing the Hamiltonian                      ... done (   0.0 sec)
Back transforming the eigenvectors                 ... done (   0.0 sec)
Now organizing SCF variables                       ... done
                      ------------------
                      INITIAL GUESS DONE (   0.5 sec)
                      ------------------
             **** ENERGY FILE WAS UPDATED (data/geom_opt_P_BP86/13831/13831.en.tmp) ****
Finished Guess after   0.5 sec
Maximum memory used throughout the entire GUESS-calculation: 22.9 MB


           ************************************************************
           *        Program running with 6 parallel MPI-processes     *
           *              working on a common directory               *
           ************************************************************

-------------------------------------------------------------------------------------------
                                      ORCA LEAN-SCF
                              memory conserving SCF solver
-------------------------------------------------------------------------------------------

----------------------------------------D-I-I-S--------------------------------------------
Iteration    Energy (Eh)           Delta-E    RMSDP     MaxDP     DIISErr   Damp  Time(sec)
-------------------------------------------------------------------------------------------
               ***  Starting incremental Fock matrix formation  ***
    1    -814.0331535795783111     0.00e+00  2.44e-03  7.61e-02  1.63e-01  0.700   0.6
    2    -814.2485098115428173    -2.15e-01  1.75e-03  5.67e-02  7.81e-02  0.700   0.7
                               ***Turning on AO-DIIS***
    3    -814.3229968077846479    -7.45e-02  7.55e-04  4.45e-02  2.23e-02  0.700   0.7
    4    -814.3662329492790377    -4.32e-02  1.29e-03  9.44e-02  8.00e-03  0.000   0.6
    5    -814.4645162781348517    -9.83e-02  2.83e-04  1.28e-02  7.55e-03  0.000   0.6
                              *** Initializing SOSCF ***
---------------------------------------S-O-S-C-F--------------------------------------
Iteration    Energy (Eh)           Delta-E    RMSDP     MaxDP     MaxGrad    Time(sec)
--------------------------------------------------------------------------------------
    6    -814.4656086278212115    -1.09e-03  1.06e-04  1.95e-03  1.82e-03     0.7
               *** Restarting incremental Fock matrix formation ***
    7    -814.4657058381110346    -9.72e-05  8.68e-05  3.42e-03  3.81e-04     0.7
    8    -814.4657071994838589    -1.36e-06  2.58e-05  1.66e-03  2.38e-04     0.6
    9    -814.4657159167754799    -8.72e-06  1.07e-05  5.78e-04  3.64e-05     0.5
   10    -814.4657160574752197    -1.41e-07  4.99e-06  4.56e-04  3.96e-05     0.5
   11    -814.4657161247646400    -6.73e-08  2.39e-06  1.04e-04  1.10e-05     0.6
   12    -814.4657161329841983    -8.22e-09  8.66e-07  1.76e-05  5.03e-06     0.5
                 **** Energy Check signals convergence ****

               *****************************************************
               *                     SUCCESS                       *
               *           SCF CONVERGED AFTER  12 CYCLES          *
               *****************************************************

             **** ENERGY FILE WAS UPDATED (data/geom_opt_P_BP86/13831/13831.en.tmp) ****

----------------
TOTAL SCF ENERGY
----------------

Total Energy       :       -814.46571613298420 Eh          -22162.73887 eV

Components:
Nuclear Repulsion  :        922.81286558098782 Eh           25111.01469 eV
Electronic Energy  :      -1737.27858171397202 Eh          -47273.75356 eV
One Electron Energy:      -2940.54117749108354 Eh          -80016.19338 eV
Two Electron Energy:       1203.26259577711153 Eh           32742.43982 eV

Virial components:
Potential Energy   :      -1621.83348086042679 Eh          -44132.33266 eV
Kinetic Energy     :        807.36776472744270 Eh           21969.59379 eV
Virial Ratio       :          2.00879147238178

DFT components:
N(Alpha)           :       57.000052214097 electrons
N(Beta)            :       57.000052214097 electrons
N(Total)           :      114.000104428193 electrons
E(X)               :      -94.330858473274 Eh       
E(C)               :       -4.148713345937 Eh       
E(XC)              :      -98.479571819211 Eh       

---------------
SCF CONVERGENCE
---------------

  Last Energy change         ...    8.2196e-09  Tolerance :   1.0000e-08
  Last MAX-Density change    ...    1.7577e-05  Tolerance :   1.0000e-07
  Last RMS-Density change    ...    8.6649e-07  Tolerance :   5.0000e-09
  Last DIIS Error            ...    1.8190e-03  Tolerance :   5.0000e-07
  Last Orbital Gradient      ...    5.0280e-06  Tolerance :   1.0000e-05
  Last Orbital Rotation      ...    1.1333e-05  Tolerance :   1.0000e-05


----------------
ORBITAL ENERGIES
----------------

  NO   OCC          E(Eh)            E(eV) 
   0   2.0000     -76.317237     -2076.6976 
   1   2.0000      -9.907047      -269.5845 
   2   2.0000      -9.907035      -269.5841 
   3   2.0000      -9.907021      -269.5837 
   4   2.0000      -9.905142      -269.5326 
   5   2.0000      -9.905123      -269.5321 
   6   2.0000      -9.905070      -269.5307 
   7   2.0000      -9.905063      -269.5305 
   8   2.0000      -9.905060      -269.5304 
   9   2.0000      -9.905048      -269.5301 
  10   2.0000      -9.899132      -269.3691 
  11   2.0000      -9.899132      -269.3691 
  12   2.0000      -9.899131      -269.3690 
  13   2.0000      -6.288248      -171.1119 
  14   2.0000      -4.509602      -122.7125 
  15   2.0000      -4.509598      -122.7124 
  16   2.0000      -4.505843      -122.6102 
  17   2.0000      -0.730913       -19.8891 
  18   2.0000      -0.719144       -19.5689 
  19   2.0000      -0.719136       -19.5687 
  20   2.0000      -0.677894       -18.4464 
  21   2.0000      -0.648567       -17.6484 
  22   2.0000      -0.648562       -17.6483 
  23   2.0000      -0.589021       -16.0281 
  24   2.0000      -0.555114       -15.1054 
  25   2.0000      -0.555111       -15.1053 
  26   2.0000      -0.517093       -14.0708 
  27   2.0000      -0.516537       -14.0557 
  28   2.0000      -0.516532       -14.0556 
  29   2.0000      -0.467296       -12.7158 
  30   2.0000      -0.426688       -11.6108 
  31   2.0000      -0.426681       -11.6106 
  32   2.0000      -0.426217       -11.5979 
  33   2.0000      -0.389958       -10.6113 
  34   2.0000      -0.389951       -10.6111 
  35   2.0000      -0.387523       -10.5450 
  36   2.0000      -0.373447       -10.1620 
  37   2.0000      -0.373444       -10.1619 
  38   2.0000      -0.370270       -10.0755 
  39   2.0000      -0.354788        -9.6543 
  40   2.0000      -0.354781        -9.6541 
  41   2.0000      -0.342724        -9.3260 
  42   2.0000      -0.324604        -8.8329 
  43   2.0000      -0.324601        -8.8328 
  44   2.0000      -0.320777        -8.7288 
  45   2.0000      -0.308452        -8.3934 
  46   2.0000      -0.308450        -8.3934 
  47   2.0000      -0.300360        -8.1732 
  48   2.0000      -0.295894        -8.0517 
  49   2.0000      -0.295891        -8.0516 
  50   2.0000      -0.295181        -8.0323 
  51   2.0000      -0.288180        -7.8418 
  52   2.0000      -0.283774        -7.7219 
  53   2.0000      -0.283772        -7.7218 
  54   2.0000      -0.254727        -6.9315 
  55   2.0000      -0.254723        -6.9314 
  56   2.0000      -0.185038        -5.0351 
  57   0.0000       0.030497         0.8299 
  58   0.0000       0.030526         0.8307 
  59   0.0000       0.036790         1.0011 
  60   0.0000       0.047483         1.2921 
  61   0.0000       0.047494         1.2924 
  62   0.0000       0.052237         1.4214 
  63   0.0000       0.061721         1.6795 
  64   0.0000       0.061736         1.6799 
  65   0.0000       0.072309         1.9676 
  66   0.0000       0.081722         2.2238 
  67   0.0000       0.081741         2.2243 
*Only the first 10 virtual orbitals were printed.

                    ********************************
                    * MULLIKEN POPULATION ANALYSIS *
                    ********************************

-----------------------
MULLIKEN ATOMIC CHARGES
-----------------------
   0 C :   -0.019934
   1 C :   -0.057339
   2 C :   -0.010082
   3 C :   -0.139154
   4 P :    0.115335
   5 C :   -0.139905
   6 C :   -0.010118
   7 C :   -0.057293
   8 C :   -0.019913
   9 C :   -0.139503
  10 C :   -0.010140
  11 C :   -0.057339
  12 C :   -0.019913
  13 H :    0.022173
  14 H :    0.022343
  15 H :    0.020845
  16 H :    0.012598
  17 H :    0.014400
  18 H :    0.020775
  19 H :    0.013721
  20 H :    0.022036
  21 H :    0.039323
  22 H :    0.039455
  23 H :    0.022248
  24 H :    0.020830
  25 H :    0.013720
  26 H :    0.012611
  27 H :    0.014398
  28 H :    0.022189
  29 H :    0.022336
  30 H :    0.020850
  31 H :    0.022154
  32 H :    0.039388
  33 H :    0.013750
  34 H :    0.020768
  35 H :    0.014413
  36 H :    0.012568
  37 H :    0.020866
  38 H :    0.022193
  39 H :    0.022344
Sum of atomic charges:   -0.0000000

--------------------------------
MULLIKEN REDUCED ORBITAL CHARGES
--------------------------------
  0 C s       :     2.989649  s :     2.989649
      pz      :     1.004801  p :     3.003429
      px      :     1.006260
      py      :     0.992368
      dz2     :     0.004910  d :     0.026856
      dxz     :     0.001478
      dyz     :     0.008760
      dx2y2   :     0.007657
      dxy     :     0.004051

  1 C s       :     3.034488  s :     3.034488
      pz      :     0.997149  p :     2.987758
      px      :     1.009921
      py      :     0.980688
      dz2     :     0.008025  d :     0.035093
      dxz     :     0.003194
      dyz     :     0.009491
      dx2y2   :     0.008674
      dxy     :     0.005709

  2 C s       :     3.008505  s :     3.008505
      pz      :     1.000882  p :     2.966958
      px      :     1.006358
      py      :     0.959718
      dz2     :     0.008070  d :     0.034619
      dxz     :     0.003144
      dyz     :     0.009136
      dx2y2   :     0.008707
      dxy     :     0.005562

  3 C s       :     3.064121  s :     3.064121
      pz      :     1.019208  p :     3.046587
      px      :     1.024294
      py      :     1.003086
      dz2     :     0.006442  d :     0.028445
      dxz     :     0.001808
      dyz     :     0.008042
      dx2y2   :     0.007645
      dxy     :     0.004507

  4 P s       :     5.814547  s :     5.814547
      pz      :     3.206210  p :     8.904176
      px      :     2.805990
      py      :     2.891976
      dz2     :     0.031871  d :     0.165942
      dxz     :     0.022348
      dyz     :     0.034870
      dx2y2   :     0.033695
      dxy     :     0.043158

  5 C s       :     3.064294  s :     3.064294
      pz      :     1.014296  p :     3.047163
      px      :     1.002469
      py      :     1.030398
      dz2     :     0.005680  d :     0.028448
      dxz     :     0.004960
      dyz     :     0.006191
      dx2y2   :     0.005317
      dxy     :     0.006299

  6 C s       :     3.008342  s :     3.008342
      pz      :     1.015474  p :     2.967155
      px      :     0.947987
      py      :     1.003694
      dz2     :     0.006408  d :     0.034620
      dxz     :     0.004938
      dyz     :     0.007581
      dx2y2   :     0.007896
      dxy     :     0.007796

  7 C s       :     3.034422  s :     3.034422
      pz      :     1.007028  p :     2.987777
      px      :     0.979482
      py      :     1.001267
      dz2     :     0.006683  d :     0.035095
      dxz     :     0.004976
      dyz     :     0.007608
      dx2y2   :     0.008013
      dxy     :     0.007814

  8 C s       :     2.989621  s :     2.989621
      pz      :     1.014850  p :     3.003436
      px      :     0.986668
      py      :     1.001918
      dz2     :     0.005778  d :     0.026856
      dxz     :     0.004622
      dyz     :     0.004745
      dx2y2   :     0.004622
      dxy     :     0.007089

  9 C s       :     3.064180  s :     3.064180
      pz      :     1.020519  p :     3.046876
      px      :     1.015315
      py      :     1.011042
      dz2     :     0.007822  d :     0.028447
      dxz     :     0.003505
      dyz     :     0.006528
      dx2y2   :     0.003695
      dxy     :     0.006897

 10 C s       :     3.008413  s :     3.008413
      pz      :     1.004208  p :     2.967108
      px      :     0.976305
      py      :     0.986595
      dz2     :     0.008197  d :     0.034620
      dxz     :     0.004683
      dyz     :     0.007158
      dx2y2   :     0.005457
      dxy     :     0.009125

 11 C s       :     3.034425  s :     3.034425
      pz      :     1.008517  p :     2.987819
      px      :     0.981452
      py      :     0.997850
      dz2     :     0.008369  d :     0.035094
      dxz     :     0.004646
      dyz     :     0.007247
      dx2y2   :     0.005514
      dxy     :     0.009319

 12 C s       :     2.989616  s :     2.989616
      pz      :     0.998902  p :     3.003440
      px      :     1.000206
      py      :     1.004332
      dz2     :     0.007815  d :     0.026856
      dxz     :     0.002429
      dyz     :     0.005859
      dx2y2   :     0.004387
      dxy     :     0.006366

 13 H s       :     0.954904  s :     0.954904
      pz      :     0.010151  p :     0.022922
      px      :     0.005640
      py      :     0.007131

 14 H s       :     0.954921  s :     0.954921
      pz      :     0.010278  p :     0.022735
      px      :     0.005485
      py      :     0.006973

 15 H s       :     0.956225  s :     0.956225
      pz      :     0.005595  p :     0.022930
      px      :     0.012545
      py      :     0.004790

 16 H s       :     0.965553  s :     0.965553
      pz      :     0.009897  p :     0.021848
      px      :     0.005576
      py      :     0.006375

 17 H s       :     0.963771  s :     0.963771
      pz      :     0.004707  p :     0.021829
      px      :     0.012233
      py      :     0.004889

 18 H s       :     0.957536  s :     0.957536
      pz      :     0.010088  p :     0.021689
      px      :     0.005482
      py      :     0.006119

 19 H s       :     0.964285  s :     0.964285
      pz      :     0.004913  p :     0.021994
      px      :     0.012335
      py      :     0.004746

 20 H s       :     0.955493  s :     0.955493
      pz      :     0.010080  p :     0.022470
      px      :     0.005494
      py      :     0.006896

 21 H s       :     0.937897  s :     0.937897
      pz      :     0.005176  p :     0.022779
      px      :     0.012558
      py      :     0.005045

 22 H s       :     0.937771  s :     0.937771
      pz      :     0.008228  p :     0.022774
      px      :     0.005392
      py      :     0.009153

 23 H s       :     0.955291  s :     0.955291
      pz      :     0.012107  p :     0.022461
      px      :     0.004655
      py      :     0.005699

 24 H s       :     0.957486  s :     0.957486
      pz      :     0.012052  p :     0.021684
      px      :     0.004295
      py      :     0.005337

 25 H s       :     0.964290  s :     0.964290
      pz      :     0.008116  p :     0.021990
      px      :     0.004931
      py      :     0.008944

 26 H s       :     0.965542  s :     0.965542
      pz      :     0.011867  p :     0.021847
      px      :     0.004658
      py      :     0.005322

 27 H s       :     0.963774  s :     0.963774
      pz      :     0.008019  p :     0.021828
      px      :     0.004994
      py      :     0.008816

 28 H s       :     0.954891  s :     0.954891
      pz      :     0.011976  p :     0.022920
      px      :     0.004881
      py      :     0.006063

 29 H s       :     0.954929  s :     0.954929
      pz      :     0.005692  p :     0.022735
      px      :     0.006600
      py      :     0.010442

 30 H s       :     0.956222  s :     0.956222
      pz      :     0.008266  p :     0.022928
      px      :     0.005425
      py      :     0.009237

 31 H s       :     0.955381  s :     0.955381
      pz      :     0.010777  p :     0.022465
      px      :     0.005170
      py      :     0.006518

 32 H s       :     0.937835  s :     0.937835
      pz      :     0.004940  p :     0.022777
      px      :     0.007843
      py      :     0.009994

 33 H s       :     0.964259  s :     0.964259
      pz      :     0.004951  p :     0.021991
      px      :     0.007456
      py      :     0.009584

 34 H s       :     0.957545  s :     0.957545
      pz      :     0.010617  p :     0.021687
      px      :     0.004373
      py      :     0.006696

 35 H s       :     0.963758  s :     0.963758
      pz      :     0.004952  p :     0.021829
      px      :     0.007427
      py      :     0.009449

 36 H s       :     0.965585  s :     0.965585
      pz      :     0.010586  p :     0.021847
      px      :     0.004464
      py      :     0.006797

 37 H s       :     0.956206  s :     0.956206
      pz      :     0.005001  p :     0.022928
      px      :     0.007727
      py      :     0.010200

 38 H s       :     0.954887  s :     0.954887
      pz      :     0.010932  p :     0.022921
      px      :     0.005498
      py      :     0.006491

 39 H s       :     0.954922  s :     0.954922
      pz      :     0.005257  p :     0.022734
      px      :     0.011676
      py      :     0.005801



                     *******************************
                     * LOEWDIN POPULATION ANALYSIS *
                     *******************************

----------------------
LOEWDIN ATOMIC CHARGES
----------------------
   0 C :   -0.068468
   1 C :   -0.046295
   2 C :   -0.051698
   3 C :   -0.180927
   4 P :    0.437376
   5 C :   -0.181050
   6 C :   -0.051725
   7 C :   -0.046301
   8 C :   -0.068476
   9 C :   -0.180994
  10 C :   -0.051719
  11 C :   -0.046310
  12 C :   -0.068478
  13 H :    0.024946
  14 H :    0.026082
  15 H :    0.024127
  16 H :    0.021906
  17 H :    0.022344
  18 H :    0.024229
  19 H :    0.019323
  20 H :    0.015148
  21 H :    0.023520
  22 H :    0.023549
  23 H :    0.015184
  24 H :    0.024248
  25 H :    0.019330
  26 H :    0.021917
  27 H :    0.022349
  28 H :    0.024952
  29 H :    0.026083
  30 H :    0.024129
  31 H :    0.015172
  32 H :    0.023532
  33 H :    0.019337
  34 H :    0.024234
  35 H :    0.022350
  36 H :    0.021906
  37 H :    0.024134
  38 H :    0.024952
  39 H :    0.026084

-------------------------------
LOEWDIN REDUCED ORBITAL CHARGES
-------------------------------
  0 C s       :     2.839778  s :     2.839778
      pz      :     1.065258  p :     3.158242
      px      :     1.057684
      py      :     1.035300
      dz2     :     0.013922  d :     0.070448
      dxz     :     0.003662
      dyz     :     0.022013
      dx2y2   :     0.019151
      dxy     :     0.011700

  1 C s       :     2.840359  s :     2.840359
      pz      :     1.039023  p :     3.117566
      px      :     1.053352
      py      :     1.025191
      dz2     :     0.020573  d :     0.088370
      dxz     :     0.006871
      dyz     :     0.024543
      dx2y2   :     0.021289
      dxy     :     0.015093

  2 C s       :     2.842665  s :     2.842665
      pz      :     1.046931  p :     3.121003
      px      :     1.052565
      py      :     1.021507
      dz2     :     0.020400  d :     0.088029
      dxz     :     0.006800
      dyz     :     0.024259
      dx2y2   :     0.021787
      dxy     :     0.014783

  3 C s       :     2.894161  s :     2.894161
      pz      :     1.089940  p :     3.213886
      px      :     1.069410
      py      :     1.054537
      dz2     :     0.017570  d :     0.072879
      dxz     :     0.004208
      dyz     :     0.019978
      dx2y2   :     0.018706
      dxy     :     0.012418

  4 P s       :     5.311444  s :     5.311444
      pz      :     3.289073  p :     9.030454
      px      :     2.820311
      py      :     2.921069
      dz2     :     0.042364  d :     0.220727
      dxz     :     0.026658
      dyz     :     0.047200
      dx2y2   :     0.044859
      dxy     :     0.059647

  5 C s       :     2.894156  s :     2.894156
      pz      :     1.079851  p :     3.214019
      px      :     1.046278
      py      :     1.087889
      dz2     :     0.015950  d :     0.072876
      dxz     :     0.010151
      dyz     :     0.016063
      dx2y2   :     0.015104
      dxy     :     0.015608

  6 C s       :     2.842651  s :     2.842651
      pz      :     1.066447  p :     3.121045
      px      :     1.012634
      py      :     1.041963
      dz2     :     0.018171  d :     0.088030
      dxz     :     0.010305
      dyz     :     0.018365
      dx2y2   :     0.021133
      dxy     :     0.020056

  7 C s       :     2.840351  s :     2.840351
      pz      :     1.060988  p :     3.117581
      px      :     1.019578
      py      :     1.037016
      dz2     :     0.018579  d :     0.088369
      dxz     :     0.010376
      dyz     :     0.018686
      dx2y2   :     0.020964
      dxy     :     0.019764

  8 C s       :     2.839779  s :     2.839779
      pz      :     1.067401  p :     3.158248
      px      :     1.026836
      py      :     1.064011
      dz2     :     0.016310  d :     0.070449
      dxz     :     0.009868
      dyz     :     0.012729
      dx2y2   :     0.014156
      dxy     :     0.017386

  9 C s       :     2.894157  s :     2.894157
      pz      :     1.063354  p :     3.213959
      px      :     1.085210
      py      :     1.065395
      dz2     :     0.018608  d :     0.072878
      dxz     :     0.008242
      dyz     :     0.018595
      dx2y2   :     0.008777
      dxy     :     0.018655

 10 C s       :     2.842655  s :     2.842655
      pz      :     1.043489  p :     3.121035
      px      :     1.031425
      py      :     1.046121
      dz2     :     0.020448  d :     0.088029
      dxz     :     0.010782
      dyz     :     0.019743
      dx2y2   :     0.013495
      dxy     :     0.023561

 11 C s       :     2.840353  s :     2.840353
      pz      :     1.045406  p :     3.117589
      px      :     1.025708
      py      :     1.046475
      dz2     :     0.020679  d :     0.088369
      dxz     :     0.010472
      dyz     :     0.019974
      dx2y2   :     0.013625
      dxy     :     0.023619

 12 C s       :     2.839777  s :     2.839777
      pz      :     1.048032  p :     3.158252
      px      :     1.058445
      py      :     1.051776
      dz2     :     0.019118  d :     0.070449
      dxz     :     0.006300
      dyz     :     0.016898
      dx2y2   :     0.010946
      dxy     :     0.017187

 13 H s       :     0.909414  s :     0.909414
      pz      :     0.030036  p :     0.065641
      px      :     0.014546
      py      :     0.021059

 14 H s       :     0.908078  s :     0.908078
      pz      :     0.030341  p :     0.065841
      px      :     0.014232
      py      :     0.021268

 15 H s       :     0.910286  s :     0.910286
      pz      :     0.012854  p :     0.065587
      px      :     0.038921
      py      :     0.013812

 16 H s       :     0.912164  s :     0.912164
      pz      :     0.031341  p :     0.065930
      px      :     0.014597
      py      :     0.019992

 17 H s       :     0.911833  s :     0.911833
      pz      :     0.013132  p :     0.065823
      px      :     0.038544
      py      :     0.014148

 18 H s       :     0.909148  s :     0.909148
      pz      :     0.032267  p :     0.066624
      px      :     0.014428
      py      :     0.019929

 19 H s       :     0.913880  s :     0.913880
      pz      :     0.013562  p :     0.066797
      px      :     0.039231
      py      :     0.014004

 20 H s       :     0.913566  s :     0.913566
      pz      :     0.035521  p :     0.071286
      px      :     0.014803
      py      :     0.020962

 21 H s       :     0.905719  s :     0.905719
      pz      :     0.014960  p :     0.070761
      px      :     0.040158
      py      :     0.015643

 22 H s       :     0.905688  s :     0.905688
      pz      :     0.022745  p :     0.070764
      px      :     0.016711
      py      :     0.031308

 23 H s       :     0.913526  s :     0.913526
      pz      :     0.038126  p :     0.071291
      px      :     0.014915
      py      :     0.018250

 24 H s       :     0.909128  s :     0.909128
      pz      :     0.037043  p :     0.066624
      px      :     0.013631
      py      :     0.015950

 25 H s       :     0.913874  s :     0.913874
      pz      :     0.022652  p :     0.066797
      px      :     0.015746
      py      :     0.028398

 26 H s       :     0.912153  s :     0.912153
      pz      :     0.036137  p :     0.065930
      px      :     0.014186
      py      :     0.015607

 27 H s       :     0.911829  s :     0.911829
      pz      :     0.022439  p :     0.065822
      px      :     0.015484
      py      :     0.027899

 28 H s       :     0.909408  s :     0.909408
      pz      :     0.036237  p :     0.065640
      px      :     0.014500
      py      :     0.014903

 29 H s       :     0.908076  s :     0.908076
      pz      :     0.013933  p :     0.065841
      px      :     0.020784
      py      :     0.031123

 30 H s       :     0.910284  s :     0.910284
[...]
      pz      :     1.047190  p :     3.153611
      px      :     1.057095
      py      :     1.049326
      dz2     :     0.018795  d :     0.067255
      dxz     :     0.005752
      dyz     :     0.015585
      dx2y2   :     0.010526
      dxy     :     0.016597

 13 H s       :     0.909443  s :     0.909443
      pz      :     0.029332  p :     0.063169
      px      :     0.013462
      py      :     0.020376

 14 H s       :     0.907532  s :     0.907532
      pz      :     0.029592  p :     0.063393
      px      :     0.013419
      py      :     0.020383

 15 H s       :     0.910320  s :     0.910320
      pz      :     0.012116  p :     0.063106
      px      :     0.038262
      py      :     0.012728

 16 H s       :     0.912733  s :     0.912733
      pz      :     0.030435  p :     0.063126
      px      :     0.013417
      py      :     0.019274

 17 H s       :     0.912448  s :     0.912448
      pz      :     0.012395  p :     0.063051
      px      :     0.037818
      py      :     0.012838

 18 H s       :     0.910009  s :     0.910009
      pz      :     0.031631  p :     0.064045
      px      :     0.013510
      py      :     0.018904

 19 H s       :     0.914677  s :     0.914677
      pz      :     0.012684  p :     0.063945
      px      :     0.038262
      py      :     0.012999

 20 H s       :     0.913782  s :     0.913782
      pz      :     0.033949  p :     0.067925
      px      :     0.013601
      py      :     0.020375

 21 H s       :     0.906405  s :     0.906405
      pz      :     0.014030  p :     0.067999
      px      :     0.039654
      py      :     0.014315

 22 H s       :     0.906417  s :     0.906417
      pz      :     0.021971  p :     0.068038
      px      :     0.015936
      py      :     0.030131

 23 H s       :     0.913764  s :     0.913764
      pz      :     0.036960  p :     0.067930
      px      :     0.013826
      py      :     0.017144

 24 H s       :     0.909946  s :     0.909946
      pz      :     0.035980  p :     0.064048
      px      :     0.012766
      py      :     0.015303

 25 H s       :     0.914772  s :     0.914772
      pz      :     0.021553  p :     0.063971
      px      :     0.014671
      py      :     0.027747

 26 H s       :     0.912715  s :     0.912715
      pz      :     0.035049  p :     0.063129
      px      :     0.013142
      py      :     0.014938

 27 H s       :     0.912486  s :     0.912486
      pz      :     0.021371  p :     0.063058
      px      :     0.014456
      py      :     0.027230

 28 H s       :     0.909441  s :     0.909441
      pz      :     0.035348  p :     0.063175
      px      :     0.013587
      py      :     0.014240

 29 H s       :     0.907532  s :     0.907532
      pz      :     0.013299  p :     0.063397
      px      :     0.019747
      py      :     0.030350

 30 H s       :     0.910304  s :     0.910304
      pz      :     0.021876  p :     0.063108
      px      :     0.015212
      py      :     0.026020

 31 H s       :     0.913752  s :     0.913752
      pz      :     0.035305  p :     0.067909
      px      :     0.014480
      py      :     0.018124

 32 H s       :     0.906409  s :     0.906409
      pz      :     0.012665  p :     0.067974
      px      :     0.025663
      py      :     0.029647

 33 H s       :     0.914659  s :     0.914659
      pz      :     0.012578  p :     0.064003
      px      :     0.022636
      py      :     0.028788

 34 H s       :     0.909996  s :     0.909996
      pz      :     0.034057  p :     0.064061
      px      :     0.012339
      py      :     0.017664

 35 H s       :     0.912453  s :     0.912453
      pz      :     0.012395  p :     0.063052
      px      :     0.022156
      py      :     0.028502

 36 H s       :     0.912726  s :     0.912726
      pz      :     0.033489  p :     0.063128
      px      :     0.012338
      py      :     0.017300

 37 H s       :     0.910306  s :     0.910306
      pz      :     0.012404  p :     0.063111
      px      :     0.020937
      py      :     0.029770

 38 H s       :     0.909435  s :     0.909435
      pz      :     0.034028  p :     0.063170
      px      :     0.012068
      py      :     0.017074

 39 H s       :     0.907524  s :     0.907524
      pz      :     0.013441  p :     0.063396
      px      :     0.035090
      py      :     0.014866



                      *****************************
                      * MAYER POPULATION ANALYSIS *
                      *****************************

  NA   - Mulliken gross atomic population
  ZA   - Total nuclear charge
  QA   - Mulliken gross atomic charge
  VA   - Mayer's total valence
  BVA  - Mayer's bonded valence
  FA   - Mayer's free valence

  ATOM       NA         ZA         QA         VA         BVA        FA
  0 C      6.0418     6.0000    -0.0418     4.0162     4.0162    -0.0000
  1 C      6.0610     6.0000    -0.0610     4.1276     4.1276    -0.0000
  2 C      6.0159     6.0000    -0.0159     4.0486     4.0486    -0.0000
  3 C      6.1620     6.0000    -0.1620     3.9324     3.9324    -0.0000
  4 P     14.8667    15.0000     0.1333     3.0592     3.0592    -0.0000
  5 C      6.1632     6.0000    -0.1632     3.9330     3.9330    -0.0000
  6 C      6.0157     6.0000    -0.0157     4.0486     4.0486    -0.0000
  7 C      6.0611     6.0000    -0.0611     4.1276     4.1276    -0.0000
  8 C      6.0416     6.0000    -0.0416     4.0162     4.0162    -0.0000
  9 C      6.1618     6.0000    -0.1618     3.9322     3.9322    -0.0000
 10 C      6.0171     6.0000    -0.0171     4.0492     4.0492    -0.0000
 11 C      6.0606     6.0000    -0.0606     4.1274     4.1274    -0.0000
 12 C      6.0419     6.0000    -0.0419     4.0163     4.0163    -0.0000
 13 H      0.9724     1.0000     0.0276     0.9883     0.9883    -0.0000
 14 H      0.9703     1.0000     0.0297     0.9821     0.9821    -0.0000
 15 H      0.9736     1.0000     0.0264     0.9884     0.9884     0.0000
 16 H      0.9828     1.0000     0.0172     0.9783     0.9783     0.0000
 17 H      0.9813     1.0000     0.0187     0.9784     0.9784     0.0000
 18 H      0.9756     1.0000     0.0244     0.9864     0.9864    -0.0000
 19 H      0.9820     1.0000     0.0180     0.9888     0.9888    -0.0000
 20 H      0.9706     1.0000     0.0294     0.9874     0.9874    -0.0000
 21 H      0.9549     1.0000     0.0451     0.9879     0.9879    -0.0000
 22 H      0.9547     1.0000     0.0453     0.9878     0.9878    -0.0000
 23 H      0.9706     1.0000     0.0294     0.9874     0.9874    -0.0000
 24 H      0.9755     1.0000     0.0245     0.9863     0.9863    -0.0000
 25 H      0.9822     1.0000     0.0178     0.9891     0.9891     0.0000
 26 H      0.9828     1.0000     0.0172     0.9783     0.9783     0.0000
 27 H      0.9814     1.0000     0.0186     0.9784     0.9784     0.0000
 28 H      0.9724     1.0000     0.0276     0.9883     0.9883    -0.0000
 29 H      0.9703     1.0000     0.0297     0.9821     0.9821     0.0000
 30 H      0.9736     1.0000     0.0264     0.9884     0.9884     0.0000
 31 H      0.9705     1.0000     0.0295     0.9873     0.9873    -0.0000
 32 H      0.9547     1.0000     0.0453     0.9875     0.9875    -0.0000
 33 H      0.9818     1.0000     0.0182     0.9891     0.9891     0.0000
 34 H      0.9754     1.0000     0.0246     0.9864     0.9864    -0.0000
 35 H      0.9813     1.0000     0.0187     0.9784     0.9784     0.0000
 36 H      0.9829     1.0000     0.0171     0.9783     0.9783    -0.0000
 37 H      0.9736     1.0000     0.0264     0.9885     0.9885     0.0000
 38 H      0.9723     1.0000     0.0277     0.9883     0.9883    -0.0000
 39 H      0.9703     1.0000     0.0297     0.9821     0.9821    -0.0000

  Mayer bond orders larger than 0.100000
B(  0-C ,  1-C ) :   1.1117 B(  0-C , 13-H ) :   0.9659 B(  0-C , 14-H ) :   0.9619 
B(  0-C , 15-H ) :   0.9657 B(  1-C ,  2-C ) :   1.0892 B(  1-C , 16-H ) :   0.9403 
B(  1-C , 17-H ) :   0.9408 B(  2-C ,  3-C ) :   1.0664 B(  2-C , 18-H ) :   0.9342 
B(  2-C , 19-H ) :   0.9342 B(  3-C ,  4-P ) :   0.9653 B(  3-C , 20-H ) :   0.9188 
B(  3-C , 21-H ) :   0.9310 B(  4-P ,  5-C ) :   0.9651 B(  4-P ,  9-C ) :   0.9652 
B(  5-C ,  6-C ) :   1.0666 B(  5-C , 22-H ) :   0.9310 B(  5-C , 23-H ) :   0.9189 
B(  6-C ,  7-C ) :   1.0891 B(  6-C , 24-H ) :   0.9343 B(  6-C , 25-H ) :   0.9340 
B(  7-C ,  8-C ) :   1.1116 B(  7-C , 26-H ) :   0.9402 B(  7-C , 27-H ) :   0.9408 
B(  8-C , 28-H ) :   0.9659 B(  8-C , 29-H ) :   0.9619 B(  8-C , 30-H ) :   0.9657 
B(  9-C , 10-C ) :   1.0666 B(  9-C , 31-H ) :   0.9189 B(  9-C , 32-H ) :   0.9312 
B( 10-C , 11-C ) :   1.0893 B( 10-C , 33-H ) :   0.9340 B( 10-C , 34-H ) :   0.9341 
B( 11-C , 12-C ) :   1.1116 B( 11-C , 35-H ) :   0.9407 B( 11-C , 36-H ) :   0.9403 
B( 12-C , 37-H ) :   0.9657 B( 12-C , 38-H ) :   0.9659 B( 12-C , 39-H ) :   0.9619 


-------
TIMINGS
-------

Total SCF time: 0 days 0 hours 0 min 2 sec 

Total time                  ....       2.653 sec
Sum of individual times     ....       2.588 sec  ( 97.5%)

SCF preparation             ....       0.104 sec  (  3.9%)
Fock matrix formation       ....       2.202 sec  ( 83.0%)
  Startup                   ....       0.014 sec  (  0.6% of F)
  Split-RI-J                ....       0.651 sec  ( 29.6% of F)
  XC integration            ....       1.489 sec  ( 67.6% of F)
    Basis function eval.    ....       0.446 sec  ( 30.0% of XC)
    Density eval.           ....       0.389 sec  ( 26.1% of XC)
    XC-Functional eval.     ....       0.054 sec  (  3.6% of XC)
    XC-Potential eval.      ....       0.317 sec  ( 21.3% of XC)
Diagonalization             ....       0.000 sec  (  0.0%)
Density matrix formation    ....       0.027 sec  (  1.0%)
Total Energy calculation    ....       0.012 sec  (  0.5%)
Population analysis         ....       0.075 sec  (  2.8%)
Orbital Transformation      ....       0.031 sec  (  1.2%)
Orbital Orthonormalization  ....       0.000 sec  (  0.0%)
DIIS solution               ....       0.037 sec  (  1.4%)
SOSCF solution              ....       0.100 sec  (  3.8%)
Finished LeanSCF after   2.7 sec

Maximum memory used throughout the entire LEANSCF-calculation: 33.8 MB


-------------------------------------------------------------------------------
                          DFT DISPERSION CORRECTION                            
                                                                               
                              DFTD3 V3.1  Rev 1                                
                          USING Becke-Johnson damping                          
-------------------------------------------------------------------------------
The BP86 functional is recognized
Active option DFTDOPT                   ...         4   

molecular C6(AA) [au] = 12261.442011 


            DFT-D V3
 parameters
 s6 scaling factor         :     1.0000 
 a1 scaling factor         :     0.3946 
 s8 scaling factor         :     3.2822 
 a2 scaling factor         :     4.8516 
 ad hoc parameters k1-k3   :    16.0000     1.3333    -4.0000 

 Edisp/kcal,au: -36.740081352992  -0.058549040218 
 E6   /kcal   : -14.433523845 
 E8   /kcal   : -22.306557508 
 % E8         :  60.714502219 

-------------------------   ----------------
Dispersion correction           -0.058549040
-------------------------   ----------------


-------------------------   --------------------
FINAL SINGLE POINT ENERGY      -814.532570844695
-------------------------   --------------------

                                *** OPTIMIZATION RUN DONE ***



           ************************************************************
           *        Program running with 6 parallel MPI-processes     *
           *              working on a common directory               *
           ************************************************************

------------------------------------------------------------------------------
                              ORCA PROPERTY CALCULATIONS
------------------------------------------------------------------------------

GBWName                                 ... data/geom_opt_P_BP86/13831/13831.gbw
Number of atoms                         ...     40
Number of basis functions               ...    321
Max core memory                         ...   1024 MB

Electric properties:
Dipole moment                           ... YES
Quadrupole moment                       ...  NO
Static polarizability (Dipole/Dipole)   ...  NO
Static polarizability (Dipole/Quad.)    ...  NO
Static polarizability (Quad./Quad.)     ...  NO
Static polarizability (Velocity)        ...  NO

Atomic electric properties:
Dipole moment                           ...  NO
Quadrupole moment                       ...  NO
Static polarizability                   ...  NO

Choice of electric origin               ... Center of mass
Position of electric origin             ...     0.032834     0.102884    -0.212254

General magnetic properties:
Magnetizability                         ...  NO

EPR properties:
g-Tensor (aka g-matrix)                 ...  NO
Zero-Field splitting spin-orbit         ...  NO
Zero-field splitting spin-spin          ...  NO
Hyperfine couplings                     ...  NO (   0 nuclei)
Quadrupole couplings                    ...  NO (   0 nuclei)
Contact density                         ...  NO (   0 nuclei)

NMR properties:
Chemical shifts                         ...  NO (   0 nuclei)
Spin-rotation constants                 ...  NO (   0 nuclei)
Spin-spin couplings                     ...  NO (   0 nuclei,    0 pairs)

Choice of magnetic origin               ... GIAO
Position of magnetic origin             ...     0.000000     0.000000     0.000000

Properties with geometric perturbations:
SCF Hessian                             ...  NO
IR spectrum                             ...  NO
VCD spectrum                            ...  NO
X-ray spectroscopy properties:
SCF XES/XAS/RIXS spectra                ...  NO


-------------
DIPOLE MOMENT
-------------

Method             : SCF
Type of density    : Electron Density
Multiplicity       :   1
Irrep              :   0
Energy             :  -814.4740218044771609 Eh
Relativity type    : 
Basis              : AO
                                X                 Y                 Z
Electronic contribution:      0.577821119       1.826578932      -3.699726419
Nuclear contribution   :     -0.643996831      -2.019962325       4.095921839
                        -----------------------------------------
Total Dipole Moment    :     -0.066175712      -0.193383393       0.396195420
                        -----------------------------------------
Magnitude (a.u.)       :      0.445810691
Magnitude (Debye)      :      1.133160722



--------------------
Rotational spectrum 
--------------------
 
Rotational constants in cm-1:             0.012907             0.012836             0.006680 
Rotational constants in MHz :           386.952198           384.813090           200.252483 

Dipole components along the rotational axes: 
x,y,z [a.u.] :    -0.000504    -0.000358     0.445810 
x,y,z [Debye]:    -0.001281    -0.000909     1.133160 

 

Dipole moment calculation done in   0.0 sec 

Maximum memory used throughout the entire PROP-calculation: 16.2 MB

--------------------------------
SUGGESTED CITATIONS FOR THIS RUN
--------------------------------

Below you find a list of papers that are relevant to this ORCA run
We neither can nor want to force you to cite these papers, but we appreciate if you do
You receive ORCA, which is the product of decades of hard work by many enthusiastic individuals, for free
The only thing we kindly ask in return is that you cite our papers,
We deeply appreciate it, if you show your appreciation for ORCA by not just citing the generic ORCA reference.

Please note that relegating all ORCA citations to the supporting information does *not* help us.
SI sections are not indexed - citations you put there will not count into any citation statistics
But we need these citations in order to attract the funding resources that allow us to do what we are doing

Therefore, if you are a happy ORCA user, please consider citing a few of the papers listed below in the main body of your paper

In addition to the list printed below, the program has created the file data/geom_opt_P_BP86/13831/13831.bibtex that contains the list in bibtex format
You can import this file easily into all common literature databanks and citation aid programs


List of essential papers. We consider these as the minimum necessary citations

  1. Neese,F.
     Software update: the ORCA program system, version 5.0
     WIRES Comput. Molec. Sci., 2022 12(1)e1606
     doi.org/10.1002/wcms.1606

List of papers to cite with high priority. The work reported in these papers was absolutely
necessary for this run to complete.
Our perspective: the developers of density functionals and basis sets usually get cited in chemistry papers
Good! But without the algorithms to do something with them, the functionals or basis sets would not do anything.
Hence, in our opinion, the algorithm design and method developments papers are equally worthy of getting cited

  1. Neese,F.
     An improvement of the resolution of the identity approximation for the formation of the Coulomb matrix
     J. Comp. Chem., 2003 24(14)1740-1747
     doi.org/10.1002/jcc.10318
  2. Neese,F.
     The SHARK Integral Generation and Digestion System
     J. Comp. Chem., 2022  1-16
     doi.org/10.1002/jcc.26942
  3. Grimme,S.; Antony,J.; Ehrlich,S.; Krieg,H.
     A consistent and accurate ab initio parametrization of density functional dispersion correction (DFT-D) for the 94 elements H-Pu
     J. Chem. Phys., 2010 132 154104-XXXX
     doi.org/10.1063/1.3382344
  4. Grimme,S.; Ehrlich,S.; Goerigk,L.
     Effect of the damping function in dispersion corrected density functional theory
     J. Comput. Chem., 2011 32(7)1456-1465
     doi.org/10.1002/jcc.21759

List of suggested additional citations. These are papers that are important in the 'surrounding' of 
of this run, or papers that preceded the highly important papers. If you like your results we are grateful for a citation.

  1. Neese,F.
     The ORCA program system
     WIRES Comput. Molec. Sci., 2012 2(1)73-78
     doi.org/10.1002/wcms.81
  2. Neese,F.
     Software update: the ORCA program system, version 4.0
     WIRES Comput. Molec. Sci., 2018 8(1)1-6
     doi.org/10.1002/wcms.1327
  3. Neese,F.; Wennmohs,F.; Becker,U.; Riplinger,C.
     The ORCA quantum chemistry program package
     J. Chem. Phys., 2020 152 Art. No. L224108
     doi.org/10.1063/5.0004608

List of optional additional citations

  1. Neese,F.
     Approximate second-order SCF convergence for spin unrestricted wavefunctions
     Chem. Phys. Lett., 2000 325(1-3)93-98
     doi.org/10.1016/s0009-2614(00)00662-x

Timings for individual modules:

Sum of individual times          ...       77.958 sec (=   1.299 min)
Startup calculation              ...        8.895 sec (=   0.148 min)  11.4 %
SCF iterations                   ...       38.175 sec (=   0.636 min)  49.0 %
Property calculations            ...        0.155 sec (=   0.003 min)   0.2 %
SCF Gradient evaluation          ...       30.608 sec (=   0.510 min)  39.3 %
Geometry relaxation              ...        0.125 sec (=   0.002 min)   0.2 %
                             ****ORCA TERMINATED NORMALLY****
TOTAL RUN TIME: 0 days 0 hours 1 minutes 19 seconds 408 msec
