
                                 *****************
                                 * O   R   C   A *
                                 *****************

                                            #,                                       
                                            ###                                      
                                            ####                                     
                                            #####                                    
                                            ######                                   
                                           ########,                                 
                                     ,,################,,,,,                         
                               ,,#################################,,                 
                          ,,##########################################,,             
                       ,#########################################, ''#####,          
                    ,#############################################,,   '####,        
                  ,##################################################,,,,####,       
                ,###########''''           ''''###############################       
              ,#####''   ,,,,##########,,,,          '''####'''          '####       
            ,##' ,,,,###########################,,,                        '##       
           ' ,,###''''                  '''############,,,                           
         ,,##''                                '''############,,,,        ,,,,,,###''
      ,#''                                            '''#######################'''  
     '                                                          ''''####''''         
             ,#######,   #######,   ,#######,      ##                                
            ,#'     '#,  ##    ##  ,#'     '#,    #''#        ,####,   ,####,        
            ##       ##  ##   ,#'  ##            #'  '#       #'       #'  '#        
            ##       ##  #######   ##           ,######,      #####,   #    #        
            '#,     ,#'  ##    ##  '#,     ,#' ,#      #,     #,   #   #,  ,#        
             '#######'   ##     ##  '#######'  #'      '#     '####' # '####'        



                #########################################################
                #                        -***-                          #
                #          Department of theory and spectroscopy        #
                #                                                       #
                #                      Frank Neese                      #
                #                                                       #
                #     Directorship, Architecture, Infrastructure        #
                #                    SHARK, DRIVERS                     #
                #        Core code/Algorithms in most modules           #
                #                                                       #
                #        Max Planck Institute fuer Kohlenforschung      #
                #                Kaiser Wilhelm Platz 1                 #
                #                 D-45470 Muelheim/Ruhr                 #
                #                      Germany                          #
                #                                                       #
                #                  All rights reserved                  #
                #                        -***-                          #
                #########################################################


                         Program Version 6.0.0  -   RELEASE   -


 With contributions from (in alphabetic order):
   Daniel Aravena         : Magnetic Suceptibility
   Michael Atanasov       : Ab Initio Ligand Field Theory (pilot matlab implementation)
   Alexander A. Auer      : GIAO ZORA, VPT2 properties, NMR spectrum
   Ute Becker             : All parallelization in ORCA, NUMFREQ, NUMCALC
   Giovanni Bistoni       : ED, misc. LED, open-shell LED, HFLD
   Martin Brehm           : Molecular dynamics
   Dmytro Bykov           : pre 5.0 version of the SCF Hessian
   Marcos Casanova-Páez   : Triplet and SCS-CIS(D). UHF-(DLPNO)-IP/EA/STEOM-CCSD. UHF-CVS-IP/STEOM-CCSD
   Vijay G. Chilkuri      : MRCI spin determinant printing, contributions to CSF-ICE
   Pauline Colinet        : FMM embedding
   Dipayan Datta          : RHF DLPNO-CCSD density
   Achintya Kumar Dutta   : EOM-CC, STEOM-CC
   Nicolas Foglia         : Exact transition moments, OPA infrastructure, MCD improvements
   Dmitry Ganyushin       : Spin-Orbit,Spin-Spin,Magnetic field MRCI
   Miquel Garcia          : C-PCM and meta-GGA Hessian, CCSD/C-PCM, Gaussian charge scheme
   Tiago L. C. Gouveia    : GS-ROHF, GS-ROCIS
   Yang Guo               : DLPNO-NEVPT2, F12-NEVPT2, CIM, IAO-localization
   Andreas Hansen         : Spin unrestricted coupled pair/coupled cluster methods
   Ingolf Harden          : AUTO-CI MPn and infrastructure 
   Benjamin Helmich-Paris : MC-RPA, TRAH-(SCF,CASSCF), AVAS, COSX integrals, SCF dyn. polar.
   Lee Huntington         : MR-EOM, pCC
   Robert Izsak           : Overlap fitted RIJCOSX, COSX-SCS-MP3, EOM
   Riya Kayal             : Wick's Theorem for AUTO-CI, AUTO-CI UHF-CCSDT
   Emily Kempfer          : AUTO-CI, RHF CISDT and CCSDT
   Christian Kollmar      : KDIIS, OOCD, Brueckner-CCSD(T), CCSD density, CASPT2, CASPT2-K, improved NEVPT2
   Axel Koslowski         : Symmetry handling
   Simone Kossmann        : Meta GGA functionals, TD-DFT gradient, OOMP2, (MP2 Hessian; deprecated post 5.0)
   Lucas Lang             : DCDCAS
   Marvin Lechner         : AUTO-CI (C++ implementation), FIC-MRCC
   Spencer Leger          : CASSCF response
   Dagmar Lenk            : GEPOL surface, SMD, ORCA-2-JSON
   Dimitrios Liakos       : Extrapolation schemes; Compound Job, initial MDCI parallelization
   Dimitrios Manganas     : Further ROCIS development; embedding schemes. LFT, Crystal Embedding
   Dimitrios Pantazis     : SARC Basis sets
   Anastasios Papadopoulos: AUTO-CI, single reference methods and gradients
   Taras Petrenko         : pre 6.0 DFT Hessian and TD-DFT gradient, (ASA, deprecated), ECA, 1-Electron XAS/XES, NRVS
   Peter Pinski           : DLPNO-MP2, DLPNO-MP2 Gradient
   Christoph Reimann      : Effective Core Potentials
   Marius Retegan         : Local ZFS, SOC
   Christoph Riplinger    : Optimizer, TS searches, QM/MM, DLPNO-CCSD(T), (RO)-DLPNO pert. Triples
   Michael Roemelt        : Original ROCIS implementation
   Masaaki Saitow         : Open-shell DLPNO-CCSD energy and density
   Barbara Sandhoefer     : DKH picture change effects
   Kantharuban Sivalingam : CASSCF convergence/infrastructure, NEVPT2 and variants, FIC-MRCI
   Bernardo de Souza      : ESD, SOC TD-DFT
   Georgi Stoychev        : AutoAux, RI-MP2 NMR, DLPNO-MP2 response, X2C
   Van Anh Tran           : RI-MP2 g-tensors
   Willem Van den Heuvel  : Paramagnetic NMR
   Zikuan Wang            : NOTCH, Electric field optimization 
   Frank Wennmohs         : Technical directorship and infrastructure
   Hang Xu                : AUTO-CI-Response properties 


 We gratefully acknowledge several colleagues who have allowed us to
 interface, adapt or use parts of their codes:
   Stefan Grimme, W. Hujo, H. Kruse, P. Pracht,  : VdW corrections, initial TS optimization,
                  C. Bannwarth, S. Ehlert,         DFT functionals, gCP, sTDA/sTD-DF
                  L. Wittmann, M. Mueller
   Ed Valeev, F. Pavosevic, A. Kumar             : LibInt (2-el integral package), F12 methods
   Garnet Chan, S. Sharma, J. Yang, R. Olivares  : DMRG
   Ulf Ekstrom                                   : XCFun DFT Library
   Mihaly Kallay                                 : mrcc  (arbitrary order and MRCC methods)
   Frank Weinhold                                : gennbo (NPA and NBO analysis)
   Simon Mueller                                 : openCOSMO-RS
   Christopher J. Cramer and Donald G. Truhlar   : smd solvation model
   Lars Goerigk                                  : TD-DFT with DH, B97 family of functionals
   V. Asgeirsson, H. Jonsson                     : NEB implementation
   FAccTs GmbH                                   : IRC, NEB, NEB-TS, DLPNO-Multilevel, CI-OPT
                                                   MM, QMMM, 2- and 3-layer-ONIOM, Crystal-QMMM,
                                                   LR-CPCM, SF, NACMEs, symmetry and pop. for TD-DFT,
                                                   nearIR, NL-DFT gradient (VV10), updates on ESD,
                                                   ML-optimized integration grids, MBIS, APM,
                                                   GOAT, DOCKER, SOLVATOR, interface openCOSMO-RS
   S Lehtola, MJT Oliveira, MAL Marques          : LibXC Library
   Liviu Ungur et al                             : ANISO software


 Your calculation uses the libint2 library for the computation of 2-el integrals
 For citations please refer to: http://libint.valeyev.net

 Your ORCA version has been built with support for libXC version: 6.2.2
 For citations please refer to: https://libxc.gitlab.io

 This ORCA versions uses:
   CBLAS   interface :  Fast vector & matrix operations
   LAPACKE interface :  Fast linear algebra routines
   Shared memory     :  Shared parallel matrices


Your calculation utilizes the atom-pairwise dispersion correction
with the Becke-Johnson damping scheme (D3BJ)


Warning: RI is on but no J-basis has been assigned. Assigning Def2/J (nothing to worry about!)
================================================================================

----- Orbital basis set information -----
Your calculation utilizes the basis: def2-SVP
   F. Weigend and R. Ahlrichs, Phys. Chem. Chem. Phys. 7, 3297 (2005).

----- AuxJ basis set information -----
Your calculation utilizes the auxiliary basis: def2/J
   F. Weigend, Phys. Chem. Chem. Phys. 8, 1057 (2006).

================================================================================
                                        WARNINGS
                       Please study these warnings very carefully!
================================================================================


WARNING: Geometry Optimization
  ===> : Switching off AutoStart
         For restart on a previous wavefunction, please use MOREAD

================================================================================
                                       INPUT FILE
================================================================================
NAME = data/geom_opt_P_BP86/73879/73879.inp
|  1> ! RI BP86 def2-SVP D3BJ TIGHTSCF Opt
|  2> %pal
|  3> nprocs 6
|  4> end
|  5> 
|  6> * xyz 0 1
|  7> C     -0.149955   -2.656516   -0.337071
|  8> P     -0.102260   -1.392385    0.992856
|  9> C      1.395801   -0.420100    0.604078
| 10> C      1.471385    0.935575    0.966587
| 11> C      2.614397    1.694367    0.698376
| 12> C      3.710958    1.106049    0.076497
| 13> C      3.666833   -0.241540   -0.268321
| 14> C      2.521830   -0.999205    0.000068
| 15> C     -1.446658   -0.284485    0.449519
| 16> C     -1.458283    0.340257   -0.806277
| 17> C     -2.513730    1.176782   -1.179031
| 18> C     -3.572797    1.397872   -0.302131
| 19> C     -3.576951    0.784024    0.947882
| 20> C     -2.521041   -0.051802    1.321005
| 21> H      0.013237   -2.231677   -1.331934
| 22> H     -1.121570   -3.160917   -0.341933
| 23> H      0.610563   -3.424320   -0.165693
| 24> H      0.634887    1.421641    1.465714
| 25> H      2.645366    2.743140    0.981568
| 26> H      4.601253    1.693811   -0.129814
| 27> H      4.526720   -0.709286   -0.740798
| 28> H      2.535962   -2.052631   -0.265303
| 29> H     -0.640000    0.191026   -1.507244
| 30> H     -2.505276    1.656728   -2.154109
| 31> H     -4.393245    2.048859   -0.592043
| 32> H     -4.401318    0.954522    1.635278
| 33> H     -2.546106   -0.519787    2.303137
| 34> **                         ****END OF INPUT****
================================================================================

                       *****************************
                       * Geometry Optimization Run *
                       *****************************

Geometry optimization settings:
Update method            Update   .... BFGS
Choice of coordinates    CoordSys .... (2022) Redundant Internals
Initial Hessian          InHess   .... Almloef's Model
Max. no of cycles        MaxIter  .... 81

Convergence Tolerances:
Energy Change            TolE     ....  5.0000e-06 Eh
Max. Gradient            TolMAXG  ....  3.0000e-04 Eh/bohr
RMS Gradient             TolRMSG  ....  1.0000e-04 Eh/bohr
Max. Displacement        TolMAXD  ....  4.0000e-03 bohr
RMS Displacement         TolRMSD  ....  2.0000e-03 bohr
Strict Convergence                .... False

------------------------------------------------------------------------------
                        ORCA OPTIMIZATION COORDINATE SETUP
------------------------------------------------------------------------------

The optimization will be done in redundant internal coordinates (2022)
Making redundant internal coordinates   ...  (2022 redundants) done
Evaluating the initial hessian          ...  (Almloef) done
Evaluating the coordinates              ...  done
Calculating the B-matrix                .... done
Calculating the G-matrix                .... done
Diagonalizing the G-matrix              .... done
Small eigenvalue found = 6.654e-03
Small eigenvalue found = 1.870e-02
Small eigenvalue found = 1.979e-02
The first mode is                       ....   59
The number of degrees of freedom        ....   75

    -----------------------------------------------------------------
                    Redundant Internal Coordinates


    -----------------------------------------------------------------
         Definition                    Initial Value    Approx d2E/dq
    -----------------------------------------------------------------
      1. B(P   1,C   0)                  1.8355         0.408779   
      2. B(C   2,P   1)                  1.8278         0.420561   
      3. B(C   3,C   2)                  1.4053         0.590561   
      4. B(C   4,C   3)                  1.3979         0.606881   
      5. B(C   5,C   4)                  1.3911         0.622163   
      6. B(C   6,C   5)                  1.3917         0.620895   
      7. B(C   7,C   2)                  1.4029         0.595875   
      8. B(C   7,C   6)                  1.3990         0.604540   
      9. B(C   8,P   1)                  1.8248         0.425073   
     10. B(C   9,C   8)                  1.4027         0.596399   
     11. B(C  10,C   9)                  1.3974         0.608071   
     12. B(C  11,C  10)                  1.3926         0.618757   
     13. B(C  12,C  11)                  1.3926         0.618837   
     14. B(C  13,C  12)                  1.3974         0.608004   
     15. B(C  13,C   8)                  1.4028         0.596034   
     16. B(H  14,C   0)                  1.0940         0.354826   
     17. B(H  15,C   0)                  1.0948         0.353870   
     18. B(H  16,C   0)                  1.0942         0.354582   
     19. B(H  17,C   3)                  1.0886         0.361916   
     20. B(H  18,C   4)                  1.0868         0.364391   
     21. B(H  19,C   5)                  1.0866         0.364654   
     22. B(H  20,C   6)                  1.0869         0.364178   
     23. B(H  21,C   7)                  1.0864         0.364855   
     24. B(H  22,C   9)                  1.0878         0.363082   
     25. B(H  23,C  10)                  1.0868         0.364320   
     26. B(H  24,C  11)                  1.0867         0.364461   
     27. B(H  25,C  12)                  1.0868         0.364340   
     28. B(H  26,C  13)                  1.0882         0.362463   
     29. A(P   1,C   0,H  16)          110.5931         0.348660   
     30. A(H  14,C   0,H  15)          107.8949         0.289373   
     31. A(P   1,C   0,H  15)          110.0966         0.348542   
     32. A(P   1,C   0,H  14)          112.8033         0.348701   
     33. A(H  14,C   0,H  16)          108.1341         0.289465   
     34. A(H  15,C   0,H  16)          107.1129         0.289342   
     35. A(C   0,P   1,C   2)          103.5059         0.427559   
     36. A(C   2,P   1,C   8)          102.5643         0.430567   
     37. A(C   0,P   1,C   8)          100.5595         0.428378   
     38. A(P   1,C   2,C   7)          121.9957         0.428832   
     39. A(C   3,C   2,C   7)          117.7810         0.427235   
     40. A(P   1,C   2,C   3)          120.1570         0.428143   
     41. A(C   2,C   3,H  17)          120.5078         0.350316   
     42. A(C   2,C   3,C   4)          121.2051         0.428639   
     43. A(C   4,C   3,H  17)          118.2872         0.351934   
     44. A(C   3,C   4,H  18)          119.8099         0.352340   
     45. A(C   5,C   4,H  18)          120.1414         0.353826   
     46. A(C   3,C   4,C   5)          120.0479         0.432671   
     47. A(C   6,C   5,H  19)          120.1799         0.353747   
     48. A(C   4,C   5,H  19)          120.1303         0.353869   
     49. A(C   4,C   5,C   6)          119.6870         0.434451   
     50. A(C   5,C   6,H  20)          119.9545         0.353669   
     51. A(C   7,C   6,H  20)          119.8561         0.352075   
     52. A(C   5,C   6,C   7)          120.1878         0.432212   
     53. A(C   6,C   7,H  21)          117.8805         0.352185   
     54. A(C   2,C   7,C   6)          121.0622         0.429031   
     55. A(C   2,C   7,H  21)          121.0547         0.351327   
     56. A(P   1,C   8,C   9)          122.8938         0.429721   
     57. A(C   9,C   8,C  13)          118.4221         0.428010   
     58. A(P   1,C   8,C  13)          118.6829         0.429674   
     59. A(C   8,C   9,C  10)          120.7779         0.429547   
     60. A(C  10,C   9,H  22)          118.5821         0.352242   
     61. A(C   8,C   9,H  22)          120.6374         0.351090   
     62. A(C   9,C  10,C  11)          120.0965         0.432396   
     63. A(C  11,C  10,H  23)          120.0483         0.353486   
     64. A(C   9,C  10,H  23)          119.8550         0.352445   
     65. A(C  10,C  11,C  12)          119.8335         0.433763   
     66. A(C  12,C  11,H  24)          120.0832         0.353516   
     67. A(C  10,C  11,H  24)          120.0832         0.353509   
     68. A(C  13,C  12,H  25)          119.8744         0.352442   
     69. A(C  11,C  12,H  25)          120.0553         0.353497   
     70. A(C  11,C  12,C  13)          120.0702         0.432398   
     71. A(C  12,C  13,H  26)          118.7374         0.352134   
     72. A(C   8,C  13,H  26)          120.4630         0.350952   
     73. A(C   8,C  13,C  12)          120.7996         0.429492   
     74. D(C   8,P   1,C   0,H  14)     58.9330         0.003765   
     75. D(C   2,P   1,C   0,H  15)   -167.4525         0.003765   
     76. D(C   2,P   1,C   0,H  14)    -46.8711         0.003765   
     77. D(C   8,P   1,C   0,H  15)    -61.6484         0.003765   
     78. D(C   2,P   1,C   0,H  16)     74.3706         0.003765   
     79. D(C   3,C   2,P   1,C   8)     46.7255         0.003699   
     80. D(C   7,C   2,P   1,C   8)   -136.3025         0.003699   
     81. D(C   3,C   2,P   1,C   0)    151.0032         0.003699   
     82. D(C   7,C   2,P   1,C   0)    -32.0248         0.003699   
     83. D(C   4,C   3,C   2,C   7)      1.9112         0.024003   
     84. D(H  17,C   3,C   2,P   1)     -1.0170         0.024003   
     85. D(H  17,C   3,C   2,C   7)   -178.1146         0.024003   
     86. D(C   4,C   3,C   2,P   1)    179.0088         0.024003   
     87. D(C   5,C   4,C   3,C   2)     -0.7950         0.025422   
     88. D(C   5,C   4,C   3,H  17)    179.2302         0.025422   
     89. D(H  18,C   4,C   3,H  17)     -0.4616         0.025422   
     90. D(H  18,C   4,C   3,C   2)    179.5131         0.025422   
     91. D(H  19,C   5,C   4,H  18)     -0.1183         0.026797   
     92. D(H  19,C   5,C   4,C   3)   -179.8091         0.026797   
     93. D(C   6,C   5,C   4,H  18)    179.2691         0.026797   
     94. D(C   6,C   5,C   4,C   3)     -0.4217         0.026797   
     95. D(H  20,C   6,C   5,H  19)      0.3068         0.026681   
     96. D(H  20,C   6,C   5,C   4)   -179.0803         0.026681   
     97. D(C   7,C   6,C   5,H  19)    179.8501         0.026681   
     98. D(C   7,C   6,C   5,C   4)      0.4629         0.026681   
     99. D(H  21,C   7,C   2,C   3)    177.5291         0.024460   
    100. D(C   2,C   7,C   6,C   5)      0.7126         0.025215   
    101. D(H  21,C   7,C   2,P   1)      0.4883         0.024460   
    102. D(C   6,C   7,C   2,C   3)     -1.8673         0.024460   
    103. D(C   2,C   7,C   6,H  20)   -179.7437         0.025215   
    104. D(C   6,C   7,C   2,P   1)   -178.9081         0.024460   
    105. D(H  21,C   7,C   6,H  20)      0.8412         0.025215   
    106. D(H  21,C   7,C   6,C   5)   -178.7025         0.025215   
    107. D(C  13,C   8,P   1,C   2)   -131.4850         0.003748   
    108. D(C  13,C   8,P   1,C   0)    121.9595         0.003748   
    109. D(C   9,C   8,P   1,C   2)     48.9046         0.003748   
    110. D(C   9,C   8,P   1,C   0)    -57.6509         0.003748   
    111. D(H  22,C   9,C   8,C  13)    179.5343         0.024505   
    112. D(H  22,C   9,C   8,P   1)     -0.8544         0.024505   
    113. D(C  10,C   9,C   8,C  13)      0.1347         0.024505   
    114. D(C  10,C   9,C   8,P   1)    179.7461         0.024505   
    115. D(H  23,C  10,C   9,H  22)      0.3176         0.025527   
    116. D(H  23,C  10,C   9,C   8)    179.7293         0.025527   
    117. D(C  11,C  10,C   9,H  22)   -179.5292         0.025527   
    118. D(C  11,C  10,C   9,C   8)     -0.1175         0.025527   
    119. D(H  24,C  11,C  10,H  23)      0.1229         0.026486   
    120. D(H  24,C  11,C  10,C   9)    179.9693         0.026486   
    121. D(C  12,C  11,C  10,H  23)   -179.7931         0.026486   
    122. D(C  12,C  11,C  10,C   9)      0.0533         0.026486   
    123. D(H  25,C  12,C  11,H  24)      0.0466         0.026494   
    124. D(H  25,C  12,C  11,C  10)    179.9625         0.026494   
    125. D(C  13,C  12,C  11,H  24)   -179.9260         0.026494   
    126. D(C  13,C  12,C  11,C  10)     -0.0100         0.026494   
    127. D(H  26,C  13,C  12,H  25)     -0.0129         0.025521   
    128. D(H  26,C  13,C  12,C  11)    179.9597         0.025521   
    129. D(C   8,C  13,C  12,H  25)   -179.9427         0.025521   
    130. D(C   8,C  13,C  12,C  11)      0.0298         0.025521   
    131. D(H  26,C  13,C   8,C   9)    179.9803         0.024473   
    132. D(H  26,C  13,C   8,P   1)      0.3523         0.024473   
    133. D(C  12,C  13,C   8,C   9)     -0.0910         0.024473   
    134. D(C  12,C  13,C   8,P   1)   -179.7191         0.024473   
    -----------------------------------------------------------------

Number of atoms                         .... 27
Number of degrees of freedom            .... 134


         *************************************************************
         *                GEOMETRY OPTIMIZATION CYCLE   1            *
         *************************************************************
---------------------------------
CARTESIAN COORDINATES (ANGSTROEM)
---------------------------------
  C     -0.149955   -2.656516   -0.337071
  P     -0.102260   -1.392385    0.992856
  C      1.395801   -0.420100    0.604078
  C      1.471385    0.935575    0.966587
  C      2.614397    1.694367    0.698376
  C      3.710958    1.106049    0.076497
  C      3.666833   -0.241540   -0.268321
  C      2.521830   -0.999205    0.000068
  C     -1.446658   -0.284485    0.449519
  C     -1.458283    0.340257   -0.806277
  C     -2.513730    1.176782   -1.179031
  C     -3.572797    1.397872   -0.302131
  C     -3.576951    0.784024    0.947882
  C     -2.521041   -0.051802    1.321005
  H      0.013237   -2.231677   -1.331934
  H     -1.121570   -3.160917   -0.341933
  H      0.610563   -3.424320   -0.165693
  H      0.634887    1.421641    1.465714
  H      2.645366    2.743140    0.981568
  H      4.601253    1.693811   -0.129814
  H      4.526720   -0.709286   -0.740798
  H      2.535962   -2.052631   -0.265303
  H     -0.640000    0.191026   -1.507244
  H     -2.505276    1.656728   -2.154109
  H     -4.393245    2.048859   -0.592043
  H     -4.401318    0.954522    1.635278
  H     -2.546106   -0.519787    2.303137

----------------------------
CARTESIAN COORDINATES (A.U.)
----------------------------
  NO LB      ZA    FRAG     MASS         X           Y           Z
   0 C     6.0000    0    12.011   -0.283374   -5.020088   -0.636972
   1 P    15.0000    0    30.974   -0.193243   -2.631226    1.876226
   2 C     6.0000    0    12.011    2.637682   -0.793874    1.141542
   3 C     6.0000    0    12.011    2.780515    1.767981    1.826585
   4 C     6.0000    0    12.011    4.940494    3.201890    1.319739
   5 C     6.0000    0    12.011    7.012694    2.090130    0.144558
   6 C     6.0000    0    12.011    6.929310   -0.456444   -0.507053
   7 C     6.0000    0    12.011    4.765568   -1.888224    0.000129
   8 C     6.0000    0    12.011   -2.733787   -0.537599    0.849468
   9 C     6.0000    0    12.011   -2.755755    0.642993   -1.523643
  10 C     6.0000    0    12.011   -4.750261    2.223796   -2.228046
  11 C     6.0000    0    12.011   -6.751608    2.641595   -0.570945
  12 C     6.0000    0    12.011   -6.759458    1.481591    1.791237
  13 C     6.0000    0    12.011   -4.764077   -0.097892    2.496338
  14 H     1.0000    0     1.008    0.025014   -4.217258   -2.516990
  15 H     1.0000    0     1.008   -2.119460   -5.973267   -0.646160
  16 H     1.0000    0     1.008    1.153797   -6.471027   -0.313114
  17 H     1.0000    0     1.008    1.199763    2.686512    2.769798
  18 H     1.0000    0     1.008    4.999017    5.183783    1.854895
  19 H     1.0000    0     1.008    8.695108    3.200839   -0.245313
  20 H     1.0000    0     1.008    8.554261   -1.340356   -1.399905
  21 H     1.0000    0     1.008    4.792274   -3.878910   -0.501350
  22 H     1.0000    0     1.008   -1.209425    0.360987   -2.848278
  23 H     1.0000    0     1.008   -4.734286    3.130762   -4.070676
  24 H     1.0000    0     1.008   -8.302030    3.871782   -1.118799
  25 H     1.0000    0     1.008   -8.317286    1.803785    3.090228
  26 H     1.0000    0     1.008   -4.811443   -0.982255    4.352298

--------------------------------
INTERNAL COORDINATES (ANGSTROEM)
--------------------------------
 C      0   0   0     0.000000000000     0.00000000     0.00000000
 P      1   0   0     1.835485718690     0.00000000     0.00000000
 C      2   1   0     1.827750862188   103.50587149     0.00000000
 C      3   2   1     1.405339966614   120.15700241   151.00320447
 C      4   3   2     1.397919479773   121.20507385   179.00878376
 C      5   4   3     1.391149735466   120.04792965   359.20495073
 C      6   5   4     1.391704919036   119.68697112   359.57830454
 C      7   6   5     1.398971328353   120.18779656     0.46293782
 C      2   1   3     1.824846154604   100.55945282   105.80412697
 C      9   2   1     1.402662219070   122.89381971   302.34913659
 C     10   9   2     1.397386127722   120.77787345   179.74606531
 C     11  10   9     1.392643999229   120.09651964   359.88254288
 C     12  11  10     1.392608747276   119.83353047     0.05334834
 C     13  12  11     1.397416116805   120.07024563     0.00000000
 H      1   2   3     1.094016541719   112.80334978   313.12885695
 H      1   2   3     1.094750983589   110.09655391   192.54749534
 H      1   2   3     1.094203376719   110.59313711    74.37055317
 H      4   3   2     1.088630709878   120.50776549   358.98297550
 H      5   4   3     1.086775778785   119.80990999   179.51312416
 H      6   5   4     1.086578844074   120.13031101   180.19088178
 H      7   6   5     1.086934445500   119.95449925   180.91968300
 H      8   7   6     1.086428929356   117.88045005   181.29752293
 H     10   9   2     1.087755346822   120.63737490   359.14564319
 H     11  10   9     1.086828753354   119.85498079   179.72932548
 H     12  11  10     1.086723498696   120.08321651   179.96934340
 H     13  12  11     1.086813590046   120.05533144   179.96254789
 H     14  13  12     1.088219407966   118.73737924   179.95968974

---------------------------
INTERNAL COORDINATES (A.U.)
---------------------------
 C      0   0   0     0.000000000000     0.00000000     0.00000000
 P      1   0   0     3.468565331048     0.00000000     0.00000000
 C      2   1   0     3.453948570574   103.50587149     0.00000000
 C      3   2   1     2.655707661954   120.15700241   151.00320447
 C      4   3   2     2.641684974045   121.20507385   179.00878376
 C      5   4   3     2.628892011307   120.04792965   359.20495073
 C      6   5   4     2.629941156210   119.68697112   359.57830454
 C      7   6   5     2.643672679796   120.18779656     0.46293782
 C      2   1   3     3.448459468741   100.55945282   105.80412697
 C      9   2   1     2.650647452440   122.89381971   302.34913659
 C     10   9   2     2.640677084735   120.77787345   179.74606531
 C     11  10   9     2.631715760592   120.09651964   359.88254288
 C     12  11  10     2.631649144054   119.83353047     0.05334834
 C     13  12  11     2.640733755888   120.07024563     0.00000000
 H      1   2   3     2.067391649828   112.80334978   313.12885695
 H      1   2   3     2.068779543825   110.09655391   192.54749534
 H      1   2   3     2.067744716811   110.59313711    74.37055317
 H      4   3   2     2.057213902645   120.50776549   358.98297550
 H      5   4   3     2.053708590883   119.80990999   179.51312416
 H      6   5   4     2.053336438213   120.13031101   180.19088178
 H      7   6   5     2.054008427520   119.95449925   180.91968300
 H      8   7   6     2.053053140452   117.88045005   181.29752293
 H     10   9   2     2.055559706201   120.63737490   359.14564319
 H     11  10   9     2.053808698309   119.85498079   179.72932548
 H     12  11  10     2.053609795831   120.08321651   179.96934340
 H     13  12  11     2.053780043811   120.05533144   179.96254789
 H     14  13  12     2.056436654674   118.73737924   179.95968974

---------------------
BASIS SET INFORMATION
---------------------
There are 3 groups of distinct atoms

 Group   1 Type C   : 7s4p1d contracted to 3s2p1d pattern {511/31/1}
 Group   2 Type P   : 10s7p1d contracted to 4s3p1d pattern {5311/511/1}
 Group   3 Type H   : 4s1p contracted to 2s1p pattern {31/1}

Atom   0C    basis set group =>   1
Atom   1P    basis set group =>   2
Atom   2C    basis set group =>   1
Atom   3C    basis set group =>   1
Atom   4C    basis set group =>   1
Atom   5C    basis set group =>   1
Atom   6C    basis set group =>   1
Atom   7C    basis set group =>   1
Atom   8C    basis set group =>   1
Atom   9C    basis set group =>   1
Atom  10C    basis set group =>   1
Atom  11C    basis set group =>   1
Atom  12C    basis set group =>   1
Atom  13C    basis set group =>   1
Atom  14H    basis set group =>   3
Atom  15H    basis set group =>   3
Atom  16H    basis set group =>   3
Atom  17H    basis set group =>   3
Atom  18H    basis set group =>   3
Atom  19H    basis set group =>   3
Atom  20H    basis set group =>   3
Atom  21H    basis set group =>   3
Atom  22H    basis set group =>   3
Atom  23H    basis set group =>   3
Atom  24H    basis set group =>   3
Atom  25H    basis set group =>   3
Atom  26H    basis set group =>   3
---------------------------------
AUXILIARY/J BASIS SET INFORMATION
---------------------------------
There are 3 groups of distinct atoms

 Group   1 Type C   : 12s5p4d2f1g contracted to 6s4p3d1f1g pattern {711111/2111/211/2/1}
 Group   2 Type P   : 14s5p5d2f1g contracted to 8s4p3d1f1g pattern {71111111/2111/311/2/1}
 Group   3 Type H   : 5s2p1d contracted to 3s1p1d pattern {311/2/1}

Atom   0C    basis set group =>   1
Atom   1P    basis set group =>   2
Atom   2C    basis set group =>   1
Atom   3C    basis set group =>   1
Atom   4C    basis set group =>   1
Atom   5C    basis set group =>   1
Atom   6C    basis set group =>   1
Atom   7C    basis set group =>   1
Atom   8C    basis set group =>   1
Atom   9C    basis set group =>   1
Atom  10C    basis set group =>   1
Atom  11C    basis set group =>   1
Atom  12C    basis set group =>   1
Atom  13C    basis set group =>   1
Atom  14H    basis set group =>   3
Atom  15H    basis set group =>   3
Atom  16H    basis set group =>   3
Atom  17H    basis set group =>   3
Atom  18H    basis set group =>   3
Atom  19H    basis set group =>   3
Atom  20H    basis set group =>   3
Atom  21H    basis set group =>   3
Atom  22H    basis set group =>   3
Atom  23H    basis set group =>   3
Atom  24H    basis set group =>   3
Atom  25H    basis set group =>   3
Atom  26H    basis set group =>   3


           ************************************************************
           *        Program running with 6 parallel MPI-processes     *
           *              working on a common directory               *
           ************************************************************
------------------------------------------------------------------------------
                             ORCA STARTUP CALCULATIONS
                           -- RI-GTO INTEGRALS CHOSEN --
------------------------------------------------------------------------------
------------------------------------------------------------------------------
                   ___                                                        
                  /   \      - P O W E R E D   B Y -                         
                 /     \                                                     
                 |  |  |   _    _      __       _____    __    __             
                 |  |  |  | |  | |    /  \     |  _  \  |  |  /  |          
                  \  \/   | |  | |   /    \    | | | |  |  | /  /          
                 / \  \   | |__| |  /  /\  \   | |_| |  |  |/  /          
                |  |  |   |  __  | /  /__\  \  |    /   |      \           
                |  |  |   | |  | | |   __   |  |    \   |  |\   \          
                \     /   | |  | | |  |  |  |  | |\  \  |  | \   \       
                 \___/    |_|  |_| |__|  |__|  |_| \__\ |__|  \__/        
                                                                              
                      - O R C A' S   B I G   F R I E N D -                    
                                      &                                       
                       - I N T E G R A L  F E E D E R -                       
                                                                              
 v1 FN, 2020, v2 2021, v3 2022-2024                                           
------------------------------------------------------------------------------


----------------------
SHARK INTEGRAL PACKAGE
----------------------

Number of atoms                             ...     27
Number of basis functions                   ...    265
Number of shells                            ...    125
Maximum angular momentum                    ...      2
Integral batch strategy                     ... SHARK/LIBINT Hybrid
RI-J (if used) integral strategy            ... SPLIT-RIJ (Revised 2003 algorithm where possible)
Printlevel                                  ...      1
Contraction scheme used                     ... SEGMENTED contraction
Prescreening option                         ... SCHWARTZ
   Thresh                                   ... 2.500e-11
   Tcut                                     ... 2.500e-12
   Tpresel                                  ... 2.500e-12 
Coulomb Range Separation                    ... NOT USED
Exchange Range Separation                   ... NOT USED
Multipole approximations                    ... NOT USED
Finite Nucleus Model                        ... NOT USED
CABS basis                                  ... NOT available
Auxiliary Coulomb fitting basis             ... AVAILABLE
   # of basis functions in Aux-J            ...    831
   # of shells in Aux-J                     ...    277
   Maximum angular momentum in Aux-J        ...      4
Auxiliary J/K fitting basis                 ... NOT available
Auxiliary Correlation fitting basis         ... NOT available
Auxiliary 'external' fitting basis          ... NOT available

Checking pre-screening integrals            ... done (  0.0 sec) Dimension = 125
Check shell pair data                       ... done (  0.0 sec)
Shell pair information
Shell pair cut-off parameter TPreSel        ...   2.5e-12
Total number of shell pairs                 ...      7875
Shell pairs after pre-screening             ...      6627
Total number of primitive shell pairs       ...     28911
Primitive shell pairs kept                  ...     16344
          la=0 lb=0:   2063 shell pairs
          la=1 lb=0:   2463 shell pairs
          la=1 lb=1:    762 shell pairs
          la=2 lb=0:    794 shell pairs
          la=2 lb=1:    468 shell pairs
          la=2 lb=2:     77 shell pairs

Calculating one electron integrals          ... done (  0.0 sec)
Calculating RI/J V-Matrix + Cholesky decomp.... done (  0.0 sec)
Calculating Nuclear repulsion               ... done (  0.0 sec) ENN=    906.449457970457 Eh

Diagonalization of the overlap matrix:
Smallest eigenvalue                        ... 2.725e-04
Time for diagonalization                   ...    0.007 sec
Threshold for overlap eigenvalues          ... 1.000e-07
Number of eigenvalues below threshold      ... 0
Time for construction of square roots      ...    0.006 sec
Total time needed                          ...    0.015 sec

-------------------
DFT GRID GENERATION
-------------------

General Integration Accuracy     IntAcc      ... 4.388
Radial Grid Type                 RadialGrid  ... OptM3 with GC (2021)
Angular Grid (max. ang.)         AngularGrid ... 4 (Lebedev-302)
Angular grid pruning method      GridPruning ... 4 (adaptive)
Weight generation scheme         WeightScheme... mBecke (2022)
Basis function cutoff            BFCut       ... 1.0000e-11
Integration weight cutoff        WCut        ... 1.0000e-14
Partially contracted basis set               ... off
Rotationally invariant grid construction     ... off
Angular grids for H and He will be reduced by one unit

Total number of grid points                  ...   126724
Total number of batches                      ...     1995
Average number of points per batch           ...       63
Average number of grid points per atom       ...     4693
Initializing property integral containers    ... done (  0.0 sec)

SHARK setup successfully completed in   0.9 seconds

Maximum memory used throughout the entire STARTUP-calculation: 33.2 MB


           ************************************************************
           *        Program running with 6 parallel MPI-processes     *
           *              working on a common directory               *
           ************************************************************
-------------------------------------------------------------------------------
                                 ORCA GUESS
                   Start orbitals & Density for SCF / CASSCF
-------------------------------------------------------------------------------

------------
SCF SETTINGS
------------
Hamiltonian:
 Density Functional     Method          .... DFT(GTOs)
 Exchange Functional    Exchange        .... B88
   X-Alpha parameter    XAlpha          ....  0.666667
   Becke's b parameter  XBeta           ....  0.004200
 Correlation Functional Correlation     .... P86
 LDA part of GGA corr.  LDAOpt          .... PW91-LDA
 Gradients option       PostSCFGGA      .... off
   NL short-range parameter             ....  4.400000
 RI-approximation to the Coulomb term is turned on
   Number of AuxJ basis functions       .... 831


General Settings:
 Integral files         IntName         .... data/geom_opt_P_BP86/73879/73879
 Hartree-Fock type      HFTyp           .... RHF
 Total Charge           Charge          ....    0
 Multiplicity           Mult            ....    1
 Number of Electrons    NEL             ....  106
 Basis Dimension        Dim             ....  265
 Nuclear Repulsion      ENuc            ....    906.4494579705 Eh

Convergence Acceleration:
 AO-DIIS                CNVDIIS         .... on
   Start iteration      DIISMaxIt       ....    12
   Startup error        DIISStart       ....  0.200000
   # of expansion vecs  DIISMaxEq       ....     5
   Bias factor          DIISBfac        ....   1.050
   Max. coefficient     DIISMaxC        ....  10.000
 MO-DIIS                CNVKDIIS        .... off
 Trust-Rad. Augm. Hess. CNVTRAH         .... auto
   Auto Start mean grad. ratio tolernc. ....  1.125000
   Auto Start start iteration           ....    50
   Auto Start num. interpolation iter.  ....    10
   Max. Number of Micro iterations      ....    24
   Max. Number of Macro iterations      .... Maxiter - #DIIS iter
   Number of Davidson start vectors     ....     2
   Converg. threshold    (grad. norm)   ....   1.000e-05
   Grad. Scal. Fac. for Micro threshold ....   0.100
   Minimum threshold for Micro iter.    ....   1.000e-02
   NR start threshold (gradient norm)   ....   1.000e-04
   Initial trust radius                 ....   0.400
   Minimum AH scaling param. (alpha)    ....   1.000
   Maximum AH scaling param. (alpha)    .... 1000.000
   Quad. conv. algorithm                .... NR
   White noise on init. David. guess    .... on
   Maximum white noise                  ....   0.010
   Pseudo random numbers                .... off
   Inactive MOs                         .... canonical
   Orbital update algorithm             .... Taylor
   Preconditioner                       .... Diag
   Full preconditioner red. dimension   ....   250
 SOSCF                  CNVSOSCF        .... on
   Start iteration      SOSCFMaxIt      ....   150
   Startup grad/error   SOSCFStart      ....  0.003300
   Hessian update       SOSCFHessUp     .... L-BFGS
 Level Shifting         CNVShift        .... on
   Level shift para.    LevelShift      ....    0.2500
   Turn off err/grad.   ShiftErr        ....    0.0010
 Zerner damping         CNVZerner       .... off
 Static damping         CNVDamp         .... on
   Fraction old density DampFac         ....    0.7000
   Max. Damping (<1)    DampMax         ....    0.9800
   Min. Damping (>=0)   DampMin         ....    0.0000
   Turn off err/grad.   DampErr         ....    0.1000

SCF Procedure:
 Maximum # iterations   MaxIter         ....   125
 SCF integral mode      SCFMode         .... Direct
   Integral package                     .... SHARK and LIBINT hybrid scheme
 Reset frequency        DirectResetFreq ....    20
 Integral Threshold     Thresh          ....  2.500e-11 Eh
 Primitive CutOff       TCut            ....  2.500e-12 Eh

Convergence Tolerance:
 Convergence Check Mode ConvCheckMode   .... Total+1el-Energy
 Convergence forced     ConvForced      .... 0
 Energy Change          TolE            ....  1.000e-08 Eh
 1-El. energy change                    ....  1.000e-05 Eh
 Orbital Gradient       TolG            ....  1.000e-05
 Orbital Rotation angle TolX            ....  1.000e-05
 DIIS Error             TolErr          ....  5.000e-07

------------------------------
INITIAL GUESS: MODEL POTENTIAL
------------------------------
Loading Hartree-Fock densities                     ... done
Calculating cut-offs                               ... done
Initializing the effective Hamiltonian             ... done
Setting up the integral package (SHARK)            ... done
Starting the Coulomb interaction                   ... done (   0.1 sec)
Making the grid                                    ... done (   0.2 sec)
Mapping shells                                     ... done
Starting the XC term evaluation                    ... done (   0.1 sec)
  promolecular density results
     # of electrons  =    106.000626621
     EX              =    -93.321669702
     EC              =     -3.926199714
     EX+EC           =    -97.247869416
Transforming the Hamiltonian                       ... done (   0.0 sec)
Diagonalizing the Hamiltonian                      ... done (   0.0 sec)
Back transforming the eigenvectors                 ... done (   0.0 sec)
Now organizing SCF variables                       ... done
                      ------------------
                      INITIAL GUESS DONE (   0.4 sec)
                      ------------------
             **** ENERGY FILE WAS UPDATED (data/geom_opt_P_BP86/73879/73879.en.tmp) ****
Finished Guess after   0.5 sec
Maximum memory used throughout the entire GUESS-calculation: 18.3 MB


           ************************************************************
           *        Program running with 6 parallel MPI-processes     *
           *              working on a common directory               *
           ************************************************************

-------------------------------------------------------------------------------------------
                                      ORCA LEAN-SCF
                              memory conserving SCF solver
-------------------------------------------------------------------------------------------

----------------------------------------D-I-I-S--------------------------------------------
Iteration    Energy (Eh)           Delta-E    RMSDP     MaxDP     DIISErr   Damp  Time(sec)
-------------------------------------------------------------------------------------------
               ***  Starting incremental Fock matrix formation  ***
    1    -843.8578400284500276     0.00e+00  2.41e-03  8.27e-02  1.62e-01  0.700   0.6
    2    -843.9865085587355225    -1.29e-01  1.72e-03  4.72e-02  7.67e-02  0.700   0.5
                               ***Turning on AO-DIIS***
    3    -844.0341426389165917    -4.76e-02  7.77e-04  3.83e-02  2.17e-02  0.700   0.5
    4    -844.0618269948763555    -2.77e-02  1.49e-03  8.50e-02  8.51e-03  0.000   0.5
    5    -844.1232962145381862    -6.15e-02  2.73e-04  1.24e-02  5.28e-03  0.000   0.5
                              *** Initializing SOSCF ***
---------------------------------------S-O-S-C-F--------------------------------------
Iteration    Energy (Eh)           Delta-E    RMSDP     MaxDP     MaxGrad    Time(sec)
--------------------------------------------------------------------------------------
    6    -844.1237966780122406    -5.00e-04  9.65e-05  3.20e-03  1.04e-03     0.6
               *** Restarting incremental Fock matrix formation ***
    7    -844.1238269219904851    -3.02e-05  6.95e-05  2.40e-03  1.59e-04     0.5
    8    -844.1238276921583292    -7.70e-07  2.29e-05  5.19e-04  2.23e-04     0.5
    9    -844.1238295344639937    -1.84e-06  2.68e-05  1.18e-03  1.56e-04     0.4
   10    -844.1238296781057215    -1.44e-07  1.13e-05  3.83e-04  8.06e-05     0.4
   11    -844.1238303778902718    -7.00e-07  7.66e-06  3.01e-04  2.45e-05     0.5
   12    -844.1238303514096515     2.65e-08  3.28e-06  1.10e-04  4.87e-05     0.5
   13    -844.1238304057872028    -5.44e-08  4.39e-06  2.01e-04  1.77e-05     0.5
   14    -844.1238304024425361     3.34e-09  2.57e-06  1.40e-04  1.49e-05     0.5
                 **** Energy Check signals convergence ****

               *****************************************************
               *                     SUCCESS                       *
               *           SCF CONVERGED AFTER  14 CYCLES          *
               *****************************************************

             **** ENERGY FILE WAS UPDATED (data/geom_opt_P_BP86/73879/73879.en.tmp) ****

----------------
TOTAL SCF ENERGY
----------------

Total Energy       :       -844.12383040244254 Eh          -22969.77719 eV

Components:
Nuclear Repulsion  :        906.44945797045693 Eh           24665.74373 eV
Electronic Energy  :      -1750.57328837289947 Eh          -47635.52092 eV
One Electron Energy:      -2949.56244211046078 Eh          -80261.67447 eV
Two Electron Energy:       1198.98915373756131 Eh           32626.15355 eV

Virial components:
Potential Energy   :      -1681.36039843015988 Eh          -45752.14244 eV
Kinetic Energy     :        837.23656802771723 Eh           22782.36525 eV
Virial Ratio       :          2.00822618437576

DFT components:
N(Alpha)           :       52.999949788853 electrons
N(Beta)            :       52.999949788853 electrons
N(Total)           :      105.999899577706 electrons
E(X)               :      -94.655584201002 Eh       
E(C)               :       -3.931516723926 Eh       
E(XC)              :      -98.587100924929 Eh       

---------------
SCF CONVERGENCE
---------------

  Last Energy change         ...   -3.3447e-09  Tolerance :   1.0000e-08
  Last MAX-Density change    ...    1.3976e-04  Tolerance :   1.0000e-07
  Last RMS-Density change    ...    2.5697e-06  Tolerance :   5.0000e-09
  Last DIIS Error            ...    1.0411e-03  Tolerance :   5.0000e-07
  Last Orbital Gradient      ...    1.4916e-05  Tolerance :   1.0000e-05
  Last Orbital Rotation      ...    2.9248e-05  Tolerance :   1.0000e-05


----------------
ORBITAL ENERGIES
----------------

  NO   OCC          E(Eh)            E(eV) 
   0   2.0000     -76.337078     -2077.2375 
   1   2.0000      -9.922408      -270.0024 
   2   2.0000      -9.922163      -269.9958 
   3   2.0000      -9.921607      -269.9806 
   4   2.0000      -9.921549      -269.9791 
   5   2.0000      -9.921092      -269.9666 
   6   2.0000      -9.920494      -269.9504 
   7   2.0000      -9.920103      -269.9397 
   8   2.0000      -9.917275      -269.8628 
   9   2.0000      -9.915991      -269.8278 
  10   2.0000      -9.915593      -269.8170 
  11   2.0000      -9.914926      -269.7988 
  12   2.0000      -9.913430      -269.7581 
  13   2.0000      -9.912905      -269.7439 
  14   2.0000      -6.307409      -171.6333 
  15   2.0000      -4.528921      -123.2382 
  16   2.0000      -4.528624      -123.2301 
  17   2.0000      -4.524982      -123.1310 
  18   2.0000      -0.780443       -21.2369 
  19   2.0000      -0.772845       -21.0302 
  20   2.0000      -0.699894       -19.0451 
  21   2.0000      -0.674825       -18.3629 
  22   2.0000      -0.671225       -18.2650 
  23   2.0000      -0.668104       -18.1800 
  24   2.0000      -0.644223       -17.5302 
  25   2.0000      -0.566922       -15.4267 
  26   2.0000      -0.546542       -14.8722 
  27   2.0000      -0.541453       -14.7337 
  28   2.0000      -0.536519       -14.5994 
  29   2.0000      -0.501225       -13.6390 
  30   2.0000      -0.469718       -12.7817 
  31   2.0000      -0.448388       -12.2012 
  32   2.0000      -0.412049       -11.2124 
  33   2.0000      -0.408759       -11.1229 
  34   2.0000      -0.402695       -10.9579 
  35   2.0000      -0.396539       -10.7904 
  36   2.0000      -0.383669       -10.4402 
  37   2.0000      -0.380999       -10.3675 
  38   2.0000      -0.373185       -10.1549 
  39   2.0000      -0.371333       -10.1045 
  40   2.0000      -0.350728        -9.5438 
  41   2.0000      -0.345416        -9.3992 
  42   2.0000      -0.335611        -9.1324 
  43   2.0000      -0.330088        -8.9822 
  44   2.0000      -0.308971        -8.4075 
  45   2.0000      -0.306698        -8.3457 
  46   2.0000      -0.297375        -8.0920 
  47   2.0000      -0.285815        -7.7774 
  48   2.0000      -0.247846        -6.7442 
  49   2.0000      -0.237046        -6.4504 
  50   2.0000      -0.234847        -6.3905 
  51   2.0000      -0.228825        -6.2266 
  52   2.0000      -0.186957        -5.0874 
  53   0.0000      -0.057630        -1.5682 
  54   0.0000      -0.048926        -1.3313 
  55   0.0000      -0.044283        -1.2050 
  56   0.0000      -0.037580        -1.0226 
  57   0.0000       0.028191         0.7671 
  58   0.0000       0.040128         1.0919 
  59   0.0000       0.042234         1.1493 
  60   0.0000       0.063930         1.7396 
  61   0.0000       0.071317         1.9406 
  62   0.0000       0.074730         2.0335 
  63   0.0000       0.084905         2.3104 
*Only the first 10 virtual orbitals were printed.

                    ********************************
                    * MULLIKEN POPULATION ANALYSIS *
                    ********************************

-----------------------
MULLIKEN ATOMIC CHARGES
-----------------------
   0 C :   -0.170836
   1 P :    0.198639
   2 C :   -0.080177
   3 C :   -0.005944
   4 C :    0.009218
   5 C :    0.004440
   6 C :    0.013913
   7 C :   -0.025474
   8 C :   -0.122791
   9 C :    0.014113
  10 C :    0.011249
  11 C :    0.012769
  12 C :    0.005357
  13 C :    0.009166
  14 H :    0.051565
  15 H :    0.068047
  16 H :    0.068486
  17 H :   -0.003580
  18 H :   -0.005874
  19 H :   -0.007226
  20 H :   -0.008187
  21 H :   -0.020691
  22 H :    0.000221
  23 H :   -0.004634
  24 H :   -0.002121
  25 H :   -0.002587
  26 H :   -0.007063
Sum of atomic charges:   -0.0000000

--------------------------------
MULLIKEN REDUCED ORBITAL CHARGES
--------------------------------
  0 C s       :     3.062011  s :     3.062011
      pz      :     1.024752  p :     3.088388
      px      :     1.040207
      py      :     1.023429
      dz2     :     0.007027  d :     0.020437
      dxz     :     0.000997
      dyz     :     0.004277
      dx2y2   :     0.002145
      dxy     :     0.005991

  1 P s       :     5.742298  s :     5.742298
      pz      :     3.288916  p :     8.885062
      px      :     2.764270
      py      :     2.831876
      dz2     :     0.025215  d :     0.174001
      dxz     :     0.025816
      dyz     :     0.038754
      dx2y2   :     0.030859
      dxy     :     0.053356

  2 C s       :     3.040857  s :     3.040857
      pz      :     0.995125  p :     3.004559
      px      :     1.005814
      py      :     1.003619
      dz2     :     0.004302  d :     0.034761
      dxz     :     0.005237
      dyz     :     0.006425
      dx2y2   :     0.008797
      dxy     :     0.010000

  3 C s       :     3.222676  s :     3.222676
      pz      :     0.953352  p :     2.750813
      px      :     0.864027
      py      :     0.933435
      dz2     :     0.002655  d :     0.032455
      dxz     :     0.004532
      dyz     :     0.005789
      dx2y2   :     0.009259
      dxy     :     0.010220

  4 C s       :     3.167801  s :     3.167801
      pz      :     0.975290  p :     2.789872
      px      :     0.968989
      py      :     0.845593
      dz2     :     0.003796  d :     0.033109
      dxz     :     0.006131
      dyz     :     0.003781
      dx2y2   :     0.011044
      dxy     :     0.008357

  5 C s       :     3.166850  s :     3.166850
      pz      :     0.982613  p :     2.795642
      px      :     0.882295
      py      :     0.930734
      dz2     :     0.003965  d :     0.033068
      dxz     :     0.003745
      dyz     :     0.005874
      dx2y2   :     0.008783
      dxy     :     0.010700

  6 C s       :     3.165814  s :     3.165814
      pz      :     0.957286  p :     2.787208
      px      :     0.887243
      py      :     0.942679
      dz2     :     0.002612  d :     0.033064
      dxz     :     0.004396
      dyz     :     0.006146
      dx2y2   :     0.009590
      dxy     :     0.010320

  7 C s       :     3.222078  s :     3.222078
      pz      :     0.989084  p :     2.770819
      px      :     0.941469
      py      :     0.840266
      dz2     :     0.003593  d :     0.032577
      dxz     :     0.005969
      dyz     :     0.003578
      dx2y2   :     0.011285
      dxy     :     0.008152

  8 C s       :     3.072224  s :     3.072224
      pz      :     1.005543  p :     3.015555
      px      :     1.000523
      py      :     1.009489
      dz2     :     0.008746  d :     0.035012
      dxz     :     0.009253
      dyz     :     0.007128
      dx2y2   :     0.004382
      dxy     :     0.005502

  9 C s       :     3.222625  s :     3.222625
      pz      :     0.922001  p :     2.730391
      px      :     0.867877
      py      :     0.940513
      dz2     :     0.006992  d :     0.032871
      dxz     :     0.009664
      dyz     :     0.005940
      dx2y2   :     0.005668
      dxy     :     0.004607

 10 C s       :     3.169659  s :     3.169659
      pz      :     0.863360  p :     2.786273
      px      :     0.970664
      py      :     0.952249
      dz2     :     0.007403  d :     0.032820
      dxz     :     0.007445
      dyz     :     0.005531
      dx2y2   :     0.006460
      dxy     :     0.005981

 11 C s       :     3.168062  s :     3.168062
      pz      :     0.958599  p :     2.786060
      px      :     0.899110
      py      :     0.928351
      dz2     :     0.009006  d :     0.033108
      dxz     :     0.008633
      dyz     :     0.006249
      dx2y2   :     0.003608
      dxy     :     0.005612

 12 C s       :     3.171162  s :     3.171162
      pz      :     0.918343  p :     2.790787
      px      :     0.898698
      py      :     0.973746
      dz2     :     0.007059  d :     0.032695
      dxz     :     0.009483
      dyz     :     0.006055
      dx2y2   :     0.005559
      dxy     :     0.004538

 13 C s       :     3.232202  s :     3.232202
      pz      :     0.865493  p :     2.725880
      px      :     0.939385
      py      :     0.921002
      dz2     :     0.007390  d :     0.032753
      dxz     :     0.007390
      dyz     :     0.005357
      dx2y2   :     0.006495
      dxy     :     0.006121

 14 H s       :     0.924948  s :     0.924948
      pz      :     0.011571  p :     0.023487
      px      :     0.005427
      py      :     0.006489

 15 H s       :     0.908554  s :     0.908554
      pz      :     0.005043  p :     0.023398
      px      :     0.011584
      py      :     0.006772

 16 H s       :     0.907954  s :     0.907954
      pz      :     0.005320  p :     0.023560
      px      :     0.009140
      py      :     0.009101

 17 H s       :     0.980873  s :     0.980873
      pz      :     0.006789  p :     0.022707
      px      :     0.010214
      py      :     0.005704

 18 H s       :     0.983492  s :     0.983492
      pz      :     0.005460  p :     0.022382
      px      :     0.003921
      py      :     0.013001

 19 H s       :     0.984799  s :     0.984799
      pz      :     0.005214  p :     0.022427
      px      :     0.010529
      py      :     0.006685

 20 H s       :     0.985776  s :     0.985776
      pz      :     0.006687  p :     0.022411
      px      :     0.010102
      py      :     0.005622

 21 H s       :     0.997989  s :     0.997989
      pz      :     0.005600  p :     0.022702
      px      :     0.004050
      py      :     0.013052

 22 H s       :     0.977228  s :     0.977228
      pz      :     0.007795  p :     0.022551
      px      :     0.010016
      py      :     0.004739

 23 H s       :     0.982251  s :     0.982251
      pz      :     0.011893  p :     0.022383
      px      :     0.004020
      py      :     0.006471

 24 H s       :     0.979790  s :     0.979790
      pz      :     0.004607  p :     0.022331
      px      :     0.009672
      py      :     0.008053

 25 H s       :     0.980198  s :     0.980198
      pz      :     0.007880  p :     0.022389
      px      :     0.009727
      py      :     0.004783

 26 H s       :     0.984538  s :     0.984538
      pz      :     0.012081  p :     0.022525
      px      :     0.003957
      py      :     0.006487



                     *******************************
                     * LOEWDIN POPULATION ANALYSIS *
                     *******************************

----------------------
LOEWDIN ATOMIC CHARGES
----------------------
   0 C :   -0.216497
   1 P :    0.482533
   2 C :   -0.174893
   3 C :   -0.032884
   4 C :   -0.027358
   5 C :   -0.034531
   6 C :   -0.027973
   7 C :   -0.043775
   8 C :   -0.178544
   9 C :   -0.022066
  10 C :   -0.028071
  11 C :   -0.022579
  12 C :   -0.029335
  13 C :   -0.030618
  14 H :    0.024524
  15 H :    0.040058
  16 H :    0.032035
  17 H :    0.028813
  18 H :    0.030234
  19 H :    0.028592
  20 H :    0.029369
  21 H :    0.024020
  22 H :    0.029334
  23 H :    0.030457
  24 H :    0.030616
  25 H :    0.030869
  26 H :    0.027669

-------------------------------
LOEWDIN REDUCED ORBITAL CHARGES
-------------------------------
  0 C s       :     2.896674  s :     2.896674
      pz      :     1.092716  p :     3.264824
      px      :     1.087529
      py      :     1.084579
      dz2     :     0.018470  d :     0.054999
      dxz     :     0.002212
      dyz     :     0.012581
      dx2y2   :     0.005726
      dxy     :     0.016009

  1 P s       :     5.261611  s :     5.261611
      pz      :     3.341405  p :     9.018835
      px      :     2.801033
      py      :     2.876397
      dz2     :     0.034156  d :     0.237021
      dxz     :     0.031957
      dyz     :     0.053495
      dx2y2   :     0.041288
      dxy     :     0.076126

  2 C s       :     2.915507  s :     2.915507
      pz      :     1.007134  p :     3.168918
      px      :     1.081190
      py      :     1.080594
      dz2     :     0.009341  d :     0.090468
      dxz     :     0.012820
      dyz     :     0.015595
      dx2y2   :     0.025616
      dxy     :     0.027096

  3 C s       :     2.866112  s :     2.866112
      pz      :     0.987446  p :     3.078013
      px      :     1.039842
      py      :     1.050726
      dz2     :     0.006537  d :     0.088759
      dxz     :     0.010764
      dyz     :     0.014122
      dx2y2   :     0.027058
      dxy     :     0.030278

  4 C s       :     2.863310  s :     2.863310
      pz      :     0.986272  p :     3.074465
      px      :     1.053365
      py      :     1.034828
      dz2     :     0.008801  d :     0.089582
      dxz     :     0.015830
      dyz     :     0.009139
      dx2y2   :     0.030553
      dxy     :     0.025259

  5 C s       :     2.861937  s :     2.861937
      pz      :     0.991667  p :     3.082826
      px      :     1.035880
      py      :     1.055280
      dz2     :     0.009146  d :     0.089768
      dxz     :     0.009685
      dyz     :     0.014836
      dx2y2   :     0.026185
      dxy     :     0.029915

  6 C s       :     2.863610  s :     2.863610
      pz      :     0.982232  p :     3.074906
      px      :     1.033511
      py      :     1.059162
      dz2     :     0.006369  d :     0.089457
      dxz     :     0.010322
      dyz     :     0.014965
      dx2y2   :     0.027900
      dxy     :     0.029900

  7 C s       :     2.864617  s :     2.864617
      pz      :     0.995907  p :     3.089743
      px      :     1.055241
      py      :     1.038595
      dz2     :     0.008272  d :     0.089415
      dxz     :     0.015421
      dyz     :     0.008622
      dx2y2   :     0.032283
      dxy     :     0.024817

  8 C s       :     2.914564  s :     2.914564
      pz      :     1.080552  p :     3.172283
      px      :     1.061153
      py      :     1.030577
      dz2     :     0.023582  d :     0.091698
      dxz     :     0.026184
      dyz     :     0.019010
      dx2y2   :     0.010161
      dxy     :     0.012761

  9 C s       :     2.868325  s :     2.868325
      pz      :     1.040569  p :     3.063781
      px      :     1.026934
      py      :     0.996278
      dz2     :     0.019882  d :     0.089960
      dxz     :     0.026341
      dyz     :     0.017044
      dx2y2   :     0.013410
      dxy     :     0.013283

 10 C s       :     2.864287  s :     2.864287
      pz      :     1.030332  p :     3.074750
      px      :     1.044517
      py      :     0.999901
      dz2     :     0.019927  d :     0.089034
      dxz     :     0.022069
      dyz     :     0.014068
      dx2y2   :     0.016072
      dxy     :     0.016898

 11 C s       :     2.863933  s :     2.863933
      pz      :     1.052134  p :     3.069021
      px      :     1.026766
      py      :     0.990121
      dz2     :     0.024907  d :     0.089624
      dxz     :     0.024992
      dyz     :     0.016810
      dx2y2   :     0.008914
      dxy     :     0.014002

 12 C s       :     2.864357  s :     2.864357
      pz      :     1.042538  p :     3.076263
      px      :     1.027932
      py      :     1.005793
      dz2     :     0.020126  d :     0.088716
      dxz     :     0.025522
      dyz     :     0.016865
      dx2y2   :     0.013220
      dxy     :     0.012982

 13 C s       :     2.871405  s :     2.871405
      pz      :     1.031529  p :     3.069583
      px      :     1.043265
      py      :     0.994788
      dz2     :     0.020273  d :     0.089630
      dxz     :     0.021670
      dyz     :     0.013853
      dx2y2   :     0.016379
      dxy     :     0.017454

 14 H s       :     0.904364  s :     0.904364
      pz      :     0.039491  p :     0.071113
      px      :     0.013544
      py      :     0.018078

 15 H s       :     0.890638  s :     0.890638
      pz      :     0.013732  p :     0.069304
      px      :     0.035124
      py      :     0.020449

 16 H s       :     0.898099  s :     0.898099
      pz      :     0.014494  p :     0.069865
      px      :     0.026651
      py      :     0.028720

 17 H s       :     0.902089  s :     0.902089
      pz      :     0.020365  p :     0.069098
      px      :     0.030829
      py      :     0.017904

 18 H s       :     0.901763  s :     0.901763
      pz      :     0.016084  p :     0.068003
      px      :     0.012101
      py      :     0.039818

 19 H s       :     0.903142  s :     0.903142
      pz      :     0.015394  p :     0.068267
      px      :     0.032186
      py      :     0.020687

 20 H s       :     0.902597  s :     0.902597
      pz      :     0.019752  p :     0.068034
      px      :     0.030860
      py      :     0.017422

 21 H s       :     0.906519  s :     0.906519
      pz      :     0.016572  p :     0.069461
      px      :     0.012345
      py      :     0.040543

 22 H s       :     0.901866  s :     0.901866
      pz      :     0.024556  p :     0.068800
      px      :     0.030287
      py      :     0.013957

 23 H s       :     0.901278  s :     0.901278
      pz      :     0.036457  p :     0.068265
      px      :     0.012423
      py      :     0.019385

 24 H s       :     0.901298  s :     0.901298
      pz      :     0.014348  p :     0.068086
      px      :     0.029540
      py      :     0.024198

 25 H s       :     0.900921  s :     0.900921
      pz      :     0.024182  p :     0.068210
      px      :     0.029763
      py      :     0.014265

 26 H s       :     0.903179  s :     0.903179
      pz      :     0.037738  p :     0.069152
      px      :     0.012043
      py      :     0.019371



                      *****************************
                      * MAYER POPULATION ANALYSIS *
                      *****************************

  NA   - Mulliken gross atomic population
  ZA   - Total nuclear charge
  QA   - Mulliken gross atomic charge
  VA   - Mayer's total valence
  BVA  - Mayer's bonded valence
  FA   - Mayer's free valence

  ATOM       NA         ZA         QA         VA         BVA        FA
  0 C      6.1708     6.0000    -0.1708     3.9170     3.9170    -0.0000
  1 P     14.8014    15.0000     0.1986     3.0618     3.0618    -0.0000
  2 C      6.0802     6.0000    -0.0802     3.7648     3.7648    -0.0000
  3 C      6.0059     6.0000    -0.0059     3.8998     3.8998    -0.0000
  4 C      5.9908     6.0000     0.0092     3.8631     3.8631    -0.0000
  5 C      5.9956     6.0000     0.0044     3.8325     3.8325    -0.0000
  6 C      5.9861     6.0000     0.0139     3.8586     3.8586    -0.0000
  7 C      6.0255     6.0000    -0.0255     3.9054     3.9054    -0.0000
  8 C      6.1228     6.0000    -0.1228     3.7957     3.7957    -0.0000
  9 C      5.9859     6.0000     0.0141     3.8703     3.8703    -0.0000
 10 C      5.9888     6.0000     0.0112     3.8487     3.8487    -0.0000
 11 C      5.9872     6.0000     0.0128     3.8270     3.8270    -0.0000
 12 C      5.9946     6.0000     0.0054     3.8463     3.8463    -0.0000
 13 C      5.9908     6.0000     0.0092     3.8632     3.8632    -0.0000
 14 H      0.9484     1.0000     0.0516     0.9973     0.9973    -0.0000
 15 H      0.9320     1.0000     0.0680     0.9883     0.9883    -0.0000
 16 H      0.9315     1.0000     0.0685     0.9846     0.9846    -0.0000
 17 H      1.0036     1.0000    -0.0036     0.9905     0.9905    -0.0000
 18 H      1.0059     1.0000    -0.0059     0.9780     0.9780    -0.0000
 19 H      1.0072     1.0000    -0.0072     0.9781     0.9781    -0.0000
 20 H      1.0082     1.0000    -0.0082     0.9777     0.9777     0.0000
 21 H      1.0207     1.0000    -0.0207     0.9929     0.9929     0.0000
 22 H      0.9998     1.0000     0.0002     0.9905     0.9905    -0.0000
 23 H      1.0046     1.0000    -0.0046     0.9784     0.9784    -0.0000
 24 H      1.0021     1.0000    -0.0021     0.9782     0.9782     0.0000
 25 H      1.0026     1.0000    -0.0026     0.9784     0.9784     0.0000
 26 H      1.0071     1.0000    -0.0071     0.9964     0.9964     0.0000

  Mayer bond orders larger than 0.100000
B(  0-C ,  1-P ) :   1.0062 B(  0-C , 14-H ) :   0.9436 B(  0-C , 15-H ) :   0.9569 
B(  0-C , 16-H ) :   0.9538 B(  1-P ,  2-C ) :   0.9272 B(  1-P ,  8-C ) :   0.9428 
B(  2-C ,  3-C ) :   1.3635 B(  2-C ,  7-C ) :   1.3663 B(  3-C ,  4-C ) :   1.4133 
B(  3-C , 17-H ) :   0.9761 B(  4-C ,  5-C ) :   1.3721 B(  4-C , 18-H ) :   0.9800 
B(  5-C ,  6-C ) :   1.3838 B(  5-C , 19-H ) :   0.9804 B(  6-C ,  7-C ) :   1.3984 
B(  6-C , 20-H ) :   0.9779 B(  7-C , 21-H ) :   0.9762 B(  8-C ,  9-C ) :   1.3524 
B(  8-C , 13-C ) :   1.3762 B(  9-C , 10-C ) :   1.4043 B(  9-C , 22-H ) :   0.9755 
B( 10-C , 11-C ) :   1.3701 B( 10-C , 23-H ) :   0.9795 B( 11-C , 12-C ) :   1.3874 
B( 11-C , 24-H ) :   0.9805 B( 12-C , 13-C ) :   1.3809 B( 12-C , 25-H ) :   0.9812 
B( 13-C , 26-H ) :   0.9830 

-------
TIMINGS
-------

Total SCF time: 0 days 0 hours 0 min 7 sec 

Total time                  ....       7.038 sec
Sum of individual times     ....       6.982 sec  ( 99.2%)

SCF preparation             ....       0.086 sec  (  1.2%)
Fock matrix formation       ....       6.345 sec  ( 90.2%)
  Startup                   ....       0.034 sec  (  0.5% of F)
  Split-RI-J                ....       2.184 sec  ( 34.4% of F)
  XC integration            ....       3.977 sec  ( 62.7% of F)
    Basis function eval.    ....       1.160 sec  ( 29.2% of XC)
    Density eval.           ....       1.002 sec  ( 25.2% of XC)
    XC-Functional eval.     ....       0.135 sec  (  3.4% of XC)
    XC-Potential eval.      ....       0.953 sec  ( 24.0% of XC)
Diagonalization             ....       0.000 sec  (  0.0%)
Density matrix formation    ....       0.087 sec  (  1.2%)
Total Energy calculation    ....       0.033 sec  (  0.5%)
Population analysis         ....       0.040 sec  (  0.6%)
Orbital Transformation      ....       0.038 sec  (  0.5%)
Orbital Orthonormalization  ....       0.000 sec  (  0.0%)
DIIS solution               ....       0.196 sec  (  2.8%)
SOSCF solution              ....       0.157 sec  (  2.2%)
Finished LeanSCF after   7.1 sec

Maximum memory used throughout the entire LEANSCF-calculation: 25.8 MB


-------------------------------------------------------------------------------
                          DFT DISPERSION CORRECTION                            
                                                                               
                              DFTD3 V3.1  Rev 1                                
                          USING Becke-Johnson damping                          
-------------------------------------------------------------------------------
The BP86 functional is recognized
Active option DFTDOPT                   ...         4   

molecular C6(AA) [au] = 9884.713732 


            DFT-D V3
 parameters
 s6 scaling factor         :     1.0000 
 a1 scaling factor         :     0.3946 
 s8 scaling factor         :     3.2822 
 a2 scaling factor         :     4.8516 
 ad hoc parameters k1-k3   :    16.0000     1.3333    -4.0000 

 Edisp/kcal,au: -36.576422063636  -0.058288232567 
 E6   /kcal   : -13.161891072 
 E8   /kcal   : -23.414530992 
 % E8         :  64.015367471 

-------------------------   ----------------
Dispersion correction           -0.058288233
-------------------------   ----------------


-------------------------   --------------------
FINAL SINGLE POINT ENERGY      -844.182118635009
-------------------------   --------------------



           ************************************************************
           *        Program running with 6 parallel MPI-processes     *
           *              working on a common directory               *
           ************************************************************
------------------------------------------------------------------------------
                         ORCA SCF GRADIENT CALCULATION
------------------------------------------------------------------------------

Nuc. rep. gradient        (SHARK) ... done (  0.0 sec)
HCore & Overlap gradient  (SHARK) ... done (  0.1 sec)
Split-RIJ-J gradient      (SHARK) ... done (  0.6 sec)
XC gradient                       ... done (  2.4 sec)
Dispersion correction             ... done (  0.1 sec)

-------------------
DISPERSION GRADIENT
-------------------

   1   C   :   -0.000053911   -0.000777458   -0.000158619
   2   P   :   -0.000104676   -0.000718807    0.000471670
   3   C   :    0.000621178    0.000051830    0.000226315
   4   C   :    0.000660291    0.000010954    0.000194240
   5   C   :    0.000410504    0.000393863    0.000080138
   6   C   :    0.000191775    0.000103945    0.000000780
   7   C   :    0.000505322    0.000081329   -0.000100281
   8   C   :    0.000407999    0.000168822    0.000176306
   9   C   :   -0.000608590    0.000073146    0.000071953
  10   C   :   -0.000699665    0.000177686   -0.000080851
  11   C   :   -0.000409425    0.000317888   -0.000333275
  12   C   :   -0.000192960    0.000103530   -0.000047865
  13   C   :   -0.000438251    0.000180010    0.000084669
  14   C   :   -0.000286750    0.000042754   -0.000003557
  15   H   :   -0.000039584   -0.000336272   -0.000225920
  16   H   :   -0.000047768   -0.000366028   -0.000077865
  17   H   :   -0.000031996   -0.000324344   -0.000052628
  18   H   :    0.000186000    0.000299657    0.000236487
  19   H   :    0.000052604    0.000247874    0.000066088
  20   H   :    0.000197182    0.000127698   -0.000043217
  21   H   :    0.000219164   -0.000083527   -0.000103800
  22   H   :    0.000241227   -0.000194118   -0.000073122
  23   H   :   -0.000160856    0.000134801   -0.000411011
  24   H   :   -0.000044505    0.000127916   -0.000230811
  25   H   :   -0.000183430    0.000141241   -0.000063188
  26   H   :   -0.000200901    0.000048734    0.000143947
  27   H   :   -0.000189977   -0.000033124    0.000253414

Difference to translation invariance:
           :    0.0000000000    0.0000000000   -0.0000000000

Difference to rotation invariance:
           :   -0.0000000000    0.0000000000    0.0000000000

Norm of the Dispersion gradient    ...    0.0024946304
RMS gradient                       ...    0.0002771812
MAX gradient                       ...    0.0007774579

------------------
CARTESIAN GRADIENT
------------------

   1   C   :   -0.003423813    0.000203245    0.004813261
   2   P   :    0.000912933    0.007846449   -0.021008611
   3   C   :    0.002461090   -0.000220899    0.005390470
   4   C   :   -0.001102674   -0.004523135   -0.001005943
   5   C   :    0.005659644    0.003372925   -0.002555861
   6   C   :   -0.004135182   -0.001362556    0.001667494
   7   C   :    0.003018133    0.002601950   -0.002289232
   8   C   :   -0.004652906   -0.000096802    0.001943811
   9   C   :    0.000631335   -0.003212427    0.001085033
  10   C   :    0.002472263   -0.003612784    0.002723681
  11   C   :   -0.004339822    0.002814083    0.000406681
  12   C   :    0.002315946   -0.001143717   -0.000780411
  13   C   :   -0.001017198    0.001411984   -0.000373941
  14   C   :    0.002020049   -0.001156195   -0.000439395
  15   H   :   -0.001785515   -0.004279359    0.009820537
  16   H   :    0.008314615    0.002320042   -0.002912854
  17   H   :   -0.006655750    0.006198635   -0.002583698
  18   H   :    0.008537539   -0.002456133   -0.002884401
  19   H   :    0.000283175   -0.009236053   -0.002648355
  20   H   :   -0.008019104   -0.005302622    0.002224818
  21   H   :   -0.007171367    0.004688075    0.004312426
  22   H   :    0.002167773    0.009380148    0.003115818
  23   H   :   -0.008276396    0.002174979    0.004646106
  24   H   :   -0.000300732   -0.004086150    0.008832873
  25   H   :    0.007358105   -0.005961260    0.002596950
  26   H   :    0.007168037   -0.001363783   -0.006289487
  27   H   :   -0.002440179    0.005001361   -0.007807772

Difference to translation invariance:
           :   -0.0000000000    0.0000000000   -0.0000000000

Difference to rotation invariance:
           :   -0.0004834053   -0.0000965212   -0.0000989103

Norm of the Cartesian gradient     ...    0.0450417607
RMS gradient                       ...    0.0050046401
MAX gradient                       ...    0.0210086114

-------
TIMINGS
-------

Total SCF gradient time     ....        3.207 sec

One electron gradient       ....       0.145 sec  (  4.5%)
RI-J Coulomb gradient       ....       0.565 sec  ( 17.6%)
XC gradient                 ....       2.434 sec  ( 75.9%)

Maximum memory used throughout the entire SCFGRAD-calculation: 33.8 MB
[...]
      py      :     1.063929
      dz2     :     0.013465  d :     0.087598
      dxz     :     0.015860
      dyz     :     0.018793
      dx2y2   :     0.019233
      dxy     :     0.020248

  3 C s       :     2.874642  s :     2.874642
      pz      :     1.000451  p :     3.070842
      px      :     1.027666
      py      :     1.042724
      dz2     :     0.009308  d :     0.086840
      dxz     :     0.014598
      dyz     :     0.016059
      dx2y2   :     0.022106
      dxy     :     0.024769

  4 C s       :     2.872443  s :     2.872443
      pz      :     1.006670  p :     3.071117
      px      :     1.038520
      py      :     1.025927
      dz2     :     0.012018  d :     0.086382
      dxz     :     0.017518
      dyz     :     0.013953
      dx2y2   :     0.022784
      dxy     :     0.020109

  5 C s       :     2.873029  s :     2.873029
      pz      :     1.010843  p :     3.074656
      px      :     1.021893
      py      :     1.041920
      dz2     :     0.013227  d :     0.085645
      dxz     :     0.012712
      dyz     :     0.017948
      dx2y2   :     0.019305
      dxy     :     0.022454

  6 C s       :     2.872649  s :     2.872649
      pz      :     0.999239  p :     3.071603
      px      :     1.026674
      py      :     1.045689
      dz2     :     0.009122  d :     0.086411
      dxz     :     0.014094
      dyz     :     0.016342
      dx2y2   :     0.022756
      dxy     :     0.024097

  7 C s       :     2.873882  s :     2.873882
      pz      :     1.010663  p :     3.086020
      px      :     1.043524
      py      :     1.031833
      dz2     :     0.011733  d :     0.087065
      dxz     :     0.017943
      dyz     :     0.014130
      dx2y2   :     0.023599
      dxy     :     0.019661

  8 C s       :     2.924777  s :     2.924777
      pz      :     1.060085  p :     3.158547
      px      :     1.068283
      py      :     1.030179
      dz2     :     0.018583  d :     0.087794
      dxz     :     0.024134
      dyz     :     0.015270
      dx2y2   :     0.014511
      dxy     :     0.015297

  9 C s       :     2.876164  s :     2.876164
      pz      :     1.023790  p :     3.067451
      px      :     1.040556
      py      :     1.003106
      dz2     :     0.017166  d :     0.087137
      dxz     :     0.022797
      dyz     :     0.015493
      dx2y2   :     0.017347
      dxy     :     0.014334

 10 C s       :     2.873152  s :     2.873152
      pz      :     1.016005  p :     3.071537
      px      :     1.056937
      py      :     0.998595
      dz2     :     0.014496  d :     0.086134
      dxz     :     0.021990
      dyz     :     0.011453
      dx2y2   :     0.019560
      dxy     :     0.018636

 11 C s       :     2.873879  s :     2.873879
      pz      :     1.031104  p :     3.068928
      px      :     1.041258
      py      :     0.996565
      dz2     :     0.018342  d :     0.085684
      dxz     :     0.023713
      dyz     :     0.013417
      dx2y2   :     0.013614
      dxy     :     0.016598

 12 C s       :     2.873168  s :     2.873168
      pz      :     1.030205  p :     3.073028
      px      :     1.035385
      py      :     1.007437
      dz2     :     0.017111  d :     0.085917
      dxz     :     0.022840
      dyz     :     0.014954
      dx2y2   :     0.017043
      dxy     :     0.013970

 13 C s       :     2.877697  s :     2.877697
      pz      :     1.018692  p :     3.073454
      px      :     1.058448
      py      :     0.996314
      dz2     :     0.015065  d :     0.087076
      dxz     :     0.022167
      dyz     :     0.011486
      dx2y2   :     0.019492
      dxy     :     0.018864

 14 H s       :     0.903017  s :     0.903017
      pz      :     0.040849  p :     0.068485
      px      :     0.012091
      py      :     0.015545

 15 H s       :     0.893065  s :     0.893065
      pz      :     0.013196  p :     0.067367
      px      :     0.034277
      py      :     0.019895

 16 H s       :     0.898307  s :     0.898307
      pz      :     0.013646  p :     0.067509
      px      :     0.026892
      py      :     0.026970

 17 H s       :     0.901823  s :     0.901823
      pz      :     0.026017  p :     0.066485
      px      :     0.024773
      py      :     0.015695

 18 H s       :     0.900690  s :     0.900690
      pz      :     0.017379  p :     0.065742
      px      :     0.012337
      py      :     0.036026

 19 H s       :     0.901554  s :     0.901554
      pz      :     0.014702  p :     0.065978
      px      :     0.031524
      py      :     0.019752

 20 H s       :     0.901762  s :     0.901762
      pz      :     0.025667  p :     0.065792
      px      :     0.024331
      py      :     0.015794

 21 H s       :     0.903927  s :     0.903927
      pz      :     0.018208  p :     0.067759
      px      :     0.012801
      py      :     0.036750

 22 H s       :     0.897983  s :     0.897983
      pz      :     0.018057  p :     0.067886
      px      :     0.037173
      py      :     0.012657

 23 H s       :     0.901083  s :     0.901083
      pz      :     0.032484  p :     0.065857
      px      :     0.011624
      py      :     0.021750

 24 H s       :     0.901264  s :     0.901264
      pz      :     0.015730  p :     0.065863
      px      :     0.028401
      py      :     0.021732

 25 H s       :     0.900917  s :     0.900917
      pz      :     0.018477  p :     0.065841
      px      :     0.034672
      py      :     0.012692

 26 H s       :     0.904227  s :     0.904227
      pz      :     0.033573  p :     0.066775
      px      :     0.011246
      py      :     0.021956



                      *****************************
                      * MAYER POPULATION ANALYSIS *
                      *****************************

  NA   - Mulliken gross atomic population
  ZA   - Total nuclear charge
  QA   - Mulliken gross atomic charge
  VA   - Mayer's total valence
  BVA  - Mayer's bonded valence
  FA   - Mayer's free valence

  ATOM       NA         ZA         QA         VA         BVA        FA
  0 C      6.1855     6.0000    -0.1855     3.9193     3.9193    -0.0000
  1 P     14.7944    15.0000     0.2056     3.0474     3.0474    -0.0000
  2 C      6.1316     6.0000    -0.1316     3.7992     3.7992    -0.0000
  3 C      5.9900     6.0000     0.0100     3.8835     3.8835    -0.0000
  4 C      6.0014     6.0000    -0.0014     3.8657     3.8657    -0.0000
  5 C      5.9996     6.0000     0.0004     3.8303     3.8303    -0.0000
  6 C      5.9949     6.0000     0.0051     3.8461     3.8461    -0.0000
  7 C      6.0228     6.0000    -0.0228     3.8992     3.8992    -0.0000
  8 C      6.1388     6.0000    -0.1388     3.8293     3.8293    -0.0000
  9 C      5.9855     6.0000     0.0145     3.8783     3.8783     0.0000
 10 C      5.9985     6.0000     0.0015     3.8423     3.8423    -0.0000
 11 C      5.9960     6.0000     0.0040     3.8285     3.8285    -0.0000
 12 C      6.0020     6.0000    -0.0020     3.8524     3.8524    -0.0000
 13 C      5.9937     6.0000     0.0063     3.8627     3.8627    -0.0000
 14 H      0.9377     1.0000     0.0623     0.9920     0.9920     0.0000
 15 H      0.9324     1.0000     0.0676     0.9867     0.9867    -0.0000
 16 H      0.9262     1.0000     0.0738     0.9799     0.9799    -0.0000
 17 H      0.9956     1.0000     0.0044     0.9904     0.9904    -0.0000
 18 H      0.9955     1.0000     0.0045     0.9787     0.9787    -0.0000
 19 H      0.9963     1.0000     0.0037     0.9788     0.9788     0.0000
 20 H      0.9990     1.0000     0.0010     0.9785     0.9785    -0.0000
 21 H      1.0081     1.0000    -0.0081     0.9972     0.9972    -0.0000
 22 H      0.9869     1.0000     0.0131     0.9907     0.9907     0.0000
 23 H      0.9969     1.0000     0.0031     0.9789     0.9789    -0.0000
 24 H      0.9950     1.0000     0.0050     0.9787     0.9787    -0.0000
 25 H      0.9955     1.0000     0.0045     0.9790     0.9790     0.0000
 26 H      1.0002     1.0000    -0.0002     0.9923     0.9923    -0.0000

  Mayer bond orders larger than 0.100000
B(  0-C ,  1-P ) :   1.0100 B(  0-C , 14-H ) :   0.9420 B(  0-C , 15-H ) :   0.9566 
B(  0-C , 16-H ) :   0.9538 B(  1-P ,  2-C ) :   0.9264 B(  1-P ,  8-C ) :   0.9311 
B(  2-C ,  3-C ) :   1.3577 B(  2-C ,  7-C ) :   1.3840 B(  3-C ,  4-C ) :   1.4214 
B(  3-C , 17-H ) :   0.9707 B(  4-C ,  5-C ) :   1.3655 B(  4-C , 18-H ) :   0.9757 
B(  5-C ,  6-C ) :   1.3909 B(  5-C , 19-H ) :   0.9758 B(  6-C ,  7-C ) :   1.3807 
B(  6-C , 20-H ) :   0.9731 B(  7-C , 21-H ) :   0.9684 B(  8-C ,  9-C ) :   1.3772 
B(  8-C , 13-C ) :   1.3800 B(  9-C , 10-C ) :   1.3968 B(  9-C , 22-H ) :   0.9662 
B( 10-C , 11-C ) :   1.3720 B( 10-C , 23-H ) :   0.9746 B( 11-C , 12-C ) :   1.3870 
B( 11-C , 24-H ) :   0.9757 B( 12-C , 13-C ) :   1.3868 B( 12-C , 25-H ) :   0.9759 
B( 13-C , 26-H ) :   0.9732 

-------
TIMINGS
-------

Total SCF time: 0 days 0 hours 0 min 3 sec 

Total time                  ....       3.200 sec
Sum of individual times     ....       3.141 sec  ( 98.2%)

SCF preparation             ....       0.099 sec  (  3.1%)
Fock matrix formation       ....       2.783 sec  ( 87.0%)
  Startup                   ....       0.017 sec  (  0.6% of F)
  Split-RI-J                ....       0.937 sec  ( 33.7% of F)
  XC integration            ....       1.764 sec  ( 63.4% of F)
    Basis function eval.    ....       0.530 sec  ( 30.0% of XC)
    Density eval.           ....       0.475 sec  ( 26.9% of XC)
    XC-Functional eval.     ....       0.046 sec  (  2.6% of XC)
    XC-Potential eval.      ....       0.419 sec  ( 23.8% of XC)
Diagonalization             ....       0.000 sec  (  0.0%)
Density matrix formation    ....       0.034 sec  (  1.1%)
Total Energy calculation    ....       0.015 sec  (  0.5%)
Population analysis         ....       0.062 sec  (  1.9%)
Orbital Transformation      ....       0.020 sec  (  0.6%)
Orbital Orthonormalization  ....       0.000 sec  (  0.0%)
DIIS solution               ....       0.027 sec  (  0.8%)
SOSCF solution              ....       0.101 sec  (  3.2%)
Finished LeanSCF after   3.2 sec

Maximum memory used throughout the entire LEANSCF-calculation: 26.9 MB


-------------------------------------------------------------------------------
                          DFT DISPERSION CORRECTION                            
                                                                               
                              DFTD3 V3.1  Rev 1                                
                          USING Becke-Johnson damping                          
-------------------------------------------------------------------------------
The BP86 functional is recognized
Active option DFTDOPT                   ...         4   

molecular C6(AA) [au] = 9907.809498 


            DFT-D V3
 parameters
 s6 scaling factor         :     1.0000 
 a1 scaling factor         :     0.3946 
 s8 scaling factor         :     3.2822 
 a2 scaling factor         :     4.8516 
 ad hoc parameters k1-k3   :    16.0000     1.3333    -4.0000 

 Edisp/kcal,au: -36.533574544775  -0.058219950706 
 E6   /kcal   : -13.148041297 
 E8   /kcal   : -23.385533248 
 % E8         :  64.011073483 

-------------------------   ----------------
Dispersion correction           -0.058219951
-------------------------   ----------------


-------------------------   --------------------
FINAL SINGLE POINT ENERGY      -844.187210092096
-------------------------   --------------------

                                *** OPTIMIZATION RUN DONE ***



           ************************************************************
           *        Program running with 6 parallel MPI-processes     *
           *              working on a common directory               *
           ************************************************************

------------------------------------------------------------------------------
                              ORCA PROPERTY CALCULATIONS
------------------------------------------------------------------------------

GBWName                                 ... data/geom_opt_P_BP86/73879/73879.gbw
Number of atoms                         ...     27
Number of basis functions               ...    265
Max core memory                         ...   1024 MB

Electric properties:
Dipole moment                           ... YES
Quadrupole moment                       ...  NO
Static polarizability (Dipole/Dipole)   ...  NO
Static polarizability (Dipole/Quad.)    ...  NO
Static polarizability (Quad./Quad.)     ...  NO
Static polarizability (Velocity)        ...  NO

Atomic electric properties:
Dipole moment                           ...  NO
Quadrupole moment                       ...  NO
Static polarizability                   ...  NO

Choice of electric origin               ... Center of mass
Position of electric origin             ...    -0.000963    -0.059691     0.555434

General magnetic properties:
Magnetizability                         ...  NO

EPR properties:
g-Tensor (aka g-matrix)                 ...  NO
Zero-Field splitting spin-orbit         ...  NO
Zero-field splitting spin-spin          ...  NO
Hyperfine couplings                     ...  NO (   0 nuclei)
Quadrupole couplings                    ...  NO (   0 nuclei)
Contact density                         ...  NO (   0 nuclei)

NMR properties:
Chemical shifts                         ...  NO (   0 nuclei)
Spin-rotation constants                 ...  NO (   0 nuclei)
Spin-spin couplings                     ...  NO (   0 nuclei,    0 pairs)

Choice of magnetic origin               ... GIAO
Position of magnetic origin             ...     0.000000     0.000000     0.000000

Properties with geometric perturbations:
SCF Hessian                             ...  NO
IR spectrum                             ...  NO
VCD spectrum                            ...  NO
X-ray spectroscopy properties:
SCF XES/XAS/RIXS spectra                ...  NO


-------------
DIPOLE MOMENT
-------------

Method             : SCF
Type of density    : Electron Density
Multiplicity       :   1
Irrep              :   0
Energy             :  -844.1289901413896359 Eh
Relativity type    : 
Basis              : AO
                                X                 Y                 Z
Electronic contribution:     -0.024057903       0.112626405       4.589734172
Nuclear contribution   :     -0.046530449      -0.030092697      -5.066790341
                        -----------------------------------------
Total Dipole Moment    :     -0.070588352       0.082533708      -0.477056169
                        -----------------------------------------
Magnitude (a.u.)       :      0.489261808
Magnitude (Debye)      :      1.243604686



--------------------
Rotational spectrum 
--------------------
 
Rotational constants in cm-1:             0.037650             0.013200             0.011433 
Rotational constants in MHz :          1128.733535           395.721823           342.757387 

Dipole components along the rotational axes: 
x,y,z [a.u.] :    -0.073970     0.198162    -0.441177 
x,y,z [Debye]:    -0.188017     0.503688    -1.121383 

 

Dipole moment calculation done in   0.0 sec 

Maximum memory used throughout the entire PROP-calculation: 13.2 MB

--------------------------------
SUGGESTED CITATIONS FOR THIS RUN
--------------------------------

Below you find a list of papers that are relevant to this ORCA run
We neither can nor want to force you to cite these papers, but we appreciate if you do
You receive ORCA, which is the product of decades of hard work by many enthusiastic individuals, for free
The only thing we kindly ask in return is that you cite our papers,
We deeply appreciate it, if you show your appreciation for ORCA by not just citing the generic ORCA reference.

Please note that relegating all ORCA citations to the supporting information does *not* help us.
SI sections are not indexed - citations you put there will not count into any citation statistics
But we need these citations in order to attract the funding resources that allow us to do what we are doing

Therefore, if you are a happy ORCA user, please consider citing a few of the papers listed below in the main body of your paper

In addition to the list printed below, the program has created the file data/geom_opt_P_BP86/73879/73879.bibtex that contains the list in bibtex format
You can import this file easily into all common literature databanks and citation aid programs


List of essential papers. We consider these as the minimum necessary citations

  1. Neese,F.
     Software update: the ORCA program system, version 5.0
     WIRES Comput. Molec. Sci., 2022 12(1)e1606
     doi.org/10.1002/wcms.1606

List of papers to cite with high priority. The work reported in these papers was absolutely
necessary for this run to complete.
Our perspective: the developers of density functionals and basis sets usually get cited in chemistry papers
Good! But without the algorithms to do something with them, the functionals or basis sets would not do anything.
Hence, in our opinion, the algorithm design and method developments papers are equally worthy of getting cited

  1. Neese,F.
     An improvement of the resolution of the identity approximation for the formation of the Coulomb matrix
     J. Comp. Chem., 2003 24(14)1740-1747
     doi.org/10.1002/jcc.10318
  2. Neese,F.
     The SHARK Integral Generation and Digestion System
     J. Comp. Chem., 2022  1-16
     doi.org/10.1002/jcc.26942
  3. Grimme,S.; Antony,J.; Ehrlich,S.; Krieg,H.
     A consistent and accurate ab initio parametrization of density functional dispersion correction (DFT-D) for the 94 elements H-Pu
     J. Chem. Phys., 2010 132 154104-XXXX
     doi.org/10.1063/1.3382344
  4. Grimme,S.; Ehrlich,S.; Goerigk,L.
     Effect of the damping function in dispersion corrected density functional theory
     J. Comput. Chem., 2011 32(7)1456-1465
     doi.org/10.1002/jcc.21759

List of suggested additional citations. These are papers that are important in the 'surrounding' of 
of this run, or papers that preceded the highly important papers. If you like your results we are grateful for a citation.

  1. Neese,F.
     The ORCA program system
     WIRES Comput. Molec. Sci., 2012 2(1)73-78
     doi.org/10.1002/wcms.81
  2. Neese,F.
     Software update: the ORCA program system, version 4.0
     WIRES Comput. Molec. Sci., 2018 8(1)1-6
     doi.org/10.1002/wcms.1327
  3. Neese,F.; Wennmohs,F.; Becker,U.; Riplinger,C.
     The ORCA quantum chemistry program package
     J. Chem. Phys., 2020 152 Art. No. L224108
     doi.org/10.1063/5.0004608

List of optional additional citations

  1. Neese,F.
     Approximate second-order SCF convergence for spin unrestricted wavefunctions
     Chem. Phys. Lett., 2000 325(1-3)93-98
     doi.org/10.1016/s0009-2614(00)00662-x

Timings for individual modules:

Sum of individual times          ...      108.588 sec (=   1.810 min)
Startup calculation              ...       10.767 sec (=   0.179 min)   9.9 %
SCF iterations                   ...       64.057 sec (=   1.068 min)  59.0 %
Property calculations            ...        0.151 sec (=   0.003 min)   0.1 %
SCF Gradient evaluation          ...       33.503 sec (=   0.558 min)  30.9 %
Geometry relaxation              ...        0.110 sec (=   0.002 min)   0.1 %
                             ****ORCA TERMINATED NORMALLY****
TOTAL RUN TIME: 0 days 0 hours 1 minutes 50 seconds 591 msec
