
                                 *****************
                                 * O   R   C   A *
                                 *****************

                                            #,                                       
                                            ###                                      
                                            ####                                     
                                            #####                                    
                                            ######                                   
                                           ########,                                 
                                     ,,################,,,,,                         
                               ,,#################################,,                 
                          ,,##########################################,,             
                       ,#########################################, ''#####,          
                    ,#############################################,,   '####,        
                  ,##################################################,,,,####,       
                ,###########''''           ''''###############################       
              ,#####''   ,,,,##########,,,,          '''####'''          '####       
            ,##' ,,,,###########################,,,                        '##       
           ' ,,###''''                  '''############,,,                           
         ,,##''                                '''############,,,,        ,,,,,,###''
      ,#''                                            '''#######################'''  
     '                                                          ''''####''''         
             ,#######,   #######,   ,#######,      ##                                
            ,#'     '#,  ##    ##  ,#'     '#,    #''#        ,####,   ,####,        
            ##       ##  ##   ,#'  ##            #'  '#       #'       #'  '#        
            ##       ##  #######   ##           ,######,      #####,   #    #        
            '#,     ,#'  ##    ##  '#,     ,#' ,#      #,     #,   #   #,  ,#        
             '#######'   ##     ##  '#######'  #'      '#     '####' # '####'        



                #########################################################
                #                        -***-                          #
                #          Department of theory and spectroscopy        #
                #                                                       #
                #                      Frank Neese                      #
                #                                                       #
                #     Directorship, Architecture, Infrastructure        #
                #                    SHARK, DRIVERS                     #
                #        Core code/Algorithms in most modules           #
                #                                                       #
                #        Max Planck Institute fuer Kohlenforschung      #
                #                Kaiser Wilhelm Platz 1                 #
                #                 D-45470 Muelheim/Ruhr                 #
                #                      Germany                          #
                #                                                       #
                #                  All rights reserved                  #
                #                        -***-                          #
                #########################################################


                         Program Version 6.0.0  -   RELEASE   -


 With contributions from (in alphabetic order):
   Daniel Aravena         : Magnetic Suceptibility
   Michael Atanasov       : Ab Initio Ligand Field Theory (pilot matlab implementation)
   Alexander A. Auer      : GIAO ZORA, VPT2 properties, NMR spectrum
   Ute Becker             : All parallelization in ORCA, NUMFREQ, NUMCALC
   Giovanni Bistoni       : ED, misc. LED, open-shell LED, HFLD
   Martin Brehm           : Molecular dynamics
   Dmytro Bykov           : pre 5.0 version of the SCF Hessian
   Marcos Casanova-Páez   : Triplet and SCS-CIS(D). UHF-(DLPNO)-IP/EA/STEOM-CCSD. UHF-CVS-IP/STEOM-CCSD
   Vijay G. Chilkuri      : MRCI spin determinant printing, contributions to CSF-ICE
   Pauline Colinet        : FMM embedding
   Dipayan Datta          : RHF DLPNO-CCSD density
   Achintya Kumar Dutta   : EOM-CC, STEOM-CC
   Nicolas Foglia         : Exact transition moments, OPA infrastructure, MCD improvements
   Dmitry Ganyushin       : Spin-Orbit,Spin-Spin,Magnetic field MRCI
   Miquel Garcia          : C-PCM and meta-GGA Hessian, CCSD/C-PCM, Gaussian charge scheme
   Tiago L. C. Gouveia    : GS-ROHF, GS-ROCIS
   Yang Guo               : DLPNO-NEVPT2, F12-NEVPT2, CIM, IAO-localization
   Andreas Hansen         : Spin unrestricted coupled pair/coupled cluster methods
   Ingolf Harden          : AUTO-CI MPn and infrastructure 
   Benjamin Helmich-Paris : MC-RPA, TRAH-(SCF,CASSCF), AVAS, COSX integrals, SCF dyn. polar.
   Lee Huntington         : MR-EOM, pCC
   Robert Izsak           : Overlap fitted RIJCOSX, COSX-SCS-MP3, EOM
   Riya Kayal             : Wick's Theorem for AUTO-CI, AUTO-CI UHF-CCSDT
   Emily Kempfer          : AUTO-CI, RHF CISDT and CCSDT
   Christian Kollmar      : KDIIS, OOCD, Brueckner-CCSD(T), CCSD density, CASPT2, CASPT2-K, improved NEVPT2
   Axel Koslowski         : Symmetry handling
   Simone Kossmann        : Meta GGA functionals, TD-DFT gradient, OOMP2, (MP2 Hessian; deprecated post 5.0)
   Lucas Lang             : DCDCAS
   Marvin Lechner         : AUTO-CI (C++ implementation), FIC-MRCC
   Spencer Leger          : CASSCF response
   Dagmar Lenk            : GEPOL surface, SMD, ORCA-2-JSON
   Dimitrios Liakos       : Extrapolation schemes; Compound Job, initial MDCI parallelization
   Dimitrios Manganas     : Further ROCIS development; embedding schemes. LFT, Crystal Embedding
   Dimitrios Pantazis     : SARC Basis sets
   Anastasios Papadopoulos: AUTO-CI, single reference methods and gradients
   Taras Petrenko         : pre 6.0 DFT Hessian and TD-DFT gradient, (ASA, deprecated), ECA, 1-Electron XAS/XES, NRVS
   Peter Pinski           : DLPNO-MP2, DLPNO-MP2 Gradient
   Christoph Reimann      : Effective Core Potentials
   Marius Retegan         : Local ZFS, SOC
   Christoph Riplinger    : Optimizer, TS searches, QM/MM, DLPNO-CCSD(T), (RO)-DLPNO pert. Triples
   Michael Roemelt        : Original ROCIS implementation
   Masaaki Saitow         : Open-shell DLPNO-CCSD energy and density
   Barbara Sandhoefer     : DKH picture change effects
   Kantharuban Sivalingam : CASSCF convergence/infrastructure, NEVPT2 and variants, FIC-MRCI
   Bernardo de Souza      : ESD, SOC TD-DFT
   Georgi Stoychev        : AutoAux, RI-MP2 NMR, DLPNO-MP2 response, X2C
   Van Anh Tran           : RI-MP2 g-tensors
   Willem Van den Heuvel  : Paramagnetic NMR
   Zikuan Wang            : NOTCH, Electric field optimization 
   Frank Wennmohs         : Technical directorship and infrastructure
   Hang Xu                : AUTO-CI-Response properties 


 We gratefully acknowledge several colleagues who have allowed us to
 interface, adapt or use parts of their codes:
   Stefan Grimme, W. Hujo, H. Kruse, P. Pracht,  : VdW corrections, initial TS optimization,
                  C. Bannwarth, S. Ehlert,         DFT functionals, gCP, sTDA/sTD-DF
                  L. Wittmann, M. Mueller
   Ed Valeev, F. Pavosevic, A. Kumar             : LibInt (2-el integral package), F12 methods
   Garnet Chan, S. Sharma, J. Yang, R. Olivares  : DMRG
   Ulf Ekstrom                                   : XCFun DFT Library
   Mihaly Kallay                                 : mrcc  (arbitrary order and MRCC methods)
   Frank Weinhold                                : gennbo (NPA and NBO analysis)
   Simon Mueller                                 : openCOSMO-RS
   Christopher J. Cramer and Donald G. Truhlar   : smd solvation model
   Lars Goerigk                                  : TD-DFT with DH, B97 family of functionals
   V. Asgeirsson, H. Jonsson                     : NEB implementation
   FAccTs GmbH                                   : IRC, NEB, NEB-TS, DLPNO-Multilevel, CI-OPT
                                                   MM, QMMM, 2- and 3-layer-ONIOM, Crystal-QMMM,
                                                   LR-CPCM, SF, NACMEs, symmetry and pop. for TD-DFT,
                                                   nearIR, NL-DFT gradient (VV10), updates on ESD,
                                                   ML-optimized integration grids, MBIS, APM,
                                                   GOAT, DOCKER, SOLVATOR, interface openCOSMO-RS
   S Lehtola, MJT Oliveira, MAL Marques          : LibXC Library
   Liviu Ungur et al                             : ANISO software


 Your calculation uses the libint2 library for the computation of 2-el integrals
 For citations please refer to: http://libint.valeyev.net

 Your ORCA version has been built with support for libXC version: 6.2.2
 For citations please refer to: https://libxc.gitlab.io

 This ORCA versions uses:
   CBLAS   interface :  Fast vector & matrix operations
   LAPACKE interface :  Fast linear algebra routines
   Shared memory     :  Shared parallel matrices


Your calculation utilizes the atom-pairwise dispersion correction
with the zero-damping scheme (D30)


XCFun DFT library Copyright 2009-2010 Ulf Ekstrom and contributors.
See http://admol.org/xcfun for more information.
This is free software; see the source code for copying conditions.
There is ABSOLUTELY NO WARRANTY; not even for MERCHANTABILITY or FITNESS FOR A PARTICULAR PURPOSE.
For details see the documentation.
Scientific users of this library should cite U. Ekstrom, L. Visscher, R. Bast, A. J. Thorvaldsen and K. Ruud;
J.Chem.Theor.Comp. 2010, DOI: 10.1021/ct100117s
XCFun Version 0.99 

Warning: RI is on but no J-basis has been assigned. Assigning Def2/J (nothing to worry about!)
================================================================================

----- Orbital basis set information -----
Your calculation utilizes the basis: def2-TZVP
   F. Weigend and R. Ahlrichs, Phys. Chem. Chem. Phys. 7, 3297 (2005).

----- AuxJ basis set information -----
Your calculation utilizes the auxiliary basis: def2/J
   F. Weigend, Phys. Chem. Chem. Phys. 8, 1057 (2006).

================================================================================
                                        WARNINGS
                       Please study these warnings very carefully!
================================================================================

WARNING: Functional chosen is sensitive to the integration grid.
         DEFGRID3 seems to be a minimum grid for robust results!

================================================================================
                                       INPUT FILE
================================================================================
NAME = data/single_point_P_M06-2x/80969/80969.inp
|  1> ! RIJCOSX M062X def2-TZVP D3ZERO NormalSCF
|  2> %pal
|  3> nprocs 6
|  4> end
|  5> 
|  6> * xyz 0 1
|  7>   C           2.29738920432803      1.44488851567289      0.44990166834090
|  8>   C           1.65378445849771      0.12386714593170     -0.00209224993080
|  9>   C           2.58268507584003     -1.06399568295329      0.29060240819459
| 10>   P           0.01076027110784     -0.09354422989086      0.91008496738881
| 11>   C          -1.14906329821635      1.14714597749450      0.03982469459980
| 12>   C          -1.37399642492346      2.36038055207586      0.95891159882804
| 13>   C          -0.77812499781222      1.58903541213541     -1.38273168037169
| 14>   C          -0.61079813684263     -1.75491718059715      0.23555379946664
| 15>   C          -0.70206821241127     -1.91092634300411     -1.28664839375429
| 16>   C          -1.93934865439235     -2.10696857403283      0.92351525751725
| 17>   H           1.66184424745667      2.32373223074462      0.22104754857755
| 18>   H           3.27455297254350      1.60030042269165     -0.05571656931699
| 19>   H           2.47761065402245      1.44219696920796      1.54540140291449
| 20>   H           1.47073613759867      0.17051298117050     -1.09779411335788
| 21>   H           2.20813901324541     -2.01129548481710     -0.14579520464934
| 22>   H           3.59249378418249     -0.88063774219175     -0.13453012857845
| 23>   H           2.70395401047891     -1.21852971152604      1.38424199361878
| 24>   H          -2.10969931094496      0.58633867224906     -0.01371830771409
| 25>   H          -1.69847969250944      2.04948136938776      1.97198308902063
| 26>   H          -2.14657241250074      3.03996790179047      0.53865792576555
| 27>   H          -0.44282866593099      2.95321162791988      1.07984545487202
| 28>   H           0.15244285943502      2.19264231039507     -1.39558991400856
| 29>   H          -1.58203400326397      2.22859929585203     -1.80720773255066
| 30>   H          -0.63323943176339      0.73592346607893     -2.07185810250248
| 31>   H           0.15666314739479     -2.46537963670117      0.61675099034316
| 32>   H           0.24702648193825     -1.64969632995840     -1.79673967202545
| 33>   H          -0.94793527543348     -2.96019184618876     -1.55941509285193
| 34>   H          -1.50311531532304     -1.27090369786369     -1.71045358240171
| 35>   H          -1.85849404443949     -2.03597993300280      2.02710329080133
| 36>   H          -2.75657601068783     -1.42608702819165      0.60221206117490
| 37>   H          -2.25770643067418     -3.13917442987868      0.66465059258987
| 38> **                         ****END OF INPUT****
================================================================================

                       ****************************
                       * Single Point Calculation *
                       ****************************

---------------------------------
CARTESIAN COORDINATES (ANGSTROEM)
---------------------------------
  C      2.297389    1.444889    0.449902
  C      1.653784    0.123867   -0.002092
  C      2.582685   -1.063996    0.290602
  P      0.010760   -0.093544    0.910085
  C     -1.149063    1.147146    0.039825
  C     -1.373996    2.360381    0.958912
  C     -0.778125    1.589035   -1.382732
  C     -0.610798   -1.754917    0.235554
  C     -0.702068   -1.910926   -1.286648
  C     -1.939349   -2.106969    0.923515
  H      1.661844    2.323732    0.221048
  H      3.274553    1.600300   -0.055717
  H      2.477611    1.442197    1.545401
  H      1.470736    0.170513   -1.097794
  H      2.208139   -2.011295   -0.145795
  H      3.592494   -0.880638   -0.134530
  H      2.703954   -1.218530    1.384242
  H     -2.109699    0.586339   -0.013718
  H     -1.698480    2.049481    1.971983
  H     -2.146572    3.039968    0.538658
  H     -0.442829    2.953212    1.079845
  H      0.152443    2.192642   -1.395590
  H     -1.582034    2.228599   -1.807208
  H     -0.633239    0.735923   -2.071858
  H      0.156663   -2.465380    0.616751
  H      0.247026   -1.649696   -1.796740
  H     -0.947935   -2.960192   -1.559415
  H     -1.503115   -1.270904   -1.710454
  H     -1.858494   -2.035980    2.027103
  H     -2.756576   -1.426087    0.602212
  H     -2.257706   -3.139174    0.664651

----------------------------
CARTESIAN COORDINATES (A.U.)
----------------------------
  NO LB      ZA    FRAG     MASS         X           Y           Z
   0 C     6.0000    0    12.011    4.341436    2.730444    0.850191
   1 C     6.0000    0    12.011    3.125200    0.234075   -0.003954
   2 C     6.0000    0    12.011    4.880567   -2.010660    0.549159
   3 P    15.0000    0    30.974    0.020334   -0.176773    1.719811
   4 C     6.0000    0    12.011   -2.171415    2.167792    0.075258
   5 C     6.0000    0    12.011   -2.596477    4.460473    1.812080
   6 C     6.0000    0    12.011   -1.470443    3.002842   -2.612984
   7 C     6.0000    0    12.011   -1.154241   -3.316313    0.445132
   8 C     6.0000    0    12.011   -1.326717   -3.611127   -2.431413
   9 C     6.0000    0    12.011   -3.664838   -3.981594    1.745191
  10 H     1.0000    0     1.008    3.140431    4.391218    0.417719
  11 H     1.0000    0     1.008    6.188008    3.024130   -0.105289
  12 H     1.0000    0     1.008    4.682006    2.725357    2.920385
  13 H     1.0000    0     1.008    2.779289    0.322223   -2.074530
  14 H     1.0000    0     1.008    4.172778   -3.800798   -0.275513
  15 H     1.0000    0     1.008    6.788829   -1.664164   -0.254225
  16 H     1.0000    0     1.008    5.109733   -2.302687    2.615838
  17 H     1.0000    0     1.008   -3.986754    1.108020   -0.025924
  18 H     1.0000    0     1.008   -3.209661    3.872959    3.726508
  19 H     1.0000    0     1.008   -4.056434    5.744707    1.017916
  20 H     1.0000    0     1.008   -0.836825    5.580761    2.040612
  21 H     1.0000    0     1.008    0.288075    4.143493   -2.637283
  22 H     1.0000    0     1.008   -2.989611    4.211442   -3.415128
  23 H     1.0000    0     1.008   -1.196649    1.390694   -3.915244
  24 H     1.0000    0     1.008    0.296050   -4.658892    1.165490
  25 H     1.0000    0     1.008    0.466812   -3.117474   -3.395346
  26 H     1.0000    0     1.008   -1.791338   -5.593952   -2.946867
  27 H     1.0000    0     1.008   -2.840476   -2.401660   -3.232289
  28 H     1.0000    0     1.008   -3.512045   -3.847444    3.830670
  29 H     1.0000    0     1.008   -5.209174   -2.694914    1.138016
  30 H     1.0000    0     1.008   -4.266447   -5.932180    1.256008

--------------------------------
INTERNAL COORDINATES (ANGSTROEM)
--------------------------------
 C      0   0   0     0.000000000000     0.00000000     0.00000000
 C      1   0   0     1.537407893281     0.00000000     0.00000000
 C      2   1   0     1.536080928871   110.81133113     0.00000000
 P      2   1   3     1.891788429630   108.69745609   121.17555201
 C      4   2   1     1.908364704415   103.48786972    74.58071953
 C      5   4   2     1.538588243155   109.21388699   254.35552535
 C      5   4   2     1.535098737908   117.57308712    22.25993455
 C      4   2   1     1.897758475763   102.33809819   180.33017841
 C      8   4   2     1.532895496274   117.48745486   306.38031626
 C      8   4   2     1.536970275921   108.93752600   178.12856168
 H      1   2   3     1.108448409200   112.36708049   178.17012797
 H      1   2   3     1.111148816770   110.76584841    58.02015095
 H      1   2   3     1.110228212487   110.85287663   298.32987867
 H      2   1   3     1.111865592258   108.81994050   240.59641385
 H      3   2   1     1.108198783663   112.43368877   187.72473318
 H      3   2   1     1.110887679159   110.43460306   307.55471694
 H      3   2   1     1.111141063638   111.16733647    66.76762589
 H      5   4   2     1.113639634561   102.63789945   140.56420524
 H      6   5   4     1.108269613849   111.57033198   308.13492018
 H      6   5   4     1.111452100720   110.97107297   187.29033712
 H      6   5   4     1.110471556327   111.31099402    67.84096698
 H      7   5   4     1.109262439074   111.72127481   293.02598238
 H      7   5   4     1.111526684014   110.16685630   174.47369966
 H      7   5   4     1.106203889630   112.76453678    54.38281903
 H      8   4   2     1.113132976184   102.19381324    64.87314979
 H      9   8   4     1.108699675623   112.45276781    52.47446603
 H      9   8   4     1.111670086397   110.66384872   172.56927919
 H      9   8   4     1.109466667052   111.32167349   291.33018692
 H     10   8   4     1.108820725958   111.58004402   308.95984700
 H     10   8   4     1.111168742957   111.46594034    69.27286514
 H     10   8   4     1.110770686195   110.87213213   188.27653700

---------------------------
INTERNAL COORDINATES (A.U.)
---------------------------
 C      0   0   0     0.000000000000     0.00000000     0.00000000
 C      1   0   0     2.905279874430     0.00000000     0.00000000
 C      2   1   0     2.902772275105   110.81133113     0.00000000
 P      2   1   3     3.574962035322   108.69745609   121.17555201
 C      4   2   1     3.606286654986   103.48786972    74.58071953
 C      5   4   2     2.907510412433   109.21388699   254.35552535
 C      5   4   2     2.900916203174   117.57308712    22.25993455
 C      4   2   1     3.586243787520   102.33809819   180.33017841
 C      8   4   2     2.896752679878   117.48745486   306.38031626
 C      8   4   2     2.904452897468   108.93752600   178.12856168
 H      1   2   3     2.094663926969   112.36708049   178.17012797
 H      1   2   3     2.099766957725   110.76584841    58.02015095
 H      1   2   3     2.098027267754   110.85287663   298.32987867
 H      2   1   3     2.101121467097   108.81994050   240.59641385
 H      3   2   1     2.094192203068   112.43368877   187.72473318
 H      3   2   1     2.099273479158   110.43460306   307.55471694
 H      3   2   1     2.099752306429   111.16733647    66.76762589
 H      5   4   2     2.104473921200   102.63789945   140.56420524
 H      6   5   4     2.094326052721   111.57033198   308.13492018
 H      6   5   4     2.100340081333   110.97107297   187.29033712
 H      6   5   4     2.098487120967   111.31099402    67.84096698
 H      7   5   4     2.096202220496   111.72127481   293.02598238
 H      7   5   4     2.100481023332   110.16685630   174.47369966
 H      7   5   4     2.090422399679   112.76453678    54.38281903
 H      8   4   2     2.103516475625   102.19381324    64.87314979
 H      9   8   4     2.095138751695   112.45276781    52.47446603
 H      9   8   4     2.100752014562   110.66384872   172.56927919
 H      9   8   4     2.096588155443   111.32167349   291.33018692
 H     10   8   4     2.095367503676   111.58004402   308.95984700
 H     10   8   4     2.099804612762   111.46594034    69.27286514
 H     10   8   4     2.099052394496   110.87213213   188.27653700

---------------------
BASIS SET INFORMATION
---------------------
There are 3 groups of distinct atoms

 Group   1 Type C   : 11s6p2d1f contracted to 5s3p2d1f pattern {62111/411/11/1}
 Group   2 Type P   : 14s9p3d1f contracted to 5s5p2d1f pattern {73211/51111/21/1}
 Group   3 Type H   : 5s1p contracted to 3s1p pattern {311/1}

Atom   0C    basis set group =>   1
Atom   1C    basis set group =>   1
Atom   2C    basis set group =>   1
Atom   3P    basis set group =>   2
Atom   4C    basis set group =>   1
Atom   5C    basis set group =>   1
Atom   6C    basis set group =>   1
Atom   7C    basis set group =>   1
Atom   8C    basis set group =>   1
Atom   9C    basis set group =>   1
Atom  10H    basis set group =>   3
Atom  11H    basis set group =>   3
Atom  12H    basis set group =>   3
Atom  13H    basis set group =>   3
Atom  14H    basis set group =>   3
Atom  15H    basis set group =>   3
Atom  16H    basis set group =>   3
Atom  17H    basis set group =>   3
Atom  18H    basis set group =>   3
Atom  19H    basis set group =>   3
Atom  20H    basis set group =>   3
Atom  21H    basis set group =>   3
Atom  22H    basis set group =>   3
Atom  23H    basis set group =>   3
Atom  24H    basis set group =>   3
Atom  25H    basis set group =>   3
Atom  26H    basis set group =>   3
Atom  27H    basis set group =>   3
Atom  28H    basis set group =>   3
Atom  29H    basis set group =>   3
Atom  30H    basis set group =>   3
---------------------------------
AUXILIARY/J BASIS SET INFORMATION
---------------------------------
There are 3 groups of distinct atoms

 Group   1 Type C   : 12s5p4d2f1g contracted to 6s4p3d1f1g pattern {711111/2111/211/2/1}
 Group   2 Type P   : 14s5p5d2f1g contracted to 8s4p3d1f1g pattern {71111111/2111/311/2/1}
 Group   3 Type H   : 5s2p1d contracted to 3s1p1d pattern {311/2/1}

Atom   0C    basis set group =>   1
Atom   1C    basis set group =>   1
Atom   2C    basis set group =>   1
Atom   3P    basis set group =>   2
Atom   4C    basis set group =>   1
Atom   5C    basis set group =>   1
Atom   6C    basis set group =>   1
Atom   7C    basis set group =>   1
Atom   8C    basis set group =>   1
Atom   9C    basis set group =>   1
Atom  10H    basis set group =>   3
Atom  11H    basis set group =>   3
Atom  12H    basis set group =>   3
Atom  13H    basis set group =>   3
Atom  14H    basis set group =>   3
Atom  15H    basis set group =>   3
Atom  16H    basis set group =>   3
Atom  17H    basis set group =>   3
Atom  18H    basis set group =>   3
Atom  19H    basis set group =>   3
Atom  20H    basis set group =>   3
Atom  21H    basis set group =>   3
Atom  22H    basis set group =>   3
Atom  23H    basis set group =>   3
Atom  24H    basis set group =>   3
Atom  25H    basis set group =>   3
Atom  26H    basis set group =>   3
Atom  27H    basis set group =>   3
Atom  28H    basis set group =>   3
Atom  29H    basis set group =>   3
Atom  30H    basis set group =>   3


           ************************************************************
           *        Program running with 6 parallel MPI-processes     *
           *              working on a common directory               *
           ************************************************************
------------------------------------------------------------------------------
                             ORCA STARTUP CALCULATIONS
                           -- RI-GTO INTEGRALS CHOSEN --
------------------------------------------------------------------------------
------------------------------------------------------------------------------
                   ___                                                        
                  /   \      - P O W E R E D   B Y -                         
                 /     \                                                     
                 |  |  |   _    _      __       _____    __    __             
                 |  |  |  | |  | |    /  \     |  _  \  |  |  /  |          
                  \  \/   | |  | |   /    \    | | | |  |  | /  /          
                 / \  \   | |__| |  /  /\  \   | |_| |  |  |/  /          
                |  |  |   |  __  | /  /__\  \  |    /   |      \           
                |  |  |   | |  | | |   __   |  |    \   |  |\   \          
                \     /   | |  | | |  |  |  |  | |\  \  |  | \   \       
                 \___/    |_|  |_| |__|  |__|  |_| \__\ |__|  \__/        
                                                                              
                      - O R C A' S   B I G   F R I E N D -                    
                                      &                                       
                       - I N T E G R A L  F E E D E R -                       
                                                                              
 v1 FN, 2020, v2 2021, v3 2022-2024                                           
------------------------------------------------------------------------------


----------------------
SHARK INTEGRAL PACKAGE
----------------------

Number of atoms                             ...     31
Number of basis functions                   ...    442
Number of shells                            ...    196
Maximum angular momentum                    ...      3
Integral batch strategy                     ... SHARK/LIBINT Hybrid
RI-J (if used) integral strategy            ... SPLIT-RIJ (Revised 2003 algorithm where possible)
Printlevel                                  ...      1
Contraction scheme used                     ... SEGMENTED contraction
Prescreening option                         ... SCHWARTZ
   Thresh                                   ... 1.000e-10
   Tcut                                     ... 1.000e-11
   Tpresel                                  ... 1.000e-11 
Coulomb Range Separation                    ... NOT USED
Exchange Range Separation                   ... NOT USED
Multipole approximations                    ... NOT USED
Finite Nucleus Model                        ... NOT USED
CABS basis                                  ... NOT available
Auxiliary Coulomb fitting basis             ... AVAILABLE
   # of basis functions in Aux-J            ...    723
   # of shells in Aux-J                     ...    257
   Maximum angular momentum in Aux-J        ...      4
Auxiliary J/K fitting basis                 ... NOT available
Auxiliary Correlation fitting basis         ... NOT available
Auxiliary 'external' fitting basis          ... NOT available

Checking pre-screening integrals            ... done (  0.0 sec) Dimension = 196
Check shell pair data                       ... done (  0.0 sec)
Shell pair information
Shell pair cut-off parameter TPreSel        ...   1.0e-11
Total number of shell pairs                 ...     19306
Shell pairs after pre-screening             ...     16641
Total number of primitive shell pairs       ...     55908
Primitive shell pairs kept                  ...     34520
          la=0 lb=0:   5422 shell pairs
          la=1 lb=0:   5126 shell pairs
          la=1 lb=1:   1247 shell pairs
          la=2 lb=0:   2010 shell pairs
          la=2 lb=1:    954 shell pairs
          la=2 lb=2:    198 shell pairs
          la=3 lb=0:    966 shell pairs
          la=3 lb=1:    477 shell pairs
          la=3 lb=2:    188 shell pairs
          la=3 lb=3:     53 shell pairs

Calculating one electron integrals          ... done (  0.0 sec)
Calculating RI/J V-Matrix + Cholesky decomp.... done (  0.0 sec)
Calculating Nuclear repulsion               ... done (  0.0 sec) ENN=    697.890032325373 Eh

Diagonalization of the overlap matrix:
Smallest eigenvalue                        ... 2.209e-04
Time for diagonalization                   ...    0.027 sec
Threshold for overlap eigenvalues          ... 1.000e-07
Number of eigenvalues below threshold      ... 0
Time for construction of square roots      ...    0.015 sec
Total time needed                          ...    0.045 sec

-------------------
DFT GRID GENERATION
-------------------

General Integration Accuracy     IntAcc      ... 4.388
Radial Grid Type                 RadialGrid  ... OptM3 with GC (2021)
Angular Grid (max. ang.)         AngularGrid ... 4 (Lebedev-302)
Angular grid pruning method      GridPruning ... 4 (adaptive)
Weight generation scheme         WeightScheme... mBecke (2022)
Basis function cutoff            BFCut       ... 1.0000e-10
Integration weight cutoff        WCut        ... 1.0000e-14
Partially contracted basis set               ... off
Rotationally invariant grid construction     ... off
Angular grids for H and He will be reduced by one unit

Total number of grid points                  ...   127487
Total number of batches                      ...     2010
Average number of points per batch           ...       63
Average number of grid points per atom       ...     4112

--------------------
COSX GRID GENERATION
--------------------

GRIDX 1
-------
General Integration Accuracy     IntAcc      ... 3.816
Radial Grid Type                 RadialGrid  ... OptM3 with GC (2021)
Angular Grid (max. ang.)         AngularGrid ... 1 (Lebedev-50)
Angular grid pruning method      GridPruning ... 4 (adaptive)
Weight generation scheme         WeightScheme... mBecke (2022)
Basis function cutoff            BFCut       ... 1.0000e-10
Integration weight cutoff        WCut        ... 1.0000e-14
Partially contracted basis set               ... on
Rotationally invariant grid construction     ... off
Angular grids for H and He will be reduced by one unit

Total number of grid points                  ...    17308
Total number of batches                      ...      152
Average number of points per batch           ...      113
Average number of grid points per atom       ...      558
UseSFitting                                  ... on

GRIDX 2
-------
General Integration Accuracy     IntAcc      ... 4.020
Radial Grid Type                 RadialGrid  ... OptM3 with GC (2021)
Angular Grid (max. ang.)         AngularGrid ... 2 (Lebedev-110)
Angular grid pruning method      GridPruning ... 4 (adaptive)
Weight generation scheme         WeightScheme... mBecke (2022)
Basis function cutoff            BFCut       ... 1.0000e-10
Integration weight cutoff        WCut        ... 1.0000e-14
Partially contracted basis set               ... on
Rotationally invariant grid construction     ... off
Angular grids for H and He will be reduced by one unit

Total number of grid points                  ...    33246
Total number of batches                      ...      276
Average number of points per batch           ...      120
Average number of grid points per atom       ...     1072
UseSFitting                                  ... on

GRIDX 3
-------
General Integration Accuracy     IntAcc      ... 4.338
Radial Grid Type                 RadialGrid  ... OptM3 with GC (2021)
Angular Grid (max. ang.)         AngularGrid ... 3 (Lebedev-194)
Angular grid pruning method      GridPruning ... 4 (adaptive)
Weight generation scheme         WeightScheme... mBecke (2022)
Basis function cutoff            BFCut       ... 1.0000e-10
Integration weight cutoff        WCut        ... 1.0000e-14
Partially contracted basis set               ... on
Rotationally invariant grid construction     ... off
Angular grids for H and He will be reduced by one unit

Total number of grid points                  ...    72427
Total number of batches                      ...      581
Average number of points per batch           ...      124
Average number of grid points per atom       ...     2336
UseSFitting                                  ... on
Initializing property integral containers    ... done (  0.0 sec)

SHARK setup successfully completed in   2.1 seconds

Maximum memory used throughout the entire STARTUP-calculation: 46.1 MB


           ************************************************************
           *        Program running with 6 parallel MPI-processes     *
           *              working on a common directory               *
           ************************************************************
-------------------------------------------------------------------------------
                                 ORCA GUESS
                   Start orbitals & Density for SCF / CASSCF
-------------------------------------------------------------------------------

------------
SCF SETTINGS
------------
Hamiltonian:
 Density Functional     Method          .... DFT(GTOs)
 Exchange Functional    Exchange        .... M062X
 Correlation Functional Correlation     .... M062X
 Gradients option       PostSCFGGA      .... off
 Hybrid DFT is turned on
   Fraction HF Exchange ScalHFX         ....  0.540000
   Scaling of DF-GGA-X  ScalDFX         ....  0.460000
   Scaling of DF-GGA-C  ScalDFC         ....  1.000000
   Scaling of DF-LDA-C  ScalLDAC        ....  1.000000
   Perturbative correction              ....  0.000000
 RI-approximation to the Coulomb term is turned on
   Number of AuxJ basis functions       .... 723
   RIJ-COSX (HFX calculated with COS-X)).... on


General Settings:
 Integral files         IntName         .... data/single_point_P_M06-2x/80969/80969
 Hartree-Fock type      HFTyp           .... RHF
 Total Charge           Charge          ....    0
 Multiplicity           Mult            ....    1
 Number of Electrons    NEL             ....   90
 Basis Dimension        Dim             ....  442
 Nuclear Repulsion      ENuc            ....    697.8900323254 Eh

Convergence Acceleration:
 AO-DIIS                CNVDIIS         .... on
   Start iteration      DIISMaxIt       ....    12
   Startup error        DIISStart       ....  0.200000
   # of expansion vecs  DIISMaxEq       ....     5
   Bias factor          DIISBfac        ....   1.050
   Max. coefficient     DIISMaxC        ....  10.000
 MO-DIIS                CNVKDIIS        .... off
 Trust-Rad. Augm. Hess. CNVTRAH         .... auto
   Auto Start mean grad. ratio tolernc. ....  1.125000
   Auto Start start iteration           ....    50
   Auto Start num. interpolation iter.  ....    10
   Max. Number of Micro iterations      ....    24
   Max. Number of Macro iterations      .... Maxiter - #DIIS iter
   Number of Davidson start vectors     ....     2
   Converg. threshold    (grad. norm)   ....   5.000e-05
   Grad. Scal. Fac. for Micro threshold ....   0.100
   Minimum threshold for Micro iter.    ....   1.000e-02
   NR start threshold (gradient norm)   ....   1.000e-04
   Initial trust radius                 ....   0.400
   Minimum AH scaling param. (alpha)    ....   1.000
   Maximum AH scaling param. (alpha)    .... 1000.000
   Quad. conv. algorithm                .... NR
   White noise on init. David. guess    .... on
   Maximum white noise                  ....   0.010
   Pseudo random numbers                .... off
   Inactive MOs                         .... canonical
   Orbital update algorithm             .... Taylor
   Preconditioner                       .... Diag
   Full preconditioner red. dimension   ....   250
 SOSCF                  CNVSOSCF        .... on
   Start iteration      SOSCFMaxIt      ....   150
   Startup grad/error   SOSCFStart      ....  0.003300
   Hessian update       SOSCFHessUp     .... L-BFGS
 Level Shifting         CNVShift        .... on
   Level shift para.    LevelShift      ....    0.2500
   Turn off err/grad.   ShiftErr        ....    0.0010
 Zerner damping         CNVZerner       .... off
 Static damping         CNVDamp         .... on
   Fraction old density DampFac         ....    0.7000
   Max. Damping (<1)    DampMax         ....    0.9800
   Min. Damping (>=0)   DampMin         ....    0.0000
   Turn off err/grad.   DampErr         ....    0.1000

SCF Procedure:
 Maximum # iterations   MaxIter         ....   125
 SCF integral mode      SCFMode         .... Direct
   Integral package                     .... SHARK and LIBINT hybrid scheme
 Reset frequency        DirectResetFreq ....    20
 Integral Threshold     Thresh          ....  1.000e-10 Eh
 Primitive CutOff       TCut            ....  1.000e-11 Eh

Convergence Tolerance:
 Convergence Check Mode ConvCheckMode   .... Total+1el-Energy
 Convergence forced     ConvForced      .... 0
 Energy Change          TolE            ....  1.000e-06 Eh
 1-El. energy change                    ....  1.000e-03 Eh
 Orbital Gradient       TolG            ....  5.000e-05
 Orbital Rotation angle TolX            ....  5.000e-05
 DIIS Error             TolErr          ....  1.000e-05

------------------------------
INITIAL GUESS: MODEL POTENTIAL
------------------------------
Loading Hartree-Fock densities                     ... done
Calculating cut-offs                               ... done
Initializing the effective Hamiltonian             ... done
Setting up the integral package (SHARK)            ... done
Starting the Coulomb interaction                   ... done (   0.2 sec)
Making the grid                                    ... done (   0.2 sec)
Mapping shells                                     ... done
Starting the XC term evaluation                    ... done (   0.2 sec)
  promolecular density results
     # of electrons  =     89.995667190
     EX              =    -74.681749156
     EC              =     -3.009986322
     EX+EC           =    -77.691735478
Transforming the Hamiltonian                       ... done (   0.0 sec)
Diagonalizing the Hamiltonian                      ... done (   0.0 sec)
Back transforming the eigenvectors                 ... done (   0.0 sec)
Now organizing SCF variables                       ... done
                      ------------------
                      INITIAL GUESS DONE (   0.6 sec)
                      ------------------
             **** ENERGY FILE WAS UPDATED (data/single_point_P_M06-2x/80969/80969.en.tmp) ****
Finished Guess after   0.8 sec
Maximum memory used throughout the entire GUESS-calculation: 30.6 MB


           ************************************************************
           *        Program running with 6 parallel MPI-processes     *
           *              working on a common directory               *
           ************************************************************

-------------------------------------------------------------------------------------------
                                      ORCA LEAN-SCF
                              memory conserving SCF solver
-------------------------------------------------------------------------------------------

----------------------------------------D-I-I-S--------------------------------------------
Iteration    Energy (Eh)           Delta-E    RMSDP     MaxDP     DIISErr   Damp  Time(sec)
-------------------------------------------------------------------------------------------
               ***  Starting incremental Fock matrix formation  ***
    1    -696.4944472357439054     0.00e+00  1.11e-03  3.67e-02  1.84e-01  0.700   6.5
    2    -696.6678780070323000    -1.73e-01  8.70e-04  3.47e-02  1.04e-01  0.700   3.8
                               ***Turning on AO-DIIS***
    3    -696.7482169537125856    -8.03e-02  4.80e-04  2.34e-02  4.74e-02  0.700   4.6
    4    -696.7943958122474442    -4.62e-02  1.02e-03  5.30e-02  2.72e-02  0.000   4.0
    5    -696.8922726987033229    -9.79e-02  1.32e-04  1.27e-02  3.72e-03  0.000   3.7
                              *** Initializing SOSCF ***
---------------------------------------S-O-S-C-F--------------------------------------
Iteration    Energy (Eh)           Delta-E    RMSDP     MaxDP     MaxGrad    Time(sec)
--------------------------------------------------------------------------------------
    6    -696.8924908330615153    -2.18e-04  5.34e-05  4.08e-03  1.08e-03     3.3
               *** Restarting incremental Fock matrix formation ***
    7    -696.8925138635082703    -2.30e-05  4.06e-05  3.97e-03  2.07e-04     7.0
    8    -696.8925167023390941    -2.84e-06  1.68e-05  1.55e-03  5.68e-05     4.3
    9    -696.8925175011862621    -7.99e-07  7.10e-06  4.33e-04  1.69e-05     4.7
                 **** Energy Check signals convergence ****

               *****************************************************
               *                     SUCCESS                       *
               *           SCF CONVERGED AFTER   9 CYCLES          *
               *****************************************************

Recomputing exchange energy using gridx3       ... done (    9.015 sec)
Old exchange energy                            :    -41.396551873 Eh
New exchange energy                            :    -41.396543033 Eh
Exchange energy change after final integration :      0.000008840 Eh
Total energy after final integration           :   -696.892508661 Eh
             **** ENERGY FILE WAS UPDATED (data/single_point_P_M06-2x/80969/80969.en.tmp) ****

----------------
TOTAL SCF ENERGY
----------------

Total Energy       :       -696.89250866110888 Eh          -18963.40924 eV

Components:
Nuclear Repulsion  :        697.89003232537300 Eh           18990.55324 eV
Electronic Energy  :      -1394.78254982655926 Eh          -37953.96272 eV
One Electron Energy:      -2335.99372783061335 Eh          -63565.62095 eV
Two Electron Energy:        941.21117800405409 Eh           25611.65823 eV

Virial components:
Potential Energy   :      -1390.58002369914084 Eh          -37839.60617 eV
Kinetic Energy     :        693.68751503803207 Eh           18876.19693 eV
Virial Ratio       :          2.00462022676435

DFT components:
N(Alpha)           :       44.999987364354 electrons
N(Beta)            :       44.999987364354 electrons
N(Total)           :       89.999974728707 electrons
E(XC)              :      -38.313529469226 Eh       

---------------
SCF CONVERGENCE
---------------

  Last Energy change         ...    7.9885e-07  Tolerance :   1.0000e-06
  Last MAX-Density change    ...    4.3349e-04  Tolerance :   1.0000e-05
  Last RMS-Density change    ...    7.1038e-06  Tolerance :   1.0000e-06
  Last DIIS Error            ...    1.0776e-03  Tolerance :   1.0000e-05
  Last Orbital Gradient      ...    1.6854e-05  Tolerance :   5.0000e-05
  Last Orbital Rotation      ...    4.8313e-05  Tolerance :   5.0000e-05


----------------
ORBITAL ENERGIES
----------------

  NO   OCC          E(Eh)            E(eV) 
   0   2.0000     -78.008120     -2122.7089 
   1   2.0000     -10.545060      -286.9457 
   2   2.0000     -10.544793      -286.9384 
   3   2.0000     -10.543677      -286.9080 
   4   2.0000     -10.532941      -286.6159 
   5   2.0000     -10.532002      -286.5903 
   6   2.0000     -10.531199      -286.5685 
   7   2.0000     -10.531126      -286.5665 
   8   2.0000     -10.530972      -286.5623 
   9   2.0000     -10.527931      -286.4796 
  10   2.0000      -6.824386      -185.7010 
  11   2.0000      -4.938724      -134.3895 
  12   2.0000      -4.938416      -134.3811 
  13   2.0000      -4.938325      -134.3787 
  14   2.0000      -0.902687       -24.5634 
  15   2.0000      -0.873790       -23.7770 
  16   2.0000      -0.871545       -23.7160 
  17   2.0000      -0.775006       -21.0890 
  18   2.0000      -0.771651       -20.9977 
  19   2.0000      -0.766897       -20.8683 
  20   2.0000      -0.717580       -19.5263 
  21   2.0000      -0.658228       -17.9113 
  22   2.0000      -0.654880       -17.8202 
  23   2.0000      -0.580336       -15.7917 
  24   2.0000      -0.534578       -14.5466 
  25   2.0000      -0.529592       -14.4109 
  26   2.0000      -0.515366       -14.0238 
  27   2.0000      -0.495091       -13.4721 
  28   2.0000      -0.491248       -13.3675 
  29   2.0000      -0.473406       -12.8820 
  30   2.0000      -0.468228       -12.7411 
  31   2.0000      -0.458176       -12.4676 
  32   2.0000      -0.452563       -12.3149 
  33   2.0000      -0.447576       -12.1792 
  34   2.0000      -0.442628       -12.0445 
  35   2.0000      -0.440196       -11.9783 
  36   2.0000      -0.406982       -11.0745 
  37   2.0000      -0.406081       -11.0500 
  38   2.0000      -0.403984       -10.9930 
  39   2.0000      -0.397196       -10.8082 
  40   2.0000      -0.394530       -10.7357 
  41   2.0000      -0.390592       -10.6286 
  42   2.0000      -0.333721        -9.0810 
  43   2.0000      -0.331620        -9.0238 
  44   2.0000      -0.265479        -7.2240 
  45   0.0000       0.055769         1.5176 
  46   0.0000       0.061567         1.6753 
  47   0.0000       0.067182         1.8281 
  48   0.0000       0.088704         2.4138 
  49   0.0000       0.091785         2.4976 
  50   0.0000       0.093440         2.5426 
  51   0.0000       0.109843         2.9890 
  52   0.0000       0.113868         3.0985 
  53   0.0000       0.115630         3.1465 
  54   0.0000       0.123524         3.3613 
  55   0.0000       0.129987         3.5371 
*Only the first 10 virtual orbitals were printed.

                    ********************************
                    * MULLIKEN POPULATION ANALYSIS *
                    ********************************

-----------------------
MULLIKEN ATOMIC CHARGES
-----------------------
   0 C :   -0.439821
   1 C :   -0.210162
   2 C :   -0.458494
   3 P :    0.171629
   4 C :   -0.250103
   5 C :   -0.388234
   6 C :   -0.452735
   7 C :   -0.211161
   8 C :   -0.476937
   9 C :   -0.437899
  10 H :    0.135969
  11 H :    0.146503
  12 H :    0.159486
  13 H :    0.155766
  14 H :    0.150447
  15 H :    0.145058
  16 H :    0.161549
  17 H :    0.137556
  18 H :    0.153154
  19 H :    0.138958
  20 H :    0.139236
  21 H :    0.146946
  22 H :    0.151641
  23 H :    0.163176
  24 H :    0.156856
  25 H :    0.163678
  26 H :    0.154010
  27 H :    0.149508
  28 H :    0.159529
  29 H :    0.140587
  30 H :    0.144304
Sum of atomic charges:   -0.0000000

--------------------------------
MULLIKEN REDUCED ORBITAL CHARGES
--------------------------------
  0 C s       :     3.337131  s :     3.337131
      pz      :     1.063807  p :     3.042584
      px      :     1.044697
      py      :     0.934080
      dz2     :     0.016433  d :     0.056820
      dxz     :     0.008045
      dyz     :     0.006983
      dx2y2   :     0.012476
      dxy     :     0.012883
      f0      :     0.000682  f :     0.003287
      f+1     :     0.000205
      f-1     :     0.000427
      f+2     :     0.000392
      f-2     :     0.000327
      f+3     :     0.000615
      f-3     :     0.000640

  1 C s       :     3.194657  s :     3.194657
      pz      :     1.023838  p :     2.912866
      px      :     0.961772
      py      :     0.927256
      dz2     :     0.024468  d :     0.097478
      dxz     :     0.013173
      dyz     :     0.015400
      dx2y2   :     0.026311
      dxy     :     0.018126
      f0      :     0.000791  f :     0.005161
      f+1     :     0.000584
      f-1     :     0.000626
      f+2     :     0.000357
      f-2     :     0.000669
      f+3     :     0.000790
      f-3     :     0.001343

  2 C s       :     3.340843  s :     3.340843
      pz      :     1.068257  p :     3.057271
      px      :     1.019430
      py      :     0.969584
      dz2     :     0.013269  d :     0.057047
      dxz     :     0.008301
      dyz     :     0.009379
      dx2y2   :     0.019061
      dxy     :     0.007037
      f0      :     0.000793  f :     0.003333
      f+1     :     0.000180
      f-1     :     0.000270
      f+2     :     0.000248
      f-2     :     0.000499
      f+3     :     0.000628
      f-3     :     0.000714

  3 P s       :     5.710913  s :     5.710913
      pz      :     3.383413  p :     8.873735
      px      :     2.749362
      py      :     2.740959
      dz2     :     0.021827  d :     0.219530
      dxz     :     0.045513
      dyz     :     0.042013
      dx2y2   :     0.055242
      dxy     :     0.054935
      f0      :     0.002498  f :     0.024193
      f+1     :     0.002743
      f-1     :     0.002558
      f+2     :     0.004490
      f-2     :     0.004367
      f+3     :     0.003591
      f-3     :     0.003946

  4 C s       :     3.216634  s :     3.216634
      pz      :     0.910445  p :     2.932784
      px      :     1.042967
      py      :     0.979372
      dz2     :     0.026138  d :     0.095569
      dxz     :     0.015911
      dyz     :     0.021192
      dx2y2   :     0.010086
      dxy     :     0.022241
      f0      :     0.000827  f :     0.005115
      f+1     :     0.000700
      f-1     :     0.001344
      f+2     :     0.000509
      f-2     :     0.000787
      f+3     :     0.000446
      f-3     :     0.000501

  5 C s       :     3.306739  s :     3.306739
      pz      :     1.019342  p :     3.020976
      px      :     1.049023
      py      :     0.952611
      dz2     :     0.017027  d :     0.057235
      dxz     :     0.006612
      dyz     :     0.008597
      dx2y2   :     0.003152
      dxy     :     0.021847
      f0      :     0.000378  f :     0.003284
      f+1     :     0.000254
      f-1     :     0.000794
      f+2     :     0.000327
      f-2     :     0.000634
      f+3     :     0.000340
      f-3     :     0.000558

  6 C s       :     3.337870  s :     3.337870
      pz      :     0.921295  p :     3.053292
      px      :     1.071041
      py      :     1.060955
      dz2     :     0.010591  d :     0.058283
      dxz     :     0.011330
      dyz     :     0.017787
      dx2y2   :     0.003434
      dxy     :     0.015141
      f0      :     0.000776  f :     0.003291
      f+1     :     0.000565
      f-1     :     0.000663
      f+2     :     0.000371
      f-2     :     0.000397
      f+3     :     0.000052
      f-3     :     0.000466

  7 C s       :     3.202134  s :     3.202134
      pz      :     0.895864  p :     2.905823
      px      :     1.008569
      py      :     1.001390
      dz2     :     0.022684  d :     0.098065
      dxz     :     0.024991
      dyz     :     0.020415
      dx2y2   :     0.010745
      dxy     :     0.019230
      f0      :     0.000851  f :     0.005139
      f+1     :     0.001383
      f-1     :     0.000943
      f+2     :     0.000405
      f-2     :     0.000377
      f+3     :     0.000593
      f-3     :     0.000589

  8 C s       :     3.338574  s :     3.338574
      pz      :     0.905983  p :     3.076905
      px      :     1.059882
      py      :     1.111041
      dz2     :     0.007883  d :     0.058168
      dxz     :     0.017854
      dyz     :     0.017124
      dx2y2   :     0.009026
      dxy     :     0.006281
      f0      :     0.000836  f :     0.003289
      f+1     :     0.000722
      f-1     :     0.000810
      f+2     :     0.000208
      f-2     :     0.000174
      f+3     :     0.000194
      f-3     :     0.000345

  9 C s       :     3.335643  s :     3.335643
      pz      :     1.050611  p :     3.041419
      px      :     0.929898
      py      :     1.060909
      dz2     :     0.019727  d :     0.057518
      dxz     :     0.006182
      dyz     :     0.002782
      dx2y2   :     0.010293
      dxy     :     0.018535
      f0      :     0.000631  f :     0.003320
      f+1     :     0.000635
      f-1     :     0.000129
      f+2     :     0.000365
      f-2     :     0.000358
      f+3     :     0.000570
      f-3     :     0.000632

 10 H s       :     0.845055  s :     0.845055
      pz      :     0.003949  p :     0.018976
      px      :     0.006065
      py      :     0.008962

 11 H s       :     0.835206  s :     0.835206
      pz      :     0.004930  p :     0.018291
      px      :     0.009726
      py      :     0.003635

 12 H s       :     0.822043  s :     0.822043
      pz      :     0.011350  p :     0.018471
      px      :     0.003663
      py      :     0.003458

 13 H s       :     0.823962  s :     0.823962
      pz      :     0.012313  p :     0.020272
      px      :     0.004513
      py      :     0.003446

 14 H s       :     0.830904  s :     0.830904
      pz      :     0.004705  p :     0.018648
      px      :     0.004326
      py      :     0.009618

 15 H s       :     0.836554  s :     0.836554
      pz      :     0.004525  p :     0.018388
      px      :     0.010298
      py      :     0.003565

 16 H s       :     0.820109  s :     0.820109
      pz      :     0.011129  p :     0.018342
      px      :     0.003567
      py      :     0.003647

 17 H s       :     0.842252  s :     0.842252
      pz      :     0.003574  p :     0.020192
      px      :     0.010310
      py      :     0.006308

 18 H s       :     0.828115  s :     0.828115
      pz      :     0.010646  p :     0.018731
      px      :     0.004171
      py      :     0.003913

 19 H s       :     0.842828  s :     0.842828
      pz      :     0.004309  p :     0.018215
      px      :     0.007207
      py      :     0.006698

 20 H s       :     0.842237  s :     0.842237
      pz      :     0.003704  p :     0.018527
      px      :     0.008940
      py      :     0.005883

 21 H s       :     0.834406  s :     0.834406
      pz      :     0.003475  p :     0.018648
      px      :     0.009347
      py      :     0.005826

 22 H s       :     0.830031  s :     0.830031
      pz      :     0.004860  p :     0.018327
      px      :     0.007311
      py      :     0.006157

 23 H s       :     0.817739  s :     0.817739
      pz      :     0.006842  p :     0.019085
      px      :     0.003797
      py      :     0.008446

 24 H s       :     0.822992  s :     0.822992
      pz      :     0.004461  p :     0.020152
      px      :     0.008132
      py      :     0.007559

 25 H s       :     0.817696  s :     0.817696
      pz      :     0.005327  p :     0.018626
      px      :     0.009267
      py      :     0.004031

 26 H s       :     0.827760  s :     0.827760
      pz      :     0.004111  p :     0.018230
      px      :     0.003857
      py      :     0.010261

 27 H s       :     0.831869  s :     0.831869
      pz      :     0.004802  p :     0.018623
      px      :     0.007571
      py      :     0.006250

 28 H s       :     0.821775  s :     0.821775
      pz      :     0.011720  p :     0.018696
      px      :     0.003457
      py      :     0.003519

 29 H s       :     0.840859  s :     0.840859
      pz      :     0.004083  p :     0.018554
      px      :     0.008021
      py      :     0.006450

 30 H s       :     0.837363  s :     0.837363
      pz      :     0.003820  p :     0.018334
      px      :     0.004320
      py      :     0.010193



                     *******************************
                     * LOEWDIN POPULATION ANALYSIS *
                     *******************************

----------------------
LOEWDIN ATOMIC CHARGES
----------------------
   0 C :   -0.325988
   1 C :   -0.442445
   2 C :   -0.324600
   3 P :    0.626769
   4 C :   -0.435171
   5 C :   -0.330411
   6 C :   -0.323894
   7 C :   -0.447940
   8 C :   -0.323705
   9 C :   -0.327859
  10 H :    0.116967
  11 H :    0.123925
  12 H :    0.127078
  13 H :    0.139909
  14 H :    0.121008
  15 H :    0.125252
  16 H :    0.127006
  17 H :    0.147950
  18 H :    0.123601
  19 H :    0.121334
  20 H :    0.120863
  21 H :    0.123071
  22 H :    0.125797
  23 H :    0.120480
  24 H :    0.149687
  25 H :    0.122129
  26 H :    0.125569
  27 H :    0.124295
  28 H :    0.125858
  29 H :    0.119624
  30 H :    0.123842

-------------------------------
LOEWDIN REDUCED ORBITAL CHARGES
-------------------------------
  0 C s       :     2.845317  s :     2.845317
      pz      :     1.079049  p :     3.185761
      px      :     1.065409
      py      :     1.041303
      dz2     :     0.069157  d :     0.270507
      dxz     :     0.032952
      dyz     :     0.035390
      dx2y2   :     0.062828
      dxy     :     0.070180
      f0      :     0.003533  f :     0.024404
      f+1     :     0.001037
      f-1     :     0.003276
      f+2     :     0.004612
      f-2     :     0.003520
      f+3     :     0.004191
      f-3     :     0.004235

  1 C s       :     2.800187  s :     2.800187
      pz      :     1.040355  p :     3.129640
      px      :     1.057338
      py      :     1.031948
      dz2     :     0.109028  d :     0.470706
      dxz     :     0.079431
      dyz     :     0.064751
      dx2y2   :     0.116269
      dxy     :     0.101228
      f0      :     0.005510  f :     0.041911
      f+1     :     0.003694
      f-1     :     0.004436
      f+2     :     0.005396
      f-2     :     0.006676
      f+3     :     0.006311
      f-3     :     0.009887

  2 C s       :     2.844053  s :     2.844053
      pz      :     1.077730  p :     3.185903
      px      :     1.059386
      py      :     1.048787
      dz2     :     0.059749  d :     0.270181
      dxz     :     0.034383
      dyz     :     0.042334
      dx2y2   :     0.086935
      dxy     :     0.046780
      f0      :     0.004177  f :     0.024463
      f+1     :     0.001299
      f-1     :     0.001830
      f+2     :     0.003686
      f-2     :     0.004507
      f+3     :     0.004149
      f-3     :     0.004814

  3 P s       :     4.978908  s :     4.978908
      pz      :     3.335250  p :     8.841659
      px      :     2.751348
      py      :     2.755060
      dz2     :     0.075492  d :     0.463966
      dxz     :     0.083407
      dyz     :     0.072382
      dx2y2   :     0.114978
      dxy     :     0.117707
      f0      :     0.006687  f :     0.088698
      f+1     :     0.010283
      f-1     :     0.008369
      f+2     :     0.016494
      f-2     :     0.016347
      f+3     :     0.015519
      f-3     :     0.014998

  4 C s       :     2.799621  s :     2.799621
      pz      :     1.055655  p :     3.130721
      px      :     1.035971
      py      :     1.039094
      dz2     :     0.115021  d :     0.463293
      dxz     :     0.076391
      dyz     :     0.120677
      dx2y2   :     0.047377
      dxy     :     0.103827
      f0      :     0.006657  f :     0.041537
      f+1     :     0.006243
      f-1     :     0.009679
      f+2     :     0.005484
      f-2     :     0.005881
      f+3     :     0.002842
      f-3     :     0.004751

  5 C s       :     2.847792  s :     2.847792
      pz      :     1.060154  p :     3.187742
      px      :     1.073115
      py      :     1.054473
      dz2     :     0.074155  d :     0.270613
      dxz     :     0.030876
      dyz     :     0.049498
      dx2y2   :     0.025550
      dxy     :     0.090535
      f0      :     0.002725  f :     0.024264
      f+1     :     0.002380
      f-1     :     0.005216
      f+2     :     0.003328
      f-2     :     0.004185
      f+3     :     0.002260
      f-3     :     0.004170

  6 C s       :     2.841747  s :     2.841747
      pz      :     1.041830  p :     3.185775
      px      :     1.074059
      py      :     1.069886
      dz2     :     0.062547  d :     0.271984
      dxz     :     0.052227
      dyz     :     0.083734
      dx2y2   :     0.017021
      dxy     :     0.056456
      f0      :     0.005373  f :     0.024386
      f+1     :     0.005132
      f-1     :     0.003729
      f+2     :     0.004284
      f-2     :     0.002350
      f+3     :     0.000702
      f-3     :     0.002816

  7 C s       :     2.799777  s :     2.799777
      pz      :     1.049222  p :     3.135382
      px      :     1.029088
      py      :     1.057072
      dz2     :     0.110413  d :     0.471332
      dxz     :     0.107162
      dyz     :     0.100504
      dx2y2   :     0.060934
      dxy     :     0.092319
      f0      :     0.005760  f :     0.041448
      f+1     :     0.010000
      f-1     :     0.007020
      f+2     :     0.004853
      f-2     :     0.005576
      f+3     :     0.004081
      f-3     :     0.004158

  8 C s       :     2.842112  s :     2.842112
      pz      :     1.044391  p :     3.186586
      px      :     1.067776
      py      :     1.074418
      dz2     :     0.057920  d :     0.270565
      dxz     :     0.082956
      dyz     :     0.068224
      dx2y2   :     0.033987
      dxy     :     0.027479
      f0      :     0.004882  f :     0.024442
      f+1     :     0.004989
      f-1     :     0.006382
      f+2     :     0.002464
      f-2     :     0.002868
      f+3     :     0.001017
      f-3     :     0.001840

  9 C s       :     2.845495  s :     2.845495
      pz      :     1.067188  p :     3.187748
      px      :     1.047868
      py      :     1.072693
      dz2     :     0.083186  d :     0.270219
      dxz     :     0.041457
      dyz     :     0.012716
      dx2y2   :     0.050742
      dxy     :     0.082118
      f0      :     0.003060  f :     0.024396
      f+1     :     0.003994
      f-1     :     0.001342
      f+2     :     0.003955
      f-2     :     0.004576
      f+3     :     0.003494
      f-3     :     0.003974

 10 H s       :     0.824382  s :     0.824382
      pz      :     0.013474  p :     0.058651
      px      :     0.019763
      py      :     0.025414

 11 H s       :     0.818327  s :     0.818327
      pz      :     0.016730  p :     0.057748
      px      :     0.029123
      py      :     0.011895

 12 H s       :     0.814766  s :     0.814766
      pz      :     0.034243  p :     0.058157
      px      :     0.012386
      py      :     0.011528

 13 H s       :     0.801653  s :     0.801653
      pz      :     0.032748  p :     0.058439
      px      :     0.013867
      py      :     0.011824

 14 H s       :     0.820496  s :     0.820496
      pz      :     0.015848  p :     0.058496
      px      :     0.014865
      py      :     0.027783

 15 H s       :     0.816982  s :     0.816982
      pz      :     0.015423  p :     0.057766
      px      :     0.030049
      py      :     0.012294

 16 H s       :     0.814986  s :     0.814986
      pz      :     0.034008  p :     0.058008
      px      :     0.011996
      py      :     0.012003

 17 H s       :     0.794418  s :     0.794418
      pz      :     0.012118  p :     0.057632
      px      :     0.028075
      py      :     0.017439

 18 H s       :     0.818133  s :     0.818133
      pz      :     0.030997  p :     0.058266
      px      :     0.013851
      py      :     0.013418

 19 H s       :     0.821077  s :     0.821077
      pz      :     0.015037  p :     0.057589
      px      :     0.022618
      py      :     0.019934

 20 H s       :     0.821213  s :     0.821213
      pz      :     0.012244  p :     0.057924
      px      :     0.027834
      py      :     0.017846

 21 H s       :     0.818678  s :     0.818678
      pz      :     0.011653  p :     0.058251
      px      :     0.027943
      py      :     0.018655

 22 H s       :     0.816495  s :     0.816495
      pz      :     0.014641  p :     0.057709
      px      :     0.023589
      py      :     0.019478

 23 H s       :     0.820276  s :     0.820276
      pz      :     0.019995  p :     0.059244
      px      :     0.012863
      py      :     0.026386

 24 H s       :     0.792906  s :     0.792906
      pz      :     0.013891  p :     0.057406
      px      :     0.021459
      py      :     0.022056

 25 H s       :     0.819598  s :     0.819598
      pz      :     0.015867  p :     0.058273
      px      :     0.028720
      py      :     0.013686

 26 H s       :     0.816748  s :     0.816748
      pz      :     0.012899  p :     0.057683
      px      :     0.013196
      py      :     0.031587

 27 H s       :     0.817617  s :     0.817617
      pz      :     0.014564  p :     0.058088
      px      :     0.023722
      py      :     0.019802

 28 H s       :     0.815771  s :     0.815771
      pz      :     0.034589  p :     0.058371
      px      :     0.011626
      py      :     0.012155

 29 H s       :     0.822247  s :     0.822247
      pz      :     0.014074  p :     0.058129
      px      :     0.023198
      py      :     0.020857

 30 H s       :     0.818358  s :     0.818358
      pz      :     0.013268  p :     0.057800
      px      :     0.013499
      py      :     0.031033



                      *****************************
                      * MAYER POPULATION ANALYSIS *
                      *****************************

  NA   - Mulliken gross atomic population
  ZA   - Total nuclear charge
  QA   - Mulliken gross atomic charge
  VA   - Mayer's total valence
  BVA  - Mayer's bonded valence
  FA   - Mayer's free valence

  ATOM       NA         ZA         QA         VA         BVA        FA
  0 C      6.4398     6.0000    -0.4398     3.8317     3.8317     0.0000
  1 C      6.2102     6.0000    -0.2102     3.7176     3.7176    -0.0000
  2 C      6.4585     6.0000    -0.4585     3.8068     3.8068     0.0000
  3 P     14.8284    15.0000     0.1716     2.9242     2.9242    -0.0000
  4 C      6.2501     6.0000    -0.2501     3.7723     3.7723     0.0000
  5 C      6.3882     6.0000    -0.3882     3.7962     3.7962    -0.0000
  6 C      6.4527     6.0000    -0.4527     3.7904     3.7904     0.0000
  7 C      6.2112     6.0000    -0.2112     3.7296     3.7296    -0.0000
  8 C      6.4769     6.0000    -0.4769     3.7836     3.7836    -0.0000
  9 C      6.4379     6.0000    -0.4379     3.8350     3.8350     0.0000
 10 H      0.8640     1.0000     0.1360     0.9610     0.9610    -0.0000
 11 H      0.8535     1.0000     0.1465     0.9607     0.9607     0.0000
 12 H      0.8405     1.0000     0.1595     0.9597     0.9597     0.0000
 13 H      0.8442     1.0000     0.1558     0.9213     0.9213     0.0000
 14 H      0.8496     1.0000     0.1504     0.9504     0.9504     0.0000
 15 H      0.8549     1.0000     0.1451     0.9615     0.9615     0.0000
 16 H      0.8385     1.0000     0.1615     0.9590     0.9590     0.0000
 17 H      0.8624     1.0000     0.1376     0.9309     0.9309    -0.0000
 18 H      0.8468     1.0000     0.1532     0.9653     0.9653    -0.0000
 19 H      0.8610     1.0000     0.1390     0.9580     0.9580     0.0000
 20 H      0.8608     1.0000     0.1392     0.9593     0.9593    -0.0000
 21 H      0.8531     1.0000     0.1469     0.9520     0.9520    -0.0000
 22 H      0.8484     1.0000     0.1516     0.9597     0.9597    -0.0000
 23 H      0.8368     1.0000     0.1632     0.9465     0.9465    -0.0000
 24 H      0.8431     1.0000     0.1569     0.9247     0.9247    -0.0000
 25 H      0.8363     1.0000     0.1637     0.9470     0.9470     0.0000
 26 H      0.8460     1.0000     0.1540     0.9603     0.9603    -0.0000
 27 H      0.8505     1.0000     0.1495     0.9457     0.9457    -0.0000
 28 H      0.8405     1.0000     0.1595     0.9628     0.9628     0.0000
 29 H      0.8594     1.0000     0.1406     0.9569     0.9569     0.0000
 30 H      0.8557     1.0000     0.1443     0.9578     0.9578     0.0000

  Mayer bond orders larger than 0.100000
B(  0-C ,  1-C ) :   0.9442 B(  0-C , 10-H ) :   0.9725 B(  0-C , 11-H ) :   0.9710 
B(  0-C , 12-H ) :   0.9658 B(  1-C ,  2-C ) :   0.9237 B(  1-C ,  3-P ) :   0.9501 
B(  1-C , 13-H ) :   0.9451 B(  2-C , 14-H ) :   0.9732 B(  2-C , 15-H ) :   0.9685 
B(  2-C , 16-H ) :   0.9666 B(  3-P ,  4-C ) :   0.9428 B(  3-P ,  7-C ) :   0.9437 
B(  4-C ,  5-C ) :   0.9532 B(  4-C ,  6-C ) :   0.9204 B(  4-C , 17-H ) :   0.9437 
B(  5-C , 18-H ) :   0.9742 B(  5-C , 19-H ) :   0.9693 B(  5-C , 20-H ) :   0.9612 
B(  6-C , 21-H ) :   0.9647 B(  6-C , 22-H ) :   0.9651 B(  6-C , 23-H ) :   0.9751 
B(  7-C ,  8-C ) :   0.8954 B(  7-C ,  9-C ) :   0.9570 B(  7-C , 24-H ) :   0.9489 
B(  8-C , 25-H ) :   0.9753 B(  8-C , 26-H ) :   0.9659 B(  8-C , 27-H ) :   0.9638 
B(  9-C , 28-H ) :   0.9744 B(  9-C , 29-H ) :   0.9649 B(  9-C , 30-H ) :   0.9693 


-------
TIMINGS
-------

Total SCF time: 0 days 0 hours 0 min 51 sec 

Total time                  ....      51.256 sec
Sum of individual times     ....      51.250 sec  (100.0%)

SCF preparation             ....       0.183 sec  (  0.4%)
Fock matrix formation       ....      49.842 sec  ( 97.2%)
  Startup                   ....       0.043 sec  (  0.1% of F)
  Split-RI-J                ....       2.799 sec  (  5.6% of F)
  Chain of spheres X        ....      33.877 sec  ( 68.0% of F)
  XC integration            ....      12.974 sec  ( 26.0% of F)
    Basis function eval.    ....       1.924 sec  ( 14.8% of XC)
    Density eval.           ....       5.111 sec  ( 39.4% of XC)
    XC-Functional eval.     ....       0.298 sec  (  2.3% of XC)
    XC-Potential eval.      ....       4.926 sec  ( 38.0% of XC)
Diagonalization             ....       0.000 sec  (  0.0%)
Density matrix formation    ....       0.115 sec  (  0.2%)
Total Energy calculation    ....       0.048 sec  (  0.1%)
Population analysis         ....       0.091 sec  (  0.2%)
Orbital Transformation      ....       0.141 sec  (  0.3%)
Orbital Orthonormalization  ....       0.000 sec  (  0.0%)
DIIS solution               ....       0.602 sec  (  1.2%)
SOSCF solution              ....       0.228 sec  (  0.4%)
Finished LeanSCF after  51.3 sec

Maximum memory used throughout the entire LEANSCF-calculation: 56.6 MB


-------------------------------------------------------------------------------
                          DFT DISPERSION CORRECTION                            
                                                                               
                              DFTD3 V3.1  Rev 1                                
                              USING zero damping                               
-------------------------------------------------------------------------------
The M062X functional is recognized
Active option DFTDOPT                   ...         3   

molecular C6(AA) [au] = 7636.165092 


            DFT-D V3
 parameters
 s6 scaling factor         :     1.0000 
 rs6 scaling factor        :     1.6190 
 s8 scaling factor         :     0.0000 
 rs8 scaling factor        :     1.0000 
 Damping factor alpha6     :    14.0000 
 Damping factor alpha8     :    16.0000 
 ad hoc parameters k1-k3   :    16.0000     1.3333    -4.0000 

 Edisp/kcal,au: -0.976074800900  -0.001555474040 
 E6   /kcal   :  -0.976074801 
 E8   /kcal   :  -0.000000000 
 % E8         :   0.000000000 

-------------------------   ----------------
Dispersion correction           -0.001555474
-------------------------   ----------------


-------------------------   --------------------
FINAL SINGLE POINT ENERGY      -696.894064135149
-------------------------   --------------------



           ************************************************************
           *        Program running with 6 parallel MPI-processes     *
           *              working on a common directory               *
           ************************************************************

------------------------------------------------------------------------------
                              ORCA PROPERTY CALCULATIONS
------------------------------------------------------------------------------

GBWName                                 ... data/single_point_P_M06-2x/80969/80969.gbw
Number of atoms                         ...     31
Number of basis functions               ...    442
Max core memory                         ...   1024 MB

Electric properties:
Dipole moment                           ... YES
Quadrupole moment                       ...  NO
Static polarizability (Dipole/Dipole)   ...  NO
Static polarizability (Dipole/Quad.)    ...  NO
Static polarizability (Quad./Quad.)     ...  NO
Static polarizability (Velocity)        ...  NO

Atomic electric properties:
Dipole moment                           ...  NO
Quadrupole moment                       ...  NO
Static polarizability                   ...  NO

Choice of electric origin               ... Center of mass
Position of electric origin             ...     0.001267    -0.055310     0.351049

General magnetic properties:
Magnetizability                         ...  NO

EPR properties:
g-Tensor (aka g-matrix)                 ...  NO
Zero-Field splitting spin-orbit         ...  NO
Zero-field splitting spin-spin          ...  NO
Hyperfine couplings                     ...  NO (   0 nuclei)
Quadrupole couplings                    ...  NO (   0 nuclei)
Contact density                         ...  NO (   0 nuclei)

NMR properties:
Chemical shifts                         ...  NO (   0 nuclei)
Spin-rotation constants                 ...  NO (   0 nuclei)
Spin-spin couplings                     ...  NO (   0 nuclei,    0 pairs)

Choice of magnetic origin               ... GIAO
Position of magnetic origin             ...     0.000000     0.000000     0.000000

Properties with geometric perturbations:
SCF Hessian                             ...  NO
IR spectrum                             ...  NO
VCD spectrum                            ...  NO
X-ray spectroscopy properties:
SCF XES/XAS/RIXS spectra                ...  NO


-------------
DIPOLE MOMENT
-------------

Method             : SCF
Type of density    : Electron Density
Multiplicity       :   1
Irrep              :   0
Energy             :  -696.8925086611088773 Eh
Relativity type    : 
Basis              : AO
                                X                 Y                 Z
Electronic contribution:     -0.010929977      -0.985122378       4.896914653
Nuclear contribution   :     -0.013984612       0.882720476      -5.373735931
                        -----------------------------------------
Total Dipole Moment    :     -0.024914589      -0.102401902      -0.476821278
                        -----------------------------------------
Magnitude (a.u.)       :      0.488329210
Magnitude (Debye)      :      1.241234210



--------------------
Rotational spectrum 
--------------------
 
Rotational constants in cm-1:             0.036246             0.032954             0.023048 
Rotational constants in MHz :          1086.641958           987.928386           690.949439 

Dipole components along the rotational axes: 
x,y,z [a.u.] :    -0.114359     0.041081    -0.472969 
x,y,z [Debye]:    -0.290678     0.104420    -1.202192 

 

Dipole moment calculation done in   0.0 sec 

Maximum memory used throughout the entire PROP-calculation: 27.9 MB

--------------------------------
SUGGESTED CITATIONS FOR THIS RUN
--------------------------------

Below you find a list of papers that are relevant to this ORCA run
We neither can nor want to force you to cite these papers, but we appreciate if you do
You receive ORCA, which is the product of decades of hard work by many enthusiastic individuals, for free
The only thing we kindly ask in return is that you cite our papers,
We deeply appreciate it, if you show your appreciation for ORCA by not just citing the generic ORCA reference.

Please note that relegating all ORCA citations to the supporting information does *not* help us.
SI sections are not indexed - citations you put there will not count into any citation statistics
But we need these citations in order to attract the funding resources that allow us to do what we are doing

Therefore, if you are a happy ORCA user, please consider citing a few of the papers listed below in the main body of your paper

In addition to the list printed below, the program has created the file data/single_point_P_M06-2x/80969/80969.bibtex that contains the list in bibtex format
You can import this file easily into all common literature databanks and citation aid programs


List of essential papers. We consider these as the minimum necessary citations

  1. Neese,F.
     Software update: the ORCA program system, version 5.0
     WIRES Comput. Molec. Sci., 2022 12(1)e1606
     doi.org/10.1002/wcms.1606

List of papers to cite with high priority. The work reported in these papers was absolutely
necessary for this run to complete.
Our perspective: the developers of density functionals and basis sets usually get cited in chemistry papers
Good! But without the algorithms to do something with them, the functionals or basis sets would not do anything.
Hence, in our opinion, the algorithm design and method developments papers are equally worthy of getting cited

  1. Neese,F.
     An improvement of the resolution of the identity approximation for the formation of the Coulomb matrix
     J. Comp. Chem., 2003 24(14)1740-1747
     doi.org/10.1002/jcc.10318
  2. Neese,F.; Wennmohs,F.; Hansen,A.; Becker,U.
     Efficient, approximate and parallel Hartree-Fock and hybrid DFT calculations. A 'chain-of-spheres' algorithm for the Hartree-Fock exchange
     Chem. Phys., 2009 356(1-3)98-109
     doi.org/10.1016/j.chemphys.2008.10.036
  3. Helmich-Paris,B.; de Souza,B.; Neese,F.; Izsák,R.
     An improved chain of spheres for exchange algorithm
     J. Chem. Phys., 2021 155 104109
     doi.org/doi: 10.1063/5.0058766.
  4. Neese,F.
     The SHARK Integral Generation and Digestion System
     J. Comp. Chem., 2022  1-16
     doi.org/10.1002/jcc.26942
  5. Grimme,S.; Antony,J.; Ehrlich,S.; Krieg,H.
     A consistent and accurate ab initio parametrization of density functional dispersion correction (DFT-D) for the 94 elements H-Pu
     J. Chem. Phys., 2010 132 154104-XXXX
     doi.org/10.1063/1.3382344

List of suggested additional citations. These are papers that are important in the 'surrounding' of 
of this run, or papers that preceded the highly important papers. If you like your results we are grateful for a citation.

  1. Izsak,R.; Neese,F.
     An overlap fitted chain of spheres exchange method
     J. Chem. Phys., 2011 135 144105
     doi.org/10.1063/1.3646921
  2. Izsak,R.; Hansen,A.; Neese,F.
     The resolution of identity and chain of spheres approximations for the LPNO-CCSD singles Fock term
     Molec. Phys., 2012 110 2413-2417
     doi.org/10.1080/00268976.2012.687466
  3. Neese,F.
     The ORCA program system
     WIRES Comput. Molec. Sci., 2012 2(1)73-78
     doi.org/10.1002/wcms.81
  4. Izsak,R.; Neese,F.; Klopper,W.
     Robust fitting techniques in the chain of spheres approximation to the Fock exchange: The role of the complementary space
     J. Chem. Phys., 2013 139 
     doi.org/10.1063/1.4819264
  5. Neese,F.
     Software update: the ORCA program system, version 4.0
     WIRES Comput. Molec. Sci., 2018 8(1)1-6
     doi.org/10.1002/wcms.1327
  6. Neese,F.; Wennmohs,F.; Becker,U.; Riplinger,C.
     The ORCA quantum chemistry program package
     J. Chem. Phys., 2020 152 Art. No. L224108
     doi.org/10.1063/5.0004608

List of optional additional citations

  1. Neese,F.
     Approximate second-order SCF convergence for spin unrestricted wavefunctions
     Chem. Phys. Lett., 2000 325(1-3)93-98
     doi.org/10.1016/s0009-2614(00)00662-x

Timings for individual modules:

Sum of individual times          ...       54.730 sec (=   0.912 min)
Startup calculation              ...        2.249 sec (=   0.037 min)   4.1 %
SCF iterations                   ...       52.257 sec (=   0.871 min)  95.5 %
Property calculations            ...        0.224 sec (=   0.004 min)   0.4 %
                             ****ORCA TERMINATED NORMALLY****
TOTAL RUN TIME: 0 days 0 hours 0 minutes 54 seconds 985 msec
