
                                 *****************
                                 * O   R   C   A *
                                 *****************

                                            #,                                       
                                            ###                                      
                                            ####                                     
                                            #####                                    
                                            ######                                   
                                           ########,                                 
                                     ,,################,,,,,                         
                               ,,#################################,,                 
                          ,,##########################################,,             
                       ,#########################################, ''#####,          
                    ,#############################################,,   '####,        
                  ,##################################################,,,,####,       
                ,###########''''           ''''###############################       
              ,#####''   ,,,,##########,,,,          '''####'''          '####       
            ,##' ,,,,###########################,,,                        '##       
           ' ,,###''''                  '''############,,,                           
         ,,##''                                '''############,,,,        ,,,,,,###''
      ,#''                                            '''#######################'''  
     '                                                          ''''####''''         
             ,#######,   #######,   ,#######,      ##                                
            ,#'     '#,  ##    ##  ,#'     '#,    #''#        ,####,   ,####,        
            ##       ##  ##   ,#'  ##            #'  '#       #'       #'  '#        
            ##       ##  #######   ##           ,######,      #####,   #    #        
            '#,     ,#'  ##    ##  '#,     ,#' ,#      #,     #,   #   #,  ,#        
             '#######'   ##     ##  '#######'  #'      '#     '####' # '####'        



                #########################################################
                #                        -***-                          #
                #          Department of theory and spectroscopy        #
                #                                                       #
                #                      Frank Neese                      #
                #                                                       #
                #     Directorship, Architecture, Infrastructure        #
                #                    SHARK, DRIVERS                     #
                #        Core code/Algorithms in most modules           #
                #                                                       #
                #        Max Planck Institute fuer Kohlenforschung      #
                #                Kaiser Wilhelm Platz 1                 #
                #                 D-45470 Muelheim/Ruhr                 #
                #                      Germany                          #
                #                                                       #
                #                  All rights reserved                  #
                #                        -***-                          #
                #########################################################


                         Program Version 6.0.0  -   RELEASE   -


 With contributions from (in alphabetic order):
   Daniel Aravena         : Magnetic Suceptibility
   Michael Atanasov       : Ab Initio Ligand Field Theory (pilot matlab implementation)
   Alexander A. Auer      : GIAO ZORA, VPT2 properties, NMR spectrum
   Ute Becker             : All parallelization in ORCA, NUMFREQ, NUMCALC
   Giovanni Bistoni       : ED, misc. LED, open-shell LED, HFLD
   Martin Brehm           : Molecular dynamics
   Dmytro Bykov           : pre 5.0 version of the SCF Hessian
   Marcos Casanova-Páez   : Triplet and SCS-CIS(D). UHF-(DLPNO)-IP/EA/STEOM-CCSD. UHF-CVS-IP/STEOM-CCSD
   Vijay G. Chilkuri      : MRCI spin determinant printing, contributions to CSF-ICE
   Pauline Colinet        : FMM embedding
   Dipayan Datta          : RHF DLPNO-CCSD density
   Achintya Kumar Dutta   : EOM-CC, STEOM-CC
   Nicolas Foglia         : Exact transition moments, OPA infrastructure, MCD improvements
   Dmitry Ganyushin       : Spin-Orbit,Spin-Spin,Magnetic field MRCI
   Miquel Garcia          : C-PCM and meta-GGA Hessian, CCSD/C-PCM, Gaussian charge scheme
   Tiago L. C. Gouveia    : GS-ROHF, GS-ROCIS
   Yang Guo               : DLPNO-NEVPT2, F12-NEVPT2, CIM, IAO-localization
   Andreas Hansen         : Spin unrestricted coupled pair/coupled cluster methods
   Ingolf Harden          : AUTO-CI MPn and infrastructure 
   Benjamin Helmich-Paris : MC-RPA, TRAH-(SCF,CASSCF), AVAS, COSX integrals, SCF dyn. polar.
   Lee Huntington         : MR-EOM, pCC
   Robert Izsak           : Overlap fitted RIJCOSX, COSX-SCS-MP3, EOM
   Riya Kayal             : Wick's Theorem for AUTO-CI, AUTO-CI UHF-CCSDT
   Emily Kempfer          : AUTO-CI, RHF CISDT and CCSDT
   Christian Kollmar      : KDIIS, OOCD, Brueckner-CCSD(T), CCSD density, CASPT2, CASPT2-K, improved NEVPT2
   Axel Koslowski         : Symmetry handling
   Simone Kossmann        : Meta GGA functionals, TD-DFT gradient, OOMP2, (MP2 Hessian; deprecated post 5.0)
   Lucas Lang             : DCDCAS
   Marvin Lechner         : AUTO-CI (C++ implementation), FIC-MRCC
   Spencer Leger          : CASSCF response
   Dagmar Lenk            : GEPOL surface, SMD, ORCA-2-JSON
   Dimitrios Liakos       : Extrapolation schemes; Compound Job, initial MDCI parallelization
   Dimitrios Manganas     : Further ROCIS development; embedding schemes. LFT, Crystal Embedding
   Dimitrios Pantazis     : SARC Basis sets
   Anastasios Papadopoulos: AUTO-CI, single reference methods and gradients
   Taras Petrenko         : pre 6.0 DFT Hessian and TD-DFT gradient, (ASA, deprecated), ECA, 1-Electron XAS/XES, NRVS
   Peter Pinski           : DLPNO-MP2, DLPNO-MP2 Gradient
   Christoph Reimann      : Effective Core Potentials
   Marius Retegan         : Local ZFS, SOC
   Christoph Riplinger    : Optimizer, TS searches, QM/MM, DLPNO-CCSD(T), (RO)-DLPNO pert. Triples
   Michael Roemelt        : Original ROCIS implementation
   Masaaki Saitow         : Open-shell DLPNO-CCSD energy and density
   Barbara Sandhoefer     : DKH picture change effects
   Kantharuban Sivalingam : CASSCF convergence/infrastructure, NEVPT2 and variants, FIC-MRCI
   Bernardo de Souza      : ESD, SOC TD-DFT
   Georgi Stoychev        : AutoAux, RI-MP2 NMR, DLPNO-MP2 response, X2C
   Van Anh Tran           : RI-MP2 g-tensors
   Willem Van den Heuvel  : Paramagnetic NMR
   Zikuan Wang            : NOTCH, Electric field optimization 
   Frank Wennmohs         : Technical directorship and infrastructure
   Hang Xu                : AUTO-CI-Response properties 


 We gratefully acknowledge several colleagues who have allowed us to
 interface, adapt or use parts of their codes:
   Stefan Grimme, W. Hujo, H. Kruse, P. Pracht,  : VdW corrections, initial TS optimization,
                  C. Bannwarth, S. Ehlert,         DFT functionals, gCP, sTDA/sTD-DF
                  L. Wittmann, M. Mueller
   Ed Valeev, F. Pavosevic, A. Kumar             : LibInt (2-el integral package), F12 methods
   Garnet Chan, S. Sharma, J. Yang, R. Olivares  : DMRG
   Ulf Ekstrom                                   : XCFun DFT Library
   Mihaly Kallay                                 : mrcc  (arbitrary order and MRCC methods)
   Frank Weinhold                                : gennbo (NPA and NBO analysis)
   Simon Mueller                                 : openCOSMO-RS
   Christopher J. Cramer and Donald G. Truhlar   : smd solvation model
   Lars Goerigk                                  : TD-DFT with DH, B97 family of functionals
   V. Asgeirsson, H. Jonsson                     : NEB implementation
   FAccTs GmbH                                   : IRC, NEB, NEB-TS, DLPNO-Multilevel, CI-OPT
                                                   MM, QMMM, 2- and 3-layer-ONIOM, Crystal-QMMM,
                                                   LR-CPCM, SF, NACMEs, symmetry and pop. for TD-DFT,
                                                   nearIR, NL-DFT gradient (VV10), updates on ESD,
                                                   ML-optimized integration grids, MBIS, APM,
                                                   GOAT, DOCKER, SOLVATOR, interface openCOSMO-RS
   S Lehtola, MJT Oliveira, MAL Marques          : LibXC Library
   Liviu Ungur et al                             : ANISO software


 Your calculation uses the libint2 library for the computation of 2-el integrals
 For citations please refer to: http://libint.valeyev.net

 Your ORCA version has been built with support for libXC version: 6.2.2
 For citations please refer to: https://libxc.gitlab.io

 This ORCA versions uses:
   CBLAS   interface :  Fast vector & matrix operations
   LAPACKE interface :  Fast linear algebra routines
   Shared memory     :  Shared parallel matrices


Your calculation utilizes the atom-pairwise dispersion correction
with the Becke-Johnson damping scheme (D3BJ)


Warning: RI is on but no J-basis has been assigned. Assigning Def2/J (nothing to worry about!)
================================================================================

----- Orbital basis set information -----
Your calculation utilizes the basis: def2-SVP
   F. Weigend and R. Ahlrichs, Phys. Chem. Chem. Phys. 7, 3297 (2005).

----- AuxJ basis set information -----
Your calculation utilizes the auxiliary basis: def2/J
   F. Weigend, Phys. Chem. Chem. Phys. 8, 1057 (2006).

================================================================================
                                        WARNINGS
                       Please study these warnings very carefully!
================================================================================


WARNING: Geometry Optimization
  ===> : Switching off AutoStart
         For restart on a previous wavefunction, please use MOREAD

================================================================================
                                       INPUT FILE
================================================================================
NAME = data/geom_opt/300563/300563.inp
|  1> ! RIJONX B3LYP def2-SVP D3BJ TIGHTSCF Opt
|  2> %pal
|  3> nprocs 6
|  4> end
|  5> 
|  6> * xyz 0 1
|  7> C     -4.008100    0.530957    1.313228
|  8> C     -4.041488    0.662644   -0.071718
|  9> C     -2.892531    0.410000   -0.826479
| 10> C     -1.691311    0.019301   -0.210324
| 11> C     -1.678680   -0.105301    1.186402
| 12> C     -2.827383    0.147040    1.942320
| 13> P     -0.241265   -0.264413   -1.279591
| 14> C      0.668203   -1.651850   -0.533695
| 15> C      2.070354   -1.721124   -0.597710
| 16> C      2.768283   -2.809085   -0.063144
| 17> C      2.075293   -3.863076    0.523360
| 18> C      0.685201   -3.836332    0.561828
| 19> C     -0.010181   -2.747431    0.026783
| 20> C      0.728436    1.232767   -0.896131
| 21> C      0.822190    2.229330   -1.884601
| 22> C      1.525887    3.412113   -1.665370
| 23> C      2.152915    3.632202   -0.451341
| 24> C      2.076292    2.671235    0.542686
| 25> C      1.372183    1.487152    0.324914
| 26> F      1.333006    0.592728    1.323204
| 27> F      2.683600    2.878244    1.719753
| 28> F      2.832221    4.767794   -0.239775
| 29> F      1.595986    4.336894   -2.633092
| 30> F      0.226954    2.058004   -3.076469
| 31> H     -4.900741    0.726506    1.901616
| 32> H     -4.961127    0.962073   -0.567964
| 33> H     -2.948525    0.522528   -1.908195
| 34> H     -0.775820   -0.406379    1.713057
| 35> H     -2.796238    0.041981    3.023978
| 36> H      2.647649   -0.931905   -1.072793
| 37> H      3.853826   -2.834566   -0.113517
| 38> H      2.616555   -4.709765    0.936973
| 39> H      0.136511   -4.665773    1.000590
| 40> H     -1.098154   -2.774495    0.051217
| 41> **                         ****END OF INPUT****
================================================================================

                       *****************************
                       * Geometry Optimization Run *
                       *****************************

Geometry optimization settings:
Update method            Update   .... BFGS
Choice of coordinates    CoordSys .... (2022) Redundant Internals
Initial Hessian          InHess   .... Almloef's Model
Max. no of cycles        MaxIter  .... 102

Convergence Tolerances:
Energy Change            TolE     ....  5.0000e-06 Eh
Max. Gradient            TolMAXG  ....  3.0000e-04 Eh/bohr
RMS Gradient             TolRMSG  ....  1.0000e-04 Eh/bohr
Max. Displacement        TolMAXD  ....  4.0000e-03 bohr
RMS Displacement         TolRMSD  ....  2.0000e-03 bohr
Strict Convergence                .... False

------------------------------------------------------------------------------
                        ORCA OPTIMIZATION COORDINATE SETUP
------------------------------------------------------------------------------

The optimization will be done in redundant internal coordinates (2022)
Making redundant internal coordinates   ...  (2022 redundants) done
Evaluating the initial hessian          ...  (Almloef) done
Evaluating the coordinates              ...  done
Calculating the B-matrix                .... done
Calculating the G-matrix                .... done
Diagonalizing the G-matrix              .... done
Small eigenvalue found = 4.730e-03
Small eigenvalue found = 7.147e-03
Small eigenvalue found = 9.742e-03
Small eigenvalue found = 2.300e-02
The first mode is                       ....   81
The number of degrees of freedom        ....   96

    -----------------------------------------------------------------
                    Redundant Internal Coordinates


    -----------------------------------------------------------------
         Definition                    Initial Value    Approx d2E/dq
    -----------------------------------------------------------------
      1. B(C   1,C   0)                  1.3916         0.621150   
      2. B(C   2,C   1)                  1.3977         0.607347   
      3. B(C   3,C   2)                  1.4054         0.590374   
      4. B(C   4,C   3)                  1.4023         0.597128   
      5. B(C   5,C   4)                  1.3981         0.606540   
      6. B(C   5,C   0)                  1.3918         0.620569   
      7. B(P   6,C   3)                  1.8239         0.426618   
      8. B(C   7,P   6)                  1.8189         0.434426   
      9. B(C   8,C   7)                  1.4053         0.590604   
     10. B(C   9,C   8)                  1.3988         0.605014   
     11. B(C  10,C   9)                  1.3911         0.622310   
     12. B(C  11,C  10)                  1.3909         0.622777   
     13. B(C  12,C  11)                  1.3984         0.605801   
     14. B(C  12,C   7)                  1.4052         0.590825   
     15. B(C  13,P   6)                  1.8245         0.425567   
     16. B(C  14,C  13)                  1.4068         0.587467   
     17. B(C  15,C  14)                  1.3936         0.616501   
     18. B(C  16,C  15)                  1.3840         0.638709   
     19. B(C  17,C  16)                  1.3847         0.637060   
     20. B(C  18,C  17)                  1.3947         0.614054   
     21. B(C  18,C  13)                  1.4036         0.594363   
     22. B(F  19,C  18)                  1.3409         0.622649   
     23. B(F  20,C  17)                  1.3406         0.623460   
     24. B(F  21,C  16)                  1.3401         0.624637   
     25. B(F  22,C  15)                  1.3404         0.623924   
     26. B(F  23,C  14)                  1.3432         0.617476   
     27. B(H  24,C   0)                  1.0869         0.364288   
     28. B(H  25,C   1)                  1.0870         0.364038   
     29. B(H  26,C   2)                  1.0890         0.361434   
     30. B(H  27,C   4)                  1.0877         0.363107   
     31. B(H  28,C   5)                  1.0872         0.363831   
     32. B(H  29,C   8)                  1.0871         0.363924   
     33. B(H  30,C   9)                  1.0870         0.364077   
     34. B(H  31,C  10)                  1.0867         0.364489   
     35. B(H  32,C  11)                  1.0870         0.364105   
     36. B(H  33,C  12)                  1.0886         0.361978   
     37. A(C   1,C   0,H  24)          120.1358         0.353712   
     38. A(C   1,C   0,C   5)          119.7542         0.434282   
     39. A(C   5,C   0,H  24)          120.1100         0.353655   
     40. A(C   0,C   1,H  25)          120.0460         0.353671   
     41. A(C   0,C   1,C   2)          120.0391         0.432603   
     42. A(C   2,C   1,H  25)          119.9149         0.352328   
     43. A(C   1,C   2,C   3)          121.0707         0.428674   
     44. A(C   3,C   2,H  26)          120.5410         0.350219   
     45. A(C   1,C   2,H  26)          118.3883         0.351900   
     46. A(C   2,C   3,P   6)          117.7583         0.429218   
     47. A(C   2,C   3,C   4)          117.9732         0.427372   
     48. A(C   4,C   3,P   6)          124.2594         0.430095   
     49. A(C   3,C   4,H  27)          120.9514         0.351166   
     50. A(C   3,C   4,C   5)          121.0033         0.429447   
     51. A(C   5,C   4,H  27)          118.0445         0.352096   
     52. A(C   4,C   5,H  28)          119.7987         0.352214   
     53. A(C   0,C   5,C   4)          120.1591         0.432427   
     54. A(C   0,C   5,H  28)          120.0422         0.353580   
     55. A(C   7,P   6,C  13)          105.9023         0.433175   
     56. A(C   3,P   6,C   7)          106.0077         0.433367   
     57. A(C   3,P   6,C  13)           99.8859         0.431765   
     58. A(C   8,C   7,C  12)          117.4780         0.426590   
     59. A(P   6,C   7,C   8)          121.1846         0.430648   
     60. A(P   6,C   7,C  12)          121.1233         0.430677   
     61. A(C   7,C   8,C   9)          121.2498         0.428408   
     62. A(C   7,C   8,H  29)          120.9275         0.350648   
     63. A(C   9,C   8,H  29)          117.8210         0.352080   
     64. A(C   8,C   9,H  30)          119.9215         0.352105   
     65. A(C   8,C   9,C  10)          120.1249         0.432449   
     66. A(C  10,C   9,H  30)          119.9517         0.353789   
     67. A(C   9,C  10,C  11)          119.6681         0.434706   
     68. A(C   9,C  10,H  31)          120.1774         0.353856   
     69. A(C  11,C  10,H  31)          120.1489         0.353901   
     70. A(C  12,C  11,H  32)          119.8418         0.352187   
     71. A(C  10,C  11,H  32)          120.0652         0.353838   
     72. A(C  10,C  11,C  12)          120.0911         0.432609   
     73. A(C  11,C  12,H  33)          117.9721         0.351838   
     74. A(C   7,C  12,H  33)          120.7188         0.350353   
     75. A(C   7,C  12,C  11)          121.3081         0.428537   
     76. A(C  14,C  13,C  18)          116.8920         0.426639   
     77. A(P   6,C  13,C  18)          125.1217         0.429547   
     78. A(P   6,C  13,C  14)          117.9727         0.428649   
     79. A(C  13,C  14,C  15)          121.6240         0.429446   
     80. A(C  15,C  14,F  23)          118.1379         0.428566   
     81. A(C  13,C  14,F  23)          120.2380         0.424879   
     82. A(C  14,C  15,C  16)          120.1135         0.435951   
     83. A(C  16,C  15,F  22)          119.9931         0.432103   
     84. A(C  14,C  15,F  22)          119.8933         0.429366   
     85. A(C  15,C  16,C  17)          119.6214         0.438537   
     86. A(C  17,C  16,F  21)          120.1860         0.431991   
     87. A(C  15,C  16,F  21)          120.1925         0.432192   
     88. A(C  18,C  17,F  20)          119.7946         0.429002   
     89. A(C  16,C  17,F  20)          119.8723         0.431844   
     90. A(C  16,C  17,C  18)          120.3330         0.435436   
     91. A(C  17,C  18,F  19)          117.6964         0.428902   
     92. A(C  13,C  18,F  19)          120.8879         0.426404   
     93. A(C  13,C  18,C  17)          121.4155         0.430039   
     94. D(H  25,C   1,C   0,C   5)    179.9912         0.026704   
     95. D(C   2,C   1,C   0,H  24)   -179.9674         0.026704   
     96. D(H  25,C   1,C   0,H  24)      0.0300         0.026704   
     97. D(C   2,C   1,C   0,C   5)     -0.0062         0.026704   
     98. D(C   3,C   2,C   1,C   0)      0.1079         0.025463   
     99. D(C   3,C   2,C   1,H  25)   -179.8895         0.025463   
    100. D(H  26,C   2,C   1,C   0)   -179.9220         0.025463   
    101. D(H  26,C   2,C   1,H  25)      0.0806         0.025463   
    102. D(P   6,C   3,C   2,H  26)      0.8694         0.023987   
    103. D(C   4,C   3,C   2,C   1)     -0.2095         0.023987   
    104. D(C   4,C   3,C   2,H  26)    179.8211         0.023987   
    105. D(P   6,C   3,C   2,C   1)   -179.1611         0.023987   
    106. D(H  27,C   4,C   3,C   2)    179.8872         0.024568   
    107. D(C   5,C   4,C   3,C   2)      0.2153         0.024568   
    108. D(C   5,C   4,C   3,P   6)    179.0928         0.024568   
    109. D(H  27,C   4,C   3,P   6)     -1.2352         0.024568   
    110. D(H  28,C   5,C   4,H  27)      0.1641         0.025392   
    111. D(C   0,C   5,C   4,H  27)   -179.8013         0.025392   
    112. D(H  28,C   5,C   0,H  24)      0.0081         0.026651   
    113. D(H  28,C   5,C   0,C   1)   -179.9532         0.026651   
    114. D(C   4,C   5,C   0,H  24)    179.9734         0.026651   
    115. D(H  28,C   5,C   4,C   3)    179.8453         0.025392   
    116. D(C   4,C   5,C   0,C   1)      0.0121         0.026651   
    117. D(C   0,C   5,C   4,C   3)     -0.1201         0.025392   
    118. D(C  13,P   6,C   3,C   4)    -73.0149         0.003765   
    119. D(C  13,P   6,C   3,C   2)    105.8649         0.003765   
    120. D(C   7,P   6,C   3,C   4)     36.8221         0.003765   
    121. D(C   7,P   6,C   3,C   2)   -144.2981         0.003765   
    122. D(C  12,C   7,P   6,C   3)     39.0636         0.003851   
    123. D(C   8,C   7,P   6,C  13)    -40.8740         0.003851   
    124. D(C   8,C   7,P   6,C   3)   -146.3869         0.003851   
    125. D(C  12,C   7,P   6,C  13)    144.5765         0.003851   
    126. D(H  29,C   8,C   7,C  12)    176.3758         0.024007   
    127. D(H  29,C   8,C   7,P   6)      1.6345         0.024007   
    128. D(C   9,C   8,C   7,C  12)     -3.1356         0.024007   
    129. D(C   9,C   8,C   7,P   6)   -177.8769         0.024007   
    130. D(H  30,C   9,C   8,H  29)      1.2396         0.025257   
    131. D(H  30,C   9,C   8,C   7)   -179.2343         0.025257   
    132. D(C  10,C   9,C   8,H  29)   -178.2599         0.025257   
    133. D(C  10,C   9,C   8,C   7)      1.2662         0.025257   
    134. D(H  31,C  10,C   9,H  30)      0.3657         0.026810   
    135. D(H  31,C  10,C   9,C   8)    179.8651         0.026810   
    136. D(C  11,C  10,C   9,H  30)   -178.7771         0.026810   
    137. D(C  11,C  10,C   9,C   8)      0.7222         0.026810   
    138. D(H  32,C  11,C  10,H  31)     -0.3749         0.026853   
    139. D(H  32,C  11,C  10,C   9)    178.7682         0.026853   
    140. D(C  12,C  11,C  10,H  31)   -179.8702         0.026853   
    141. D(C  12,C  11,C  10,C   9)     -0.7270         0.026853   
    142. D(H  33,C  12,C  11,H  32)     -1.1066         0.025326   
    143. D(C   7,C  12,C  11,H  32)    179.2466         0.025326   
    144. D(C   7,C  12,C  11,C  10)     -1.2570         0.025326   
    145. D(H  33,C  12,C   7,C   8)   -176.5048         0.024026   
    146. D(H  33,C  12,C   7,P   6)     -1.7601         0.024026   
    147. D(H  33,C  12,C  11,C  10)    178.3898         0.025326   
    148. D(C  11,C  12,C   7,C   8)      3.1324         0.024026   
    149. D(C  11,C  12,C   7,P   6)    177.8770         0.024026   
    150. D(C  18,C  13,P   6,C   7)    -39.6745         0.003754   
    151. D(C  18,C  13,P   6,C   3)     70.2458         0.003754   
    152. D(C  14,C  13,P   6,C   7)    141.7097         0.003754   
    153. D(C  14,C  13,P   6,C   3)   -108.3700         0.003754   
    154. D(F  23,C  14,C  13,P   6)     -1.0128         0.023740   
    155. D(C  15,C  14,C  13,C  18)      0.2683         0.023740   
    156. D(C  15,C  14,C  13,P   6)    178.9988         0.023740   
    157. D(F  23,C  14,C  13,C  18)   -179.7433         0.023740   
    158. D(F  22,C  15,C  14,F  23)     -0.1756         0.026282   
    159. D(F  22,C  15,C  14,C  13)    179.8130         0.026282   
    160. D(C  16,C  15,C  14,F  23)    179.8886         0.026282   
    161. D(C  16,C  15,C  14,C  13)     -0.1228         0.026282   
    162. D(F  21,C  16,C  15,F  22)     -0.0685         0.028336   
    163. D(F  21,C  16,C  15,C  14)    179.8672         0.028336   
    164. D(C  17,C  16,C  15,F  22)   -179.9563         0.028336   
    165. D(C  17,C  16,C  15,C  14)     -0.0206         0.028336   
    166. D(F  20,C  17,C  16,F  21)      0.0028         0.028180   
    167. D(F  20,C  17,C  16,C  15)    179.8906         0.028180   
    168. D(C  18,C  17,C  16,F  21)   -179.8813         0.028180   
    169. D(C  18,C  17,C  16,C  15)      0.0065         0.028180   
    170. D(F  19,C  18,C  17,F  20)      0.0657         0.026062   
    171. D(F  19,C  18,C  17,C  16)    179.9499         0.026062   
    172. D(C  13,C  18,C  17,F  20)   -179.7326         0.026062   
    173. D(C  13,C  18,C  17,C  16)      0.1516         0.026062   
    174. D(F  19,C  18,C  13,C  14)    179.9260         0.024329   
    175. D(F  19,C  18,C  13,P   6)      1.2968         0.024329   
    176. D(C  17,C  18,C  13,C  14)     -0.2820         0.024329   
    177. D(C  17,C  18,C  13,P   6)   -178.9112         0.024329   
    -----------------------------------------------------------------

Number of atoms                         .... 34
Number of degrees of freedom            .... 177


         *************************************************************
         *                GEOMETRY OPTIMIZATION CYCLE   1            *
         *************************************************************
---------------------------------
CARTESIAN COORDINATES (ANGSTROEM)
---------------------------------
  C     -4.008100    0.530957    1.313228
  C     -4.041488    0.662644   -0.071718
  C     -2.892531    0.410000   -0.826479
  C     -1.691311    0.019301   -0.210324
  C     -1.678680   -0.105301    1.186402
  C     -2.827383    0.147040    1.942320
  P     -0.241265   -0.264413   -1.279591
  C      0.668203   -1.651850   -0.533695
  C      2.070354   -1.721124   -0.597710
  C      2.768283   -2.809085   -0.063144
  C      2.075293   -3.863076    0.523360
  C      0.685201   -3.836332    0.561828
  C     -0.010181   -2.747431    0.026783
  C      0.728436    1.232767   -0.896131
  C      0.822190    2.229330   -1.884601
  C      1.525887    3.412113   -1.665370
  C      2.152915    3.632202   -0.451341
  C      2.076292    2.671235    0.542686
  C      1.372183    1.487152    0.324914
  F      1.333006    0.592728    1.323204
  F      2.683600    2.878244    1.719753
  F      2.832221    4.767794   -0.239775
  F      1.595986    4.336894   -2.633092
  F      0.226954    2.058004   -3.076469
  H     -4.900741    0.726506    1.901616
  H     -4.961127    0.962073   -0.567964
  H     -2.948525    0.522528   -1.908195
  H     -0.775820   -0.406379    1.713057
  H     -2.796238    0.041981    3.023978
  H      2.647649   -0.931905   -1.072793
  H      3.853826   -2.834566   -0.113517
  H      2.616555   -4.709765    0.936973
  H      0.136511   -4.665773    1.000590
  H     -1.098154   -2.774495    0.051217

----------------------------
CARTESIAN COORDINATES (A.U.)
----------------------------
  NO LB      ZA    FRAG     MASS         X           Y           Z
   0 C     6.0000    0    12.011   -7.574211    1.003363    2.481641
   1 C     6.0000    0    12.011   -7.637305    1.252216   -0.135527
   2 C     6.0000    0    12.011   -5.466091    0.774788   -1.561819
   3 C     6.0000    0    12.011   -3.196115    0.036474   -0.397455
   4 C     6.0000    0    12.011   -3.172245   -0.198990    2.241975
   5 C     6.0000    0    12.011   -5.342980    0.277865    3.670453
   6 P    15.0000    0    30.974   -0.455925   -0.499668   -2.418077
   7 C     6.0000    0    12.011    1.262721   -3.121544   -1.008537
   8 C     6.0000    0    12.011    3.912402   -3.252453   -1.129508
   9 C     6.0000    0    12.011    5.231297   -5.308401   -0.119325
  10 C     6.0000    0    12.011    3.921735   -7.300156    0.989007
  11 C     6.0000    0    12.011    1.294842   -7.249617    1.061701
  12 C     6.0000    0    12.011   -0.019239   -5.191892    0.050613
  13 C     6.0000    0    12.011    1.376545    2.329592   -1.693442
  14 C     6.0000    0    12.011    1.553714    4.212823   -3.561380
  15 C     6.0000    0    12.011    2.883509    6.447959   -3.147093
  16 C     6.0000    0    12.011    4.068420    6.863867   -0.852911
  17 C     6.0000    0    12.011    3.923623    5.047903    1.025528
  18 C     6.0000    0    12.011    2.593050    2.810310    0.613998
  19 F     9.0000    0    18.998    2.519016    1.120094    2.500493
  20 F     9.0000    0    18.998    5.071269    5.439093    3.249862
  21 F     9.0000    0    18.998    5.352122    9.009825   -0.453109
  22 F     9.0000    0    18.998    3.015976    8.195542   -4.975823
  23 F     9.0000    0    18.998    0.428881    3.889064   -5.813684
  24 H     1.0000    0     1.008   -9.261058    1.372897    3.593533
  25 H     1.0000    0     1.008   -9.375171    1.818054   -1.073296
  26 H     1.0000    0     1.008   -5.571905    0.987435   -3.605966
  27 H     1.0000    0     1.008   -1.466087   -0.767945    3.237209
  28 H     1.0000    0     1.008   -5.284124    0.079333    5.714490
  29 H     1.0000    0     1.008    5.003332   -1.761045   -2.027285
  30 H     1.0000    0     1.008    7.282676   -5.356553   -0.214516
  31 H     1.0000    0     1.008    4.944572   -8.900166    1.770622
  32 H     1.0000    0     1.008    0.257968   -8.817033    1.890841
  33 H     1.0000    0     1.008   -2.075210   -5.243036    0.096786

--------------------------------
INTERNAL COORDINATES (ANGSTROEM)
--------------------------------
 C      0   0   0     0.000000000000     0.00000000     0.00000000
 C      1   0   0     1.391593204722     0.00000000     0.00000000
 C      2   1   0     1.397710751803   120.03910821     0.00000000
 C      3   2   1     1.405425978494   121.07074054     0.10791243
 C      4   3   2     1.402329747114   117.97321754   359.79054747
 C      1   2   3     1.391848282480   119.75415701     0.00000000
 P      4   3   2     1.823858260173   117.75828868   180.83887141
 C      7   4   3     1.818921195327   106.00771495   215.70186525
 C      8   7   4     1.405319975700   121.18462069   213.61311199
 C      9   8   7     1.398758318981   121.24982474   182.12314840
 C     10   9   8     1.391085586942   120.12493535     1.26618743
 C     11  10   9     1.390881302277   119.66805530     0.72221105
 C     12  11  10     1.398404328422   120.09110640   359.27295603
 C      7   4   3     1.824529954098    99.88590040   105.86490699
 C     14   7   4     1.406769549850   117.97268294   251.63004073
 C     15  14   7     1.393638161166   121.62402232   178.99881564
 C     16  15  14     1.384004947081   120.11349730   359.87720856
 C     17  16  15     1.384708754918   119.62141543     0.00000000
 C     18  17  16     1.394721003912   120.33296030     0.00000000
 F     19  18  17     1.340937005681   117.69635257   179.94994446
 F     18  17  16     1.340582878987   119.87232536   179.89062115
 F     17  16  15     1.340069402850   120.19249850   179.86720283
 F     16  15  14     1.340380407588   119.89332396   179.81297911
 F     15  14   7     1.343208034296   120.23804956   358.98716238
 H      1   2   3     1.086852246088   120.13581677   180.03257315
 H      2   1   3     1.087038963827   120.04600773   179.99738031
 H      3   2   1     1.088993748134   118.38827720   180.07798341
 H      5   4   3     1.087736011498   120.95140808   179.88721163
 H      6   1   2     1.087194294259   120.04220028   180.04678922
 H      9   8   7     1.087124649649   120.92745584     1.63452175
 H     10   9   8     1.087009809219   119.92147215   180.76568902
 H     11  10   9     1.086702594611   120.17744910   179.86507094
 H     12  11  10     1.086989043747   120.06517725   178.76821127
 H     13  12  11     1.088583818170   117.97213406   178.38980530

---------------------------
INTERNAL COORDINATES (A.U.)
---------------------------
 C      0   0   0     0.000000000000     0.00000000     0.00000000
 C      1   0   0     2.629730046751     0.00000000     0.00000000
 C      2   1   0     2.641290535345   120.03910821     0.00000000
 C      3   2   1     2.655870200852   121.07074054     0.10791243
 C      4   3   2     2.650019171497   117.97321754   359.79054747
 C      1   2   3     2.630212073856   119.75415701     0.00000000
 P      4   3   2     3.446592618817   117.75828868   180.83887141
 C      7   4   3     3.437262918352   106.00771495   215.70186525
 C      8   7   4     2.655669884602   121.18462069   213.61311199
 C      9   8   7     2.643270150418   121.24982474   182.12314840
 C     10   9   8     2.628770788165   120.12493535     1.26618743
 C     11  10   9     2.628384746095   119.66805530     0.72221105
 C     12  11  10     2.642601205208   120.09110640   359.27295603
 C      7   4   3     3.447861936381    99.88590040   105.86490699
 C     14   7   4     2.658409182756   117.97268294   251.63004073
 C     15  14   7     2.633594454386   121.62402232   178.99881564
 C     16  15  14     2.615390317976   120.11349730   359.87720856
 C     17  16  15     2.616720322038   119.62141543     0.00000000
 C     18  17  16     2.635640730622   120.33296030     0.00000000
 F     19  18  17     2.534003703578   117.69635257   179.94994446
 F     18  17  16     2.533334501110   119.87232536   179.89062115
 F     17  16  15     2.532364171835   120.19249850   179.86720283
 F     16  15  14     2.532951885615   119.89332396   179.81297911
 F     15  14   7     2.538295325701   120.23804956   358.98716238
 H      1   2   3     2.053853093143   120.13581677   180.03257315
 H      2   1   3     2.054205938534   120.04600773   179.99738031
 H      3   2   1     2.057899945527   118.38827720   180.07798341
 H      5   4   3     2.055523167735   120.95140808   179.88721163
 H      6   1   2     2.054499470512   120.04220028   180.04678922
 H      9   8   7     2.054367861272   120.92745584     1.63452175
 H     10   9   8     2.054150844310   119.92147215   180.76568902
 H     11  10   9     2.053570292836   120.17744910   179.86507094
 H     12  11  10     2.054111603254   120.06517725   178.76821127
 H     13  12  11     2.057125290159   117.97213406   178.38980530

---------------------
BASIS SET INFORMATION
---------------------
There are 4 groups of distinct atoms

 Group   1 Type C   : 7s4p1d contracted to 3s2p1d pattern {511/31/1}
 Group   2 Type P   : 10s7p1d contracted to 4s3p1d pattern {5311/511/1}
 Group   3 Type F   : 7s4p1d contracted to 3s2p1d pattern {511/31/1}
 Group   4 Type H   : 4s1p contracted to 2s1p pattern {31/1}

Atom   0C    basis set group =>   1
Atom   1C    basis set group =>   1
Atom   2C    basis set group =>   1
Atom   3C    basis set group =>   1
Atom   4C    basis set group =>   1
Atom   5C    basis set group =>   1
Atom   6P    basis set group =>   2
Atom   7C    basis set group =>   1
Atom   8C    basis set group =>   1
Atom   9C    basis set group =>   1
Atom  10C    basis set group =>   1
Atom  11C    basis set group =>   1
Atom  12C    basis set group =>   1
Atom  13C    basis set group =>   1
Atom  14C    basis set group =>   1
Atom  15C    basis set group =>   1
Atom  16C    basis set group =>   1
Atom  17C    basis set group =>   1
Atom  18C    basis set group =>   1
Atom  19F    basis set group =>   3
Atom  20F    basis set group =>   3
Atom  21F    basis set group =>   3
Atom  22F    basis set group =>   3
Atom  23F    basis set group =>   3
Atom  24H    basis set group =>   4
Atom  25H    basis set group =>   4
Atom  26H    basis set group =>   4
Atom  27H    basis set group =>   4
Atom  28H    basis set group =>   4
Atom  29H    basis set group =>   4
Atom  30H    basis set group =>   4
Atom  31H    basis set group =>   4
Atom  32H    basis set group =>   4
Atom  33H    basis set group =>   4
---------------------------------
AUXILIARY/J BASIS SET INFORMATION
---------------------------------
There are 4 groups of distinct atoms

 Group   1 Type C   : 12s5p4d2f1g contracted to 6s4p3d1f1g pattern {711111/2111/211/2/1}
 Group   2 Type P   : 14s5p5d2f1g contracted to 8s4p3d1f1g pattern {71111111/2111/311/2/1}
 Group   3 Type F   : 12s5p4d2f1g contracted to 6s4p3d1f1g pattern {711111/2111/211/2/1}
 Group   4 Type H   : 5s2p1d contracted to 3s1p1d pattern {311/2/1}

Atom   0C    basis set group =>   1
Atom   1C    basis set group =>   1
Atom   2C    basis set group =>   1
Atom   3C    basis set group =>   1
Atom   4C    basis set group =>   1
Atom   5C    basis set group =>   1
Atom   6P    basis set group =>   2
Atom   7C    basis set group =>   1
Atom   8C    basis set group =>   1
Atom   9C    basis set group =>   1
Atom  10C    basis set group =>   1
Atom  11C    basis set group =>   1
Atom  12C    basis set group =>   1
Atom  13C    basis set group =>   1
Atom  14C    basis set group =>   1
Atom  15C    basis set group =>   1
Atom  16C    basis set group =>   1
Atom  17C    basis set group =>   1
Atom  18C    basis set group =>   1
Atom  19F    basis set group =>   3
Atom  20F    basis set group =>   3
Atom  21F    basis set group =>   3
Atom  22F    basis set group =>   3
Atom  23F    basis set group =>   3
Atom  24H    basis set group =>   4
Atom  25H    basis set group =>   4
Atom  26H    basis set group =>   4
Atom  27H    basis set group =>   4
Atom  28H    basis set group =>   4
Atom  29H    basis set group =>   4
Atom  30H    basis set group =>   4
Atom  31H    basis set group =>   4
Atom  32H    basis set group =>   4
Atom  33H    basis set group =>   4


           ************************************************************
           *        Program running with 6 parallel MPI-processes     *
           *              working on a common directory               *
           ************************************************************
------------------------------------------------------------------------------
                             ORCA STARTUP CALCULATIONS
                           -- RI-GTO INTEGRALS CHOSEN --
------------------------------------------------------------------------------
------------------------------------------------------------------------------
                   ___                                                        
                  /   \      - P O W E R E D   B Y -                         
                 /     \                                                     
                 |  |  |   _    _      __       _____    __    __             
                 |  |  |  | |  | |    /  \     |  _  \  |  |  /  |          
                  \  \/   | |  | |   /    \    | | | |  |  | /  /          
                 / \  \   | |__| |  /  /\  \   | |_| |  |  |/  /          
                |  |  |   |  __  | /  /__\  \  |    /   |      \           
                |  |  |   | |  | | |   __   |  |    \   |  |\   \          
                \     /   | |  | | |  |  |  |  | |\  \  |  | \   \       
                 \___/    |_|  |_| |__|  |__|  |_| \__\ |__|  \__/        
                                                                              
                      - O R C A' S   B I G   F R I E N D -                    
                                      &                                       
                       - I N T E G R A L  F E E D E R -                       
                                                                              
 v1 FN, 2020, v2 2021, v3 2022-2024                                           
------------------------------------------------------------------------------


----------------------
SHARK INTEGRAL PACKAGE
----------------------

Number of atoms                             ...     34
Number of basis functions                   ...    390
Number of shells                            ...    176
Maximum angular momentum                    ...      2
Integral batch strategy                     ... SHARK/LIBINT Hybrid
RI-J (if used) integral strategy            ... SPLIT-RIJ (Revised 2003 algorithm where possible)
Printlevel                                  ...      1
Contraction scheme used                     ... SEGMENTED contraction
Prescreening option                         ... SCHWARTZ
   Thresh                                   ... 2.500e-11
   Tcut                                     ... 2.500e-12
   Tpresel                                  ... 2.500e-12 
Coulomb Range Separation                    ... NOT USED
Exchange Range Separation                   ... NOT USED
Multipole approximations                    ... NOT USED
Finite Nucleus Model                        ... NOT USED
CABS basis                                  ... NOT available
Auxiliary Coulomb fitting basis             ... AVAILABLE
   # of basis functions in Aux-J            ...   1288
   # of shells in Aux-J                     ...    412
   Maximum angular momentum in Aux-J        ...      4
Auxiliary J/K fitting basis                 ... NOT available
Auxiliary Correlation fitting basis         ... NOT available
Auxiliary 'external' fitting basis          ... NOT available

Checking pre-screening integrals            ... done (  0.0 sec) Dimension = 176
Check shell pair data                       ... done (  0.0 sec)
Shell pair information
Shell pair cut-off parameter TPreSel        ...   2.5e-12
Total number of shell pairs                 ...     15576
Shell pairs after pre-screening             ...     11305
Total number of primitive shell pairs       ...     59692
Primitive shell pairs kept                  ...     26944
          la=0 lb=0:   3160 shell pairs
          la=1 lb=0:   4154 shell pairs
          la=1 lb=1:   1405 shell pairs
          la=2 lb=0:   1454 shell pairs
          la=2 lb=1:    962 shell pairs
          la=2 lb=2:    170 shell pairs

Calculating one electron integrals          ... done (  0.0 sec)
Calculating RI/J V-Matrix + Cholesky decomp.... done (  0.1 sec)
Calculating Nuclear repulsion               ... done (  0.0 sec) ENN=   2192.036788599672 Eh

Diagonalization of the overlap matrix:
Smallest eigenvalue                        ... 1.305e-04
Time for diagonalization                   ...    0.020 sec
Threshold for overlap eigenvalues          ... 1.000e-07
Number of eigenvalues below threshold      ... 0
Time for construction of square roots      ...    0.011 sec
Total time needed                          ...    0.032 sec

-------------------
DFT GRID GENERATION
-------------------

General Integration Accuracy     IntAcc      ... 4.388
Radial Grid Type                 RadialGrid  ... OptM3 with GC (2021)
Angular Grid (max. ang.)         AngularGrid ... 4 (Lebedev-302)
Angular grid pruning method      GridPruning ... 4 (adaptive)
Weight generation scheme         WeightScheme... mBecke (2022)
Basis function cutoff            BFCut       ... 1.0000e-11
Integration weight cutoff        WCut        ... 1.0000e-14
Partially contracted basis set               ... off
Rotationally invariant grid construction     ... off
Angular grids for H and He will be reduced by one unit

Total number of grid points                  ...   176968
Total number of batches                      ...     2788
Average number of points per batch           ...       63
Average number of grid points per atom       ...     5205
Initializing property integral containers    ... done (  0.0 sec)

SHARK setup successfully completed in   1.3 seconds

Maximum memory used throughout the entire STARTUP-calculation: 47.8 MB


           ************************************************************
           *        Program running with 6 parallel MPI-processes     *
           *              working on a common directory               *
           ************************************************************
-------------------------------------------------------------------------------
                                 ORCA GUESS
                   Start orbitals & Density for SCF / CASSCF
-------------------------------------------------------------------------------

------------
SCF SETTINGS
------------
Hamiltonian:
 Density Functional     Method          .... DFT(GTOs)
 Exchange Functional    Exchange        .... B88
   X-Alpha parameter    XAlpha          ....  0.666667
   Becke's b parameter  XBeta           ....  0.004200
 Correlation Functional Correlation     .... LYP
 LDA part of GGA corr.  LDAOpt          .... VWN-5
 Gradients option       PostSCFGGA      .... off
 Hybrid DFT is turned on
   Fraction HF Exchange ScalHFX         ....  0.200000
   Scaling of DF-GGA-X  ScalDFX         ....  0.720000
   Scaling of DF-GGA-C  ScalDFC         ....  0.810000
   Scaling of DF-LDA-C  ScalLDAC        ....  1.000000
   Perturbative correction              ....  0.000000
   NL short-range parameter             ....  4.800000
 RI-approximation to the Coulomb term is turned on
   Number of AuxJ basis functions       .... 1288
   RIJ-ON(X) (HFX calculated with O(N)) .... on


General Settings:
 Integral files         IntName         .... data/geom_opt/300563/300563
 Hartree-Fock type      HFTyp           .... RHF
 Total Charge           Charge          ....    0
 Multiplicity           Mult            ....    1
 Number of Electrons    NEL             ....  178
 Basis Dimension        Dim             ....  390
 Nuclear Repulsion      ENuc            ....   2192.0367885997 Eh

Convergence Acceleration:
 AO-DIIS                CNVDIIS         .... on
   Start iteration      DIISMaxIt       ....    12
   Startup error        DIISStart       ....  0.200000
   # of expansion vecs  DIISMaxEq       ....     5
   Bias factor          DIISBfac        ....   1.050
   Max. coefficient     DIISMaxC        ....  10.000
 MO-DIIS                CNVKDIIS        .... off
 Trust-Rad. Augm. Hess. CNVTRAH         .... auto
   Auto Start mean grad. ratio tolernc. ....  1.125000
   Auto Start start iteration           ....    50
   Auto Start num. interpolation iter.  ....    10
   Max. Number of Micro iterations      ....    24
   Max. Number of Macro iterations      .... Maxiter - #DIIS iter
   Number of Davidson start vectors     ....     2
   Converg. threshold    (grad. norm)   ....   1.000e-05
   Grad. Scal. Fac. for Micro threshold ....   0.100
   Minimum threshold for Micro iter.    ....   1.000e-02
   NR start threshold (gradient norm)   ....   1.000e-04
   Initial trust radius                 ....   0.400
   Minimum AH scaling param. (alpha)    ....   1.000
   Maximum AH scaling param. (alpha)    .... 1000.000
   Quad. conv. algorithm                .... NR
   White noise on init. David. guess    .... on
   Maximum white noise                  ....   0.010
   Pseudo random numbers                .... off
   Inactive MOs                         .... canonical
   Orbital update algorithm             .... Taylor
   Preconditioner                       .... Diag
   Full preconditioner red. dimension   ....   250
   COSX micro iterations for RIJONX calc.... off
 SOSCF                  CNVSOSCF        .... on
   Start iteration      SOSCFMaxIt      ....   150
   Startup grad/error   SOSCFStart      ....  0.003300
   Hessian update       SOSCFHessUp     .... L-BFGS
 Level Shifting         CNVShift        .... on
   Level shift para.    LevelShift      ....    0.2500
   Turn off err/grad.   ShiftErr        ....    0.0010
 Zerner damping         CNVZerner       .... off
 Static damping         CNVDamp         .... on
   Fraction old density DampFac         ....    0.7000
   Max. Damping (<1)    DampMax         ....    0.9800
   Min. Damping (>=0)   DampMin         ....    0.0000
   Turn off err/grad.   DampErr         ....    0.1000

SCF Procedure:
 Maximum # iterations   MaxIter         ....   125
 SCF integral mode      SCFMode         .... Direct
   Integral package                     .... SHARK and LIBINT hybrid scheme
 Reset frequency        DirectResetFreq ....    20
 Integral Threshold     Thresh          ....  2.500e-11 Eh
 Primitive CutOff       TCut            ....  2.500e-12 Eh

Convergence Tolerance:
 Convergence Check Mode ConvCheckMode   .... Total+1el-Energy
 Convergence forced     ConvForced      .... 0
 Energy Change          TolE            ....  1.000e-08 Eh
 1-El. energy change                    ....  1.000e-05 Eh
 Orbital Gradient       TolG            ....  1.000e-05
 Orbital Rotation angle TolX            ....  1.000e-05
 DIIS Error             TolErr          ....  5.000e-07

------------------------------
INITIAL GUESS: MODEL POTENTIAL
------------------------------
Loading Hartree-Fock densities                     ... done
Calculating cut-offs                               ... done
Initializing the effective Hamiltonian             ... done
Setting up the integral package (SHARK)            ... done
Starting the Coulomb interaction                   ... done (   0.2 sec)
Making the grid                                    ... done (   0.3 sec)
Mapping shells                                     ... done
Starting the XC term evaluation                    ... done (   0.2 sec)
  promolecular density results
     # of electrons  =    177.992734269
     EX              =   -168.450743775
     EC              =     -6.345118242
     EX+EC           =   -174.795862018
Transforming the Hamiltonian                       ... done (   0.0 sec)
Diagonalizing the Hamiltonian                      ... done (   0.0 sec)
Back transforming the eigenvectors                 ... done (   0.0 sec)
Now organizing SCF variables                       ... done
                      ------------------
                      INITIAL GUESS DONE (   0.7 sec)
                      ------------------
             **** ENERGY FILE WAS UPDATED (data/geom_opt/300563/300563.en.tmp) ****
Finished Guess after   0.8 sec
Maximum memory used throughout the entire GUESS-calculation: 27.5 MB


           ************************************************************
           *        Program running with 6 parallel MPI-processes     *
           *              working on a common directory               *
           ************************************************************

-------------------------------------------------------------------------------------------
                                      ORCA LEAN-SCF
                              memory conserving SCF solver
-------------------------------------------------------------------------------------------

----------------------------------------D-I-I-S--------------------------------------------
Iteration    Energy (Eh)           Delta-E    RMSDP     MaxDP     DIISErr   Damp  Time(sec)
-------------------------------------------------------------------------------------------
               ***  Starting incremental Fock matrix formation  ***
    1    -1530.4631358945757711     0.00e+00  2.15e-03  7.03e-02  1.24e-01  0.700   5.1
    2    -1530.6164576615333317    -1.53e-01  1.54e-03  5.30e-02  6.19e-02  0.700   4.4
                               ***Turning on AO-DIIS***
    3    -1530.6833897702586000    -6.69e-02  7.10e-04  2.92e-02  2.75e-02  0.700   4.3
    4    -1530.7225384655398557    -3.91e-02  1.40e-03  7.02e-02  1.54e-02  0.000   4.1
    5    -1530.8067351428071561    -8.42e-02  2.11e-04  9.85e-03  4.09e-03  0.000   4.5
                              *** Initializing SOSCF ***
---------------------------------------S-O-S-C-F--------------------------------------
Iteration    Energy (Eh)           Delta-E    RMSDP     MaxDP     MaxGrad    Time(sec)
--------------------------------------------------------------------------------------
    6    -1530.8071045432257051    -3.69e-04  6.62e-05  2.59e-03  1.38e-03     3.8
               *** Restarting incremental Fock matrix formation ***
    7    -1530.8071337225155730    -2.92e-05  7.01e-05  3.75e-03  4.90e-04     5.1
    8    -1530.8071205972669304     1.31e-05  3.98e-05  2.29e-03  7.96e-04     3.4
    9    -1530.8071432805959375    -2.27e-05  6.22e-06  2.53e-04  3.28e-05     3.1
   10    -1530.8071431086555094     1.72e-07  3.60e-06  1.62e-04  6.33e-05     2.8
   11    -1530.8071433791365052    -2.70e-07  1.54e-06  4.10e-05  9.21e-06     2.7
   12    -1530.8071433923778386    -1.32e-08  9.36e-07  3.17e-05  1.24e-05     2.4
   13    -1530.8071433767090639     1.57e-08  3.98e-07  1.24e-05  3.08e-06     2.3
   14    -1530.8071433831214563    -6.41e-09  2.47e-07  8.10e-06  4.35e-06     2.0
                 **** Energy Check signals convergence ****

               *****************************************************
               *                     SUCCESS                       *
               *           SCF CONVERGED AFTER  14 CYCLES          *
               *****************************************************

             **** ENERGY FILE WAS UPDATED (data/geom_opt/300563/300563.en.tmp) ****

----------------
TOTAL SCF ENERGY
----------------

Total Energy       :      -1530.80714338312146 Eh          -41655.38009 eV

Components:
Nuclear Repulsion  :       2192.03678859967249 Eh           59648.35348 eV
Electronic Energy  :      -3722.84393198279395 Eh         -101303.73357 eV
One Electron Energy:      -6463.38078680741091 Eh         -175877.53265 eV
Two Electron Energy:       2740.53685482461697 Eh           74573.79908 eV

Virial components:
Potential Energy   :      -3050.99988491335534 Eh          -83021.92762 eV
Kinetic Energy     :       1520.19274153023412 Eh           41366.54753 eV
Virial Ratio       :          2.00698227373603

DFT components:
N(Alpha)           :       88.999980562159 electrons
N(Beta)            :       88.999980562159 electrons
N(Total)           :      177.999961124318 electrons
E(X)               :     -134.875291311680 Eh       
E(C)               :       -7.449754425513 Eh       
E(XC)              :     -142.325045737193 Eh       

---------------
SCF CONVERGENCE
---------------

  Last Energy change         ...    6.4124e-09  Tolerance :   1.0000e-08
  Last MAX-Density change    ...    8.1008e-06  Tolerance :   1.0000e-07
  Last RMS-Density change    ...    2.4658e-07  Tolerance :   5.0000e-09
  Last DIIS Error            ...    1.3823e-03  Tolerance :   5.0000e-07
  Last Orbital Gradient      ...    4.3533e-06  Tolerance :   1.0000e-05
  Last Orbital Rotation      ...    5.6516e-06  Tolerance :   1.0000e-05


----------------
ORBITAL ENERGIES
----------------

  NO   OCC          E(Eh)            E(eV) 
   0   2.0000     -77.067925     -2097.1248 
   1   2.0000     -24.730601      -672.9539 
   2   2.0000     -24.728081      -672.8853 
   3   2.0000     -24.724306      -672.7826 
   4   2.0000     -24.724079      -672.7764 
   5   2.0000     -24.721946      -672.7183 
   6   2.0000     -10.311294      -280.5846 
   7   2.0000     -10.308710      -280.5143 
   8   2.0000     -10.308352      -280.5045 
   9   2.0000     -10.304233      -280.3924 
  10   2.0000     -10.304103      -280.3889 
  11   2.0000     -10.229661      -278.3632 
  12   2.0000     -10.202344      -277.6199 
  13   2.0000     -10.202212      -277.6163 
  14   2.0000     -10.200622      -277.5730 
  15   2.0000     -10.198540      -277.5164 
  16   2.0000     -10.198003      -277.5018 
  17   2.0000     -10.196822      -277.4696 
  18   2.0000     -10.196573      -277.4629 
  19   2.0000     -10.196510      -277.4611 
  20   2.0000     -10.195852      -277.4433 
  21   2.0000     -10.193457      -277.3781 
  22   2.0000     -10.193300      -277.3738 
  23   2.0000     -10.190911      -277.3088 
  24   2.0000      -6.564065      -178.6173 
  25   2.0000      -4.729814      -128.7048 
  26   2.0000      -4.729175      -128.6874 
  27   2.0000      -4.726415      -128.6123 
  28   2.0000      -1.247898       -33.9570 
  29   2.0000      -1.240829       -33.7647 
  30   2.0000      -1.234904       -33.6034 
  31   2.0000      -1.225554       -33.3490 
  32   2.0000      -1.221610       -33.2417 
  33   2.0000      -0.902124       -24.5480 
  34   2.0000      -0.858995       -23.3744 
  35   2.0000      -0.851827       -23.1794 
  36   2.0000      -0.797217       -21.6934 
  37   2.0000      -0.777123       -21.1466 
  38   2.0000      -0.762247       -20.7418 
  39   2.0000      -0.746386       -20.3102 
  40   2.0000      -0.744222       -20.2513 
  41   2.0000      -0.740842       -20.1593 
  42   2.0000      -0.685087       -18.6422 
  43   2.0000      -0.664429       -18.0800 
  44   2.0000      -0.641320       -17.4512 
  45   2.0000      -0.609743       -16.5920 
  46   2.0000      -0.606457       -16.5025 
  47   2.0000      -0.599738       -16.3197 
  48   2.0000      -0.598755       -16.2930 
  49   2.0000      -0.597056       -16.2467 
  50   2.0000      -0.580833       -15.8053 
  51   2.0000      -0.562525       -15.3071 
  52   2.0000      -0.551070       -14.9954 
  53   2.0000      -0.545554       -14.8453 
  54   2.0000      -0.532014       -14.4768 
  55   2.0000      -0.525258       -14.2930 
  56   2.0000      -0.522553       -14.2194 
  57   2.0000      -0.507009       -13.7964 
  58   2.0000      -0.500870       -13.6294 
  59   2.0000      -0.490535       -13.3481 
  60   2.0000      -0.471774       -12.8376 
  61   2.0000      -0.466595       -12.6967 
  62   2.0000      -0.463631       -12.6160 
  63   2.0000      -0.462510       -12.5855 
  64   2.0000      -0.456072       -12.4103 
  65   2.0000      -0.452473       -12.3124 
  66   2.0000      -0.445336       -12.1182 
  67   2.0000      -0.442514       -12.0414 
  68   2.0000      -0.435253       -11.8438 
  69   2.0000      -0.427297       -11.6273 
  70   2.0000      -0.424902       -11.5622 
  71   2.0000      -0.420408       -11.4399 
  72   2.0000      -0.416962       -11.3461 
  73   2.0000      -0.398042       -10.8313 
  74   2.0000      -0.392179       -10.6717 
  75   2.0000      -0.378375       -10.2961 
  76   2.0000      -0.375531       -10.2187 
  77   2.0000      -0.365862        -9.9556 
  78   2.0000      -0.357746        -9.7348 
  79   2.0000      -0.353945        -9.6313 
  80   2.0000      -0.350174        -9.5287 
  81   2.0000      -0.335952        -9.1417 
  82   2.0000      -0.286888        -7.8066 
  83   2.0000      -0.282607        -7.6901 
  84   2.0000      -0.265423        -7.2225 
  85   2.0000      -0.264528        -7.1982 
  86   2.0000      -0.263757        -7.1772 
  87   2.0000      -0.257722        -7.0130 
  88   2.0000      -0.221745        -6.0340 
  89   0.0000      -0.053753        -1.4627 
  90   0.0000      -0.030543        -0.8311 
  91   0.0000      -0.028130        -0.7655 
  92   0.0000      -0.021289        -0.5793 
  93   0.0000      -0.019701        -0.5361 
  94   0.0000      -0.008595        -0.2339 
  95   0.0000       0.005722         0.1557 
  96   0.0000       0.055450         1.5089 
  97   0.0000       0.056942         1.5495 
  98   0.0000       0.075752         2.0613 
  99   0.0000       0.082319         2.2400 
*Only the first 10 virtual orbitals were printed.

                    ********************************
                    * MULLIKEN POPULATION ANALYSIS *
                    ********************************

-----------------------
MULLIKEN ATOMIC CHARGES
-----------------------
   0 C :    0.030481
   1 C :    0.024502
   2 C :    0.023713
   3 C :   -0.142542
   4 C :    0.011545
   5 C :    0.027878
   6 P :    0.388011
   7 C :   -0.098701
   8 C :    0.001961
   9 C :    0.028590
  10 C :    0.022134
  11 C :    0.027139
  12 C :   -0.009321
  13 C :   -0.285584
  14 C :    0.199630
  15 C :    0.191751
  16 C :    0.140304
  17 C :    0.201973
  18 C :    0.206364
  19 F :   -0.170095
  20 F :   -0.170568
  21 F :   -0.165584
  22 F :   -0.169430
  23 F :   -0.165936
  24 H :   -0.014454
  25 H :   -0.014872
  26 H :   -0.013476
  27 H :    0.002392
  28 H :   -0.016752
  29 H :   -0.023439
  30 H :   -0.018374
  31 H :   -0.018722
  32 H :   -0.018038
  33 H :   -0.012480
Sum of atomic charges:   -0.0000000

--------------------------------
MULLIKEN REDUCED ORBITAL CHARGES
--------------------------------
  0 C s       :     3.159569  s :     3.159569
      pz      :     0.927933  p :     2.774398
      px      :     0.882974
      py      :     0.963492
      dz2     :     0.009236  d :     0.035552
      dxz     :     0.012337
      dyz     :     0.005791
      dx2y2   :     0.004438
      dxy     :     0.003750

  1 C s       :     3.160211  s :     3.160211
      pz      :     0.933973  p :     2.780347
      px      :     0.871975
      py      :     0.974399
      dz2     :     0.009627  d :     0.034940
      dxz     :     0.011842
      dyz     :     0.005823
      dx2y2   :     0.004018
      dxy     :     0.003629

  2 C s       :     3.219244  s :     3.219244
      pz      :     0.836006  p :     2.722037
      px      :     0.924542
      py      :     0.961488
      dz2     :     0.009736  d :     0.035006
      dxz     :     0.009994
      dyz     :     0.002948
      dx2y2   :     0.006004
      dxy     :     0.006323

  3 C s       :     3.067607  s :     3.067607
      pz      :     1.003746  p :     3.038189
      px      :     1.002391
      py      :     1.032052
      dz2     :     0.010046  d :     0.036746
      dxz     :     0.012120
      dyz     :     0.005767
      dx2y2   :     0.004778
      dxy     :     0.004036

  4 C s       :     3.221692  s :     3.221692
      pz      :     0.932204  p :     2.731724
      px      :     0.856094
      py      :     0.943426
      dz2     :     0.009407  d :     0.035039
      dxz     :     0.011988
      dyz     :     0.005991
      dx2y2   :     0.003943
      dxy     :     0.003711

  5 C s       :     3.160501  s :     3.160501
      pz      :     0.832385  p :     2.776580
      px      :     0.960969
      py      :     0.983226
      dz2     :     0.009955  d :     0.035042
      dxz     :     0.010159
      dyz     :     0.003029
      dx2y2   :     0.005844
      dxy     :     0.006056

  6 P s       :     5.671144  s :     5.671144
      pz      :     3.302595  p :     8.760041
      px      :     2.735067
      py      :     2.722378
      dz2     :     0.017574  d :     0.180805
      dxz     :     0.041046
      dyz     :     0.029497
      dx2y2   :     0.035303
      dxy     :     0.057384

  7 C s       :     3.039953  s :     3.039953
      pz      :     0.992039  p :     3.022277
      px      :     1.012611
      py      :     1.017627
      dz2     :     0.004326  d :     0.036470
      dxz     :     0.007168
      dyz     :     0.004923
      dx2y2   :     0.009498
      dxy     :     0.010556

  8 C s       :     3.207556  s :     3.207556
      pz      :     0.954533  p :     2.755726
      px      :     0.920004
      py      :     0.881188
      dz2     :     0.003214  d :     0.034757
      dxz     :     0.006855
      dyz     :     0.004179
      dx2y2   :     0.009454
      dxy     :     0.011055

  9 C s       :     3.156191  s :     3.156191
      pz      :     0.979709  p :     2.779884
      px      :     0.832977
      py      :     0.967197
      dz2     :     0.004821  d :     0.035335
      dxz     :     0.004148
      dyz     :     0.006027
      dx2y2   :     0.011451
      dxy     :     0.008888

 10 C s       :     3.157689  s :     3.157689
      pz      :     0.963685  p :     2.784771
      px      :     0.931971
      py      :     0.889115
      dz2     :     0.003469  d :     0.035405
      dxz     :     0.006960
      dyz     :     0.004070
      dx2y2   :     0.009830
      dxy     :     0.011077

 11 C s       :     3.157140  s :     3.157140
      pz      :     0.956050  p :     2.780362
      px      :     0.930325
      py      :     0.893987
      dz2     :     0.003237  d :     0.035358
      dxz     :     0.007009
      dyz     :     0.004102
      dx2y2   :     0.009864
      dxy     :     0.011146

 12 C s       :     3.216272  s :     3.216272
      pz      :     0.975267  p :     2.758307
      px      :     0.845028
      py      :     0.938011
      dz2     :     0.004578  d :     0.034742
      dxz     :     0.003828
      dyz     :     0.005947
      dx2y2   :     0.011633
      dxy     :     0.008757

 13 C s       :     3.118226  s :     3.118226
      pz      :     1.013458  p :     3.133042
      px      :     1.072116
      py      :     1.047468
      dz2     :     0.007242  d :     0.034317
      dxz     :     0.007703
      dyz     :     0.010385
      dx2y2   :     0.004676
      dxy     :     0.004310

 14 C s       :     3.112483  s :     3.112483
      pz      :     0.752308  p :     2.606002
      px      :     0.934973
      py      :     0.918721
      dz2     :     0.024206  d :     0.081885
      dxz     :     0.018127
      dyz     :     0.018922
      dx2y2   :     0.010376
      dxy     :     0.010253

 15 C s       :     3.061707  s :     3.061707
      pz      :     0.801219  p :     2.666324
      px      :     1.040093
      py      :     0.825011
      dz2     :     0.019919  d :     0.080218
      dxz     :     0.013456
      dyz     :     0.022058
      dx2y2   :     0.012807
      dxy     :     0.011978

 16 C s       :     3.105210  s :     3.105210
      pz      :     0.949101  p :     2.672953
      px      :     0.956153
      py      :     0.767700
      dz2     :     0.014627  d :     0.081533
      dxz     :     0.011672
      dyz     :     0.019908
      dx2y2   :     0.017807
      dxy     :     0.017520

 17 C s       :     3.058555  s :     3.058555
      pz      :     0.729335  p :     2.659311
      px      :     0.979060
      py      :     0.950916
      dz2     :     0.022046  d :     0.080162
      dxz     :     0.018159
      dyz     :     0.020329
      dx2y2   :     0.009947
      dxy     :     0.009679

 18 C s       :     3.122739  s :     3.122739
      pz      :     0.813701  p :     2.588553
      px      :     0.989251
      py      :     0.785601
      dz2     :     0.020713  d :     0.082345
      dxz     :     0.012789
      dyz     :     0.024170
      dx2y2   :     0.012387
      dxy     :     0.012285

 19 F s       :     3.902017  s :     3.902017
      pz      :     1.664714  p :     5.259604
      px      :     1.892747
      py      :     1.702142
      dz2     :     0.001871  d :     0.008475
      dxz     :     0.001133
      dyz     :     0.003372
      dx2y2   :     0.001173
      dxy     :     0.000925

 20 F s       :     3.891210  s :     3.891210
      pz      :     1.562302  p :     5.270802
      px      :     1.808866
      py      :     1.899634
      dz2     :     0.003035  d :     0.008555
      dxz     :     0.002911
      dyz     :     0.001613
      dx2y2   :     0.000547
      dxy     :     0.000450

 21 F s       :     3.893106  s :     3.893106
      pz      :     1.900201  p :     5.263876
      px      :     1.781222
      py      :     1.582452
      dz2     :     0.001138  d :     0.008602
      dxz     :     0.000560
      dyz     :     0.001508
      dx2y2   :     0.002326
      dxy     :     0.003070

 22 F s       :     3.891061  s :     3.891061
      pz      :     1.674255  p :     5.269803
      px      :     1.899976
      py      :     1.695572
      dz2     :     0.001781  d :     0.008567
      dxz     :     0.001099
      dyz     :     0.003437
      dx2y2   :     0.001269
      dxy     :     0.000980

 23 F s       :     3.895125  s :     3.895125
      pz      :     1.558563  p :     5.262304
      px      :     1.806515
      py      :     1.897226
      dz2     :     0.003099  d :     0.008508
      dxz     :     0.002876
      dyz     :     0.001581
      dx2y2   :     0.000524
      dxy     :     0.000428

 24 H s       :     0.991523  s :     0.991523
      pz      :     0.006789  p :     0.022931
      px      :     0.011285
      py      :     0.004857

 25 H s       :     0.991848  s :     0.991848
      pz      :     0.005797  p :     0.023024
      px      :     0.011744
      py      :     0.005482

 26 H s       :     0.990360  s :     0.990360
      pz      :     0.015037  p :     0.023116
      px      :     0.003523
      py      :     0.004556

 27 H s       :     0.973692  s :     0.973692
      pz      :     0.006035  p :     0.023915
      px      :     0.012434
      py      :     0.005446

 28 H s       :     0.993778  s :     0.993778
      pz      :     0.014841  p :     0.022974
      px      :     0.003473
      py      :     0.004660

 29 H s       :     1.000089  s :     1.000089
      pz      :     0.006810  p :     0.023350
      px      :     0.006704
      py      :     0.009837

 30 H s       :     0.995343  s :     0.995343
      pz      :     0.004454  p :     0.023031
      px      :     0.014879
      py      :     0.003699

 31 H s       :     0.995701  s :     0.995701
      pz      :     0.006124  p :     0.023021
      px      :     0.006241
      py      :     0.010656

 32 H s       :     0.995026  s :     0.995026
      pz      :     0.006307  p :     0.023012
      px      :     0.006322
      py      :     0.010383

 33 H s       :     0.989163  s :     0.989163
      pz      :     0.004548  p :     0.023317
      px      :     0.015004
      py      :     0.003765



                     *******************************
                     * LOEWDIN POPULATION ANALYSIS *
                     *******************************

----------------------
LOEWDIN ATOMIC CHARGES
----------------------
   0 C :   -0.013290
   1 C :   -0.024294
   2 C :   -0.021371
   3 C :   -0.183771
   4 C :   -0.019694
   5 C :   -0.023682
   6 P :    0.542974
   7 C :   -0.179222
   8 C :   -0.033214
   9 C :   -0.019753
  10 C :   -0.024838
  11 C :   -0.020706
  12 C :   -0.030975
  13 C :   -0.230650
  14 C :    0.059138
  15 C :    0.026927
  16 C :    0.045926
  17 C :    0.027551
  18 C :    0.059073
  19 F :   -0.033097
  20 F :   -0.043560
  21 F :   -0.036000
  22 F :   -0.042438
  23 F :   -0.043849
  24 H :    0.027761
  25 H :    0.028343
  26 H :    0.025983
  27 H :    0.025297
  28 H :    0.027981
  29 H :    0.020729
  30 H :    0.027452
  31 H :    0.026186
  32 H :    0.027591
  33 H :    0.025492

-------------------------------
LOEWDIN REDUCED ORBITAL CHARGES
-------------------------------
  0 C s       :     2.860437  s :     2.860437
      pz      :     1.061613  p :     3.060894
      px      :     1.041697
      py      :     0.957584
      dz2     :     0.026356  d :     0.091959
      dxz     :     0.033779
      dyz     :     0.012872
      dx2y2   :     0.010832
      dxy     :     0.008120

  1 C s       :     2.860219  s :     2.860219
      pz      :     1.061781  p :     3.073395
      px      :     1.038797
      py      :     0.972816
      dz2     :     0.027432  d :     0.090680
      dxz     :     0.032963
      dyz     :     0.012869
      dx2y2   :     0.009753
      dxy     :     0.007663

  2 C s       :     2.867577  s :     2.867577
      pz      :     1.043184  p :     3.062499
      px      :     1.057286
      py      :     0.962029
      dz2     :     0.026271  d :     0.091295
      dxz     :     0.028162
      dyz     :     0.005973
      dx2y2   :     0.016136
      dxy     :     0.014753

  3 C s       :     2.910222  s :     2.910222
      pz      :     1.096003  p :     3.181028
      px      :     1.070283
      py      :     1.014742
      dz2     :     0.028149  d :     0.092521
      dxz     :     0.032660
      dyz     :     0.012583
      dx2y2   :     0.010738
      dxy     :     0.008391

  4 C s       :     2.866374  s :     2.866374
      pz      :     1.059867  p :     3.061625
      px      :     1.048697
      py      :     0.953062
      dz2     :     0.027155  d :     0.091695
      dxz     :     0.033970
      dyz     :     0.013333
      dx2y2   :     0.009525
      dxy     :     0.007713

  5 C s       :     2.860713  s :     2.860713
      pz      :     1.037822  p :     3.072028
      px      :     1.060322
      py      :     0.973884
      dz2     :     0.026247  d :     0.090941
      dxz     :     0.029020
      dyz     :     0.006080
      dx2y2   :     0.015516
      dxy     :     0.014077

  6 P s       :     5.234533  s :     5.234533
      pz      :     3.391111  p :     8.970468
      px      :     2.804075
      py      :     2.775281
      dz2     :     0.026064  d :     0.252025
      dxz     :     0.056359
      dyz     :     0.037812
      dx2y2   :     0.049183
      dxy     :     0.082607

  7 C s       :     2.911435  s :     2.911435
      pz      :     1.012404  p :     3.176342
      px      :     1.089841
      py      :     1.074096
      dz2     :     0.009225  d :     0.091446
      dxz     :     0.016509
      dyz     :     0.011651
      dx2y2   :     0.026398
      dxy     :     0.027663

  8 C s       :     2.862069  s :     2.862069
      pz      :     0.993359  p :     3.080174
      px      :     1.052269
      py      :     1.034547
      dz2     :     0.007375  d :     0.090971
      dxz     :     0.016310
      dyz     :     0.009969
      dx2y2   :     0.026575
      dxy     :     0.030742

  9 C s       :     2.859619  s :     2.859619
      pz      :     0.987553  p :     3.068786
      px      :     1.037189
      py      :     1.044043
      dz2     :     0.010652  d :     0.091348
      dxz     :     0.009770
      dyz     :     0.015539
      dx2y2   :     0.030455
      dxy     :     0.024932

 10 C s       :     2.858409  s :     2.858409
      pz      :     0.984321  p :     3.074562
      px      :     1.062128
      py      :     1.028113
      dz2     :     0.007864  d :     0.091867
      dxz     :     0.016586
      dyz     :     0.009857
      dx2y2   :     0.027560
      dxy     :     0.030001

 11 C s       :     2.859614  s :     2.859614
      pz      :     0.981586  p :     3.069612
      px      :     1.062034
      py      :     1.025991
      dz2     :     0.007399  d :     0.091480
      dxz     :     0.016463
      dyz     :     0.009720
      dx2y2   :     0.027521
      dxy     :     0.030377

 12 C s       :     2.862116  s :     2.862116
      pz      :     0.990542  p :     3.078136
      px      :     1.042370
      py      :     1.045225
      dz2     :     0.009895  d :     0.090723
      dxz     :     0.008970
      dyz     :     0.015471
      dx2y2   :     0.031824
      dxy     :     0.024563

 13 C s       :     2.917619  s :     2.917619
      pz      :     1.063612  p :     3.223716
      px      :     1.069359
      py      :     1.090745
      dz2     :     0.020395  d :     0.089314
      dxz     :     0.019792
      dyz     :     0.029150
      dx2y2   :     0.010049
      dxy     :     0.009928

 14 C s       :     2.850748  s :     2.850748
      pz      :     0.853117  p :     2.901377
      px      :     0.979503
      py      :     1.068756
      dz2     :     0.054428  d :     0.188737
      dxz     :     0.039125
      dyz     :     0.047366
      dx2y2   :     0.022805
      dxy     :     0.025013

 15 C s       :     2.845452  s :     2.845452
      pz      :     0.929752  p :     2.940328
      px      :     1.067205
      py      :     0.943372
      dz2     :     0.049201  d :     0.187293
      dxz     :     0.030333
      dyz     :     0.051289
      dx2y2   :     0.028705
      dxy     :     0.027766

 16 C s       :     2.843681  s :     2.843681
      pz      :     1.072394  p :     2.920991
      px      :     0.977979
      py      :     0.870618
      dz2     :     0.035751  d :     0.189402
      dxz     :     0.028437
      dyz     :     0.050261
      dx2y2   :     0.037369
      dxy     :     0.037583

 17 C s       :     2.846216  s :     2.846216
      pz      :     0.858629  p :     2.938957
      px      :     1.009831
      py      :     1.070497
      dz2     :     0.051090  d :     0.187277
      dxz     :     0.038923
      dyz     :     0.051086
      dx2y2   :     0.021992
      dxy     :     0.024186

 18 C s       :     2.850349  s :     2.850349
      pz      :     0.927412  p :     2.900085
      px      :     1.039952
      py      :     0.932720
      dz2     :     0.049560  d :     0.190494
      dxz     :     0.028774
      dyz     :     0.055954
      dx2y2   :     0.027783
      dxy     :     0.028423

 19 F s       :     3.720849  s :     3.720849
      pz      :     1.689275  p :     5.299044
      px      :     1.888435
      py      :     1.721334
      dz2     :     0.002740  d :     0.013204
      dxz     :     0.001621
      dyz     :     0.005653
      dx2y2   :     0.001850
      dxy     :     0.001341

 20 F s       :     3.721378  s :     3.721378
      pz      :     1.593398  p :     5.308825
      px      :     1.815865
      py      :     1.899563
      dz2     :     0.004810  d :     0.013357
      dxz     :     0.004716
      dyz     :     0.002355
      dx2y2   :     0.000829
      dxy     :     0.000646

 21 F s       :     3.721394  s :     3.721394
[...]
      dz2     :     0.021447  d :     0.087797
      dxz     :     0.021120
      dyz     :     0.029989
      dx2y2   :     0.006860
      dxy     :     0.008381

 14 C s       :     2.850385  s :     2.850385
      pz      :     0.849997  p :     2.905889
      px      :     1.009363
      py      :     1.046528
      dz2     :     0.063798  d :     0.194260
      dxz     :     0.039753
      dyz     :     0.050885
      dx2y2   :     0.019555
      dxy     :     0.020269

 15 C s       :     2.846648  s :     2.846648
      pz      :     0.901203  p :     2.945465
      px      :     1.055590
      py      :     0.988672
      dz2     :     0.056257  d :     0.189653
      dxz     :     0.034838
      dyz     :     0.051585
      dx2y2   :     0.022916
      dxy     :     0.024057

 16 C s       :     2.848414  s :     2.848414
      pz      :     1.076981  p :     2.919473
      px      :     0.971667
      py      :     0.870825
      dz2     :     0.036873  d :     0.192120
      dxz     :     0.030839
      dyz     :     0.053218
      dx2y2   :     0.034892
      dxy     :     0.036298

 17 C s       :     2.846518  s :     2.846518
      pz      :     0.844229  p :     2.944262
      px      :     1.045087
      py      :     1.054946
      dz2     :     0.057272  d :     0.189954
      dxz     :     0.040203
      dyz     :     0.054534
      dx2y2   :     0.018393
      dxy     :     0.019551

 18 C s       :     2.850388  s :     2.850388
      pz      :     0.909343  p :     2.900319
      px      :     1.017772
      py      :     0.973204
      dz2     :     0.057403  d :     0.194836
      dxz     :     0.034175
      dyz     :     0.055622
      dx2y2   :     0.023402
      dxy     :     0.024234

 19 F s       :     3.715418  s :     3.715418
      pz      :     1.651501  p :     5.297741
      px      :     1.869036
      py      :     1.777204
      dz2     :     0.003591  d :     0.013692
      dxz     :     0.002464
      dyz     :     0.005168
      dx2y2   :     0.001286
      dxy     :     0.001183

 20 F s       :     3.715302  s :     3.715302
      pz      :     1.572169  p :     5.305927
      px      :     1.860508
      py      :     1.873251
      dz2     :     0.005561  d :     0.013902
      dxz     :     0.003790
      dyz     :     0.003441
      dx2y2   :     0.000562
      dxy     :     0.000547

 21 F s       :     3.713211  s :     3.713211
      pz      :     1.903073  p :     5.298990
      px      :     1.780945
      py      :     1.614972
      dz2     :     0.001984  d :     0.014070
      dxz     :     0.000839
      dyz     :     0.002119
      dx2y2   :     0.003770
      dxy     :     0.005358

 22 F s       :     3.715092  s :     3.715092
      pz      :     1.655337  p :     5.305621
      px      :     1.874540
      py      :     1.775744
      dz2     :     0.003390  d :     0.013925
      dxz     :     0.002604
      dyz     :     0.005235
      dx2y2   :     0.001386
      dxy     :     0.001310

 23 F s       :     3.716717  s :     3.716717
      pz      :     1.567405  p :     5.306213
      px      :     1.860741
      py      :     1.878067
      dz2     :     0.005893  d :     0.013789
      dxz     :     0.003657
      dyz     :     0.003294
      dx2y2   :     0.000458
      dxy     :     0.000487

 24 H s       :     0.904986  s :     0.904986
      pz      :     0.021817  p :     0.066561
      px      :     0.030604
      py      :     0.014140

 25 H s       :     0.904613  s :     0.904613
      pz      :     0.015189  p :     0.066599
      px      :     0.030205
      py      :     0.021205

 26 H s       :     0.907625  s :     0.907625
      pz      :     0.040121  p :     0.067599
      px      :     0.011499
      py      :     0.015979

 27 H s       :     0.902441  s :     0.902441
      pz      :     0.015322  p :     0.069408
      px      :     0.032660
      py      :     0.021426

 28 H s       :     0.904726  s :     0.904726
      pz      :     0.038901  p :     0.066610
      px      :     0.011368
      py      :     0.016341

 29 H s       :     0.908382  s :     0.908382
      pz      :     0.015604  p :     0.068845
      px      :     0.018155
      py      :     0.035086

 30 H s       :     0.904816  s :     0.904816
      pz      :     0.014234  p :     0.066507
      px      :     0.040881
      py      :     0.011392

 31 H s       :     0.905065  s :     0.905065
      pz      :     0.017790  p :     0.066707
      px      :     0.019378
      py      :     0.029539

 32 H s       :     0.904489  s :     0.904489
      pz      :     0.014776  p :     0.066481
      px      :     0.017663
      py      :     0.034042

 33 H s       :     0.905900  s :     0.905900
      pz      :     0.014454  p :     0.067685
      px      :     0.041711
      py      :     0.011520



                      *****************************
                      * MAYER POPULATION ANALYSIS *
                      *****************************

  NA   - Mulliken gross atomic population
  ZA   - Total nuclear charge
  QA   - Mulliken gross atomic charge
  VA   - Mayer's total valence
  BVA  - Mayer's bonded valence
  FA   - Mayer's free valence

  ATOM       NA         ZA         QA         VA         BVA        FA
  0 C      5.9725     6.0000     0.0275     3.8271     3.8271    -0.0000
  1 C      5.9802     6.0000     0.0198     3.8559     3.8559     0.0000
  2 C      5.9731     6.0000     0.0269     3.8566     3.8566     0.0000
  3 C      6.1555     6.0000    -0.1555     3.8188     3.8188    -0.0000
  4 C      5.9748     6.0000     0.0252     3.9103     3.9103    -0.0000
  5 C      5.9780     6.0000     0.0220     3.8446     3.8446    -0.0000
  6 P     14.5837    15.0000     0.4163     2.9206     2.9206    -0.0000
  7 C      6.1332     6.0000    -0.1332     3.8046     3.8046     0.0000
  8 C      5.9896     6.0000     0.0104     3.9035     3.9035     0.0000
  9 C      5.9742     6.0000     0.0258     3.8552     3.8552     0.0000
 10 C      5.9771     6.0000     0.0229     3.8313     3.8313    -0.0000
 11 C      5.9782     6.0000     0.0218     3.8706     3.8706    -0.0000
 12 C      6.0018     6.0000    -0.0018     3.9040     3.9040     0.0000
 13 C      6.2983     6.0000    -0.2983     3.6920     3.6920    -0.0000
 14 C      5.8219     6.0000     0.1781     3.9267     3.9267    -0.0000
 15 C      5.8087     6.0000     0.1913     3.7593     3.7593    -0.0000
 16 C      5.8804     6.0000     0.1196     3.8024     3.8024     0.0000
 17 C      5.7986     6.0000     0.2014     3.7778     3.7778     0.0000
 18 C      5.8014     6.0000     0.1986     3.8832     3.8832     0.0000
 19 F      9.1648     9.0000    -0.1648     1.2216     1.2216    -0.0000
 20 F      9.1609     9.0000    -0.1609     1.2218     1.2218    -0.0000
 21 F      9.1564     9.0000    -0.1564     1.2268     1.2268    -0.0000
 22 F      9.1604     9.0000    -0.1604     1.2217     1.2217     0.0000
 23 F      9.1604     9.0000    -0.1604     1.2307     1.2307    -0.0000
 24 H      1.0121     1.0000    -0.0121     0.9777     0.9777    -0.0000
 25 H      1.0127     1.0000    -0.0127     0.9782     0.9782    -0.0000
 26 H      1.0136     1.0000    -0.0136     0.9905     0.9905     0.0000
 27 H      0.9960     1.0000     0.0040     0.9991     0.9991    -0.0000
 28 H      1.0143     1.0000    -0.0143     0.9783     0.9783     0.0000
 29 H      1.0151     1.0000    -0.0151     0.9853     0.9853    -0.0000
 30 H      1.0147     1.0000    -0.0147     0.9779     0.9779     0.0000
 31 H      1.0132     1.0000    -0.0132     0.9779     0.9779     0.0000
 32 H      1.0130     1.0000    -0.0130     0.9779     0.9779     0.0000
 33 H      1.0111     1.0000    -0.0111     0.9913     0.9913     0.0000

  Mayer bond orders larger than 0.100000
B(  0-C ,  1-C ) :   1.3842 B(  0-C ,  5-C ) :   1.3751 B(  0-C , 24-H ) :   0.9848 
B(  1-C ,  2-C ) :   1.3985 B(  1-C , 25-H ) :   0.9851 B(  2-C ,  3-C ) :   1.3687 
B(  2-C , 26-H ) :   0.9812 B(  3-C ,  4-C ) :   1.3872 B(  3-C ,  6-P ) :   0.9383 
B(  4-C ,  5-C ) :   1.3996 B(  4-C , 27-H ) :   0.9733 B(  5-C , 28-H ) :   0.9831 
B(  6-P ,  7-C ) :   0.9160 B(  6-P , 13-C ) :   0.9057 B(  7-C ,  8-C ) :   1.3937 
B(  7-C , 12-C ) :   1.3636 B(  8-C ,  9-C ) :   1.3958 B(  8-C , 29-H ) :   0.9748 
B(  9-C , 10-C ) :   1.3869 B(  9-C , 30-H ) :   0.9820 B( 10-C , 11-C ) :   1.3745 
B( 10-C , 31-H ) :   0.9850 B( 11-C , 12-C ) :   1.4170 B( 11-C , 32-H ) :   0.9843 
B( 12-C , 33-H ) :   0.9804 B( 13-C , 14-C ) :   1.3503 B( 13-C , 18-C ) :   1.3078 
B( 14-C , 15-C ) :   1.2658 B( 14-C , 23-F ) :   1.1554 B( 15-C , 16-C ) :   1.2677 
B( 15-C , 22-F ) :   1.1632 B( 16-C , 17-C ) :   1.2548 B( 16-C , 21-F ) :   1.1529 
B( 17-C , 18-C ) :   1.2951 B( 17-C , 20-F ) :   1.1646 B( 18-C , 19-F ) :   1.1086 


-------
TIMINGS
-------

Total SCF time: 0 days 0 hours 0 min 16 sec 

Total time                  ....      16.226 sec
Sum of individual times     ....      16.136 sec  ( 99.4%)

SCF preparation             ....       0.124 sec  (  0.8%)
Fock matrix formation       ....      15.596 sec  ( 96.1%)
  Startup                   ....       0.017 sec  (  0.1% of F)
  Exchange formation        ....      12.473 sec  ( 80.0% of F)
  Split-RI-J                ....       1.205 sec  (  7.7% of F)
  XC integration            ....       1.842 sec  ( 11.8% of F)
    Basis function eval.    ....       0.530 sec  ( 28.8% of XC)
    Density eval.           ....       0.520 sec  ( 28.2% of XC)
    XC-Functional eval.     ....       0.038 sec  (  2.1% of XC)
    XC-Potential eval.      ....       0.495 sec  ( 26.9% of XC)
Diagonalization             ....       0.000 sec  (  0.0%)
Density matrix formation    ....       0.035 sec  (  0.2%)
Total Energy calculation    ....       0.013 sec  (  0.1%)
Population analysis         ....       0.106 sec  (  0.7%)
Orbital Transformation      ....       0.047 sec  (  0.3%)
Orbital Orthonormalization  ....       0.000 sec  (  0.0%)
DIIS solution               ....       0.054 sec  (  0.3%)
SOSCF solution              ....       0.161 sec  (  1.0%)
Finished LeanSCF after  16.3 sec

Maximum memory used throughout the entire LEANSCF-calculation: 40.3 MB


-------------------------------------------------------------------------------
                          DFT DISPERSION CORRECTION                            
                                                                               
                              DFTD3 V3.1  Rev 1                                
                          USING Becke-Johnson damping                          
-------------------------------------------------------------------------------
The B3LYP functional is recognized
Active option DFTDOPT                   ...         4   

molecular C6(AA) [au] = 17510.059234 


            DFT-D V3
 parameters
 s6 scaling factor         :     1.0000 
 a1 scaling factor         :     0.3981 
 s8 scaling factor         :     1.9889 
 a2 scaling factor         :     4.4211 
 ad hoc parameters k1-k3   :    16.0000     1.3333    -4.0000 

 Edisp/kcal,au: -54.990717274656  -0.087633276758 
 E6   /kcal   : -24.722770422 
 E8   /kcal   : -30.267946852 
 % E8         :  55.041920441 

-------------------------   ----------------
Dispersion correction           -0.087633277
-------------------------   ----------------


-------------------------   --------------------
FINAL SINGLE POINT ENERGY     -1530.898852177831
-------------------------   --------------------

                                *** OPTIMIZATION RUN DONE ***



           ************************************************************
           *        Program running with 6 parallel MPI-processes     *
           *              working on a common directory               *
           ************************************************************

------------------------------------------------------------------------------
                              ORCA PROPERTY CALCULATIONS
------------------------------------------------------------------------------

GBWName                                 ... data/geom_opt/300563/300563.gbw
Number of atoms                         ...     34
Number of basis functions               ...    390
Max core memory                         ...   1024 MB

Electric properties:
Dipole moment                           ... YES
Quadrupole moment                       ...  NO
Static polarizability (Dipole/Dipole)   ...  NO
Static polarizability (Dipole/Quad.)    ...  NO
Static polarizability (Quad./Quad.)     ...  NO
Static polarizability (Velocity)        ...  NO

Atomic electric properties:
Dipole moment                           ...  NO
Quadrupole moment                       ...  NO
Static polarizability                   ...  NO

Choice of electric origin               ... Center of mass
Position of electric origin             ...     0.759268     1.324415    -0.622421

General magnetic properties:
Magnetizability                         ...  NO

EPR properties:
g-Tensor (aka g-matrix)                 ...  NO
Zero-Field splitting spin-orbit         ...  NO
Zero-field splitting spin-spin          ...  NO
Hyperfine couplings                     ...  NO (   0 nuclei)
Quadrupole couplings                    ...  NO (   0 nuclei)
Contact density                         ...  NO (   0 nuclei)

NMR properties:
Chemical shifts                         ...  NO (   0 nuclei)
Spin-rotation constants                 ...  NO (   0 nuclei)
Spin-spin couplings                     ...  NO (   0 nuclei,    0 pairs)

Choice of magnetic origin               ... GIAO
Position of magnetic origin             ...     0.000000     0.000000     0.000000

Properties with geometric perturbations:
SCF Hessian                             ...  NO
IR spectrum                             ...  NO
VCD spectrum                            ...  NO
X-ray spectroscopy properties:
SCF XES/XAS/RIXS spectra                ...  NO


-------------
DIPOLE MOMENT
-------------

Method             : SCF
Type of density    : Electron Density
Multiplicity       :   1
Irrep              :   0
Energy             : -1530.8112189010726070 Eh
Relativity type    : 
Basis              : AO
                                X                 Y                 Z
Electronic contribution:     16.393655413      28.196674564     -10.929502394
Nuclear contribution   :    -16.729336413     -28.745440407      11.462179967
                        -----------------------------------------
Total Dipole Moment    :     -0.335681000      -0.548765843       0.532677573
                        -----------------------------------------
Magnitude (a.u.)       :      0.835207209
Magnitude (Debye)      :      2.122928013



--------------------
Rotational spectrum 
--------------------
 
Rotational constants in cm-1:             0.009213             0.005838             0.004820 
Rotational constants in MHz :           276.184131           175.032709           144.487697 

Dipole components along the rotational axes: 
x,y,z [a.u.] :     0.760480    -0.080025    -0.335912 
x,y,z [Debye]:     1.932987    -0.203408    -0.853820 

 

Dipole moment calculation done in   0.0 sec 

Maximum memory used throughout the entire PROP-calculation: 20.9 MB

--------------------------------
SUGGESTED CITATIONS FOR THIS RUN
--------------------------------

Below you find a list of papers that are relevant to this ORCA run
We neither can nor want to force you to cite these papers, but we appreciate if you do
You receive ORCA, which is the product of decades of hard work by many enthusiastic individuals, for free
The only thing we kindly ask in return is that you cite our papers,
We deeply appreciate it, if you show your appreciation for ORCA by not just citing the generic ORCA reference.

Please note that relegating all ORCA citations to the supporting information does *not* help us.
SI sections are not indexed - citations you put there will not count into any citation statistics
But we need these citations in order to attract the funding resources that allow us to do what we are doing

Therefore, if you are a happy ORCA user, please consider citing a few of the papers listed below in the main body of your paper

In addition to the list printed below, the program has created the file data/geom_opt/300563/300563.bibtex that contains the list in bibtex format
You can import this file easily into all common literature databanks and citation aid programs


List of essential papers. We consider these as the minimum necessary citations

  1. Neese,F.
     Software update: the ORCA program system, version 5.0
     WIRES Comput. Molec. Sci., 2022 12(1)e1606
     doi.org/10.1002/wcms.1606

List of papers to cite with high priority. The work reported in these papers was absolutely
necessary for this run to complete.
Our perspective: the developers of density functionals and basis sets usually get cited in chemistry papers
Good! But without the algorithms to do something with them, the functionals or basis sets would not do anything.
Hence, in our opinion, the algorithm design and method developments papers are equally worthy of getting cited

  1. Neese,F.
     An improvement of the resolution of the identity approximation for the formation of the Coulomb matrix
     J. Comp. Chem., 2003 24(14)1740-1747
     doi.org/10.1002/jcc.10318
  2. Neese,F.
     The SHARK Integral Generation and Digestion System
     J. Comp. Chem., 2022  1-16
     doi.org/10.1002/jcc.26942
  3. Grimme,S.; Antony,J.; Ehrlich,S.; Krieg,H.
     A consistent and accurate ab initio parametrization of density functional dispersion correction (DFT-D) for the 94 elements H-Pu
     J. Chem. Phys., 2010 132 154104-XXXX
     doi.org/10.1063/1.3382344
  4. Grimme,S.; Ehrlich,S.; Goerigk,L.
     Effect of the damping function in dispersion corrected density functional theory
     J. Comput. Chem., 2011 32(7)1456-1465
     doi.org/10.1002/jcc.21759

List of suggested additional citations. These are papers that are important in the 'surrounding' of 
of this run, or papers that preceded the highly important papers. If you like your results we are grateful for a citation.

  1. Neese,F.
     The ORCA program system
     WIRES Comput. Molec. Sci., 2012 2(1)73-78
     doi.org/10.1002/wcms.81
  2. Neese,F.
     Software update: the ORCA program system, version 4.0
     WIRES Comput. Molec. Sci., 2018 8(1)1-6
     doi.org/10.1002/wcms.1327
  3. Neese,F.; Wennmohs,F.; Becker,U.; Riplinger,C.
     The ORCA quantum chemistry program package
     J. Chem. Phys., 2020 152 Art. No. L224108
     doi.org/10.1063/5.0004608

List of optional additional citations

  1. Neese,F.
     Approximate second-order SCF convergence for spin unrestricted wavefunctions
     Chem. Phys. Lett., 2000 325(1-3)93-98
     doi.org/10.1016/s0009-2614(00)00662-x

Timings for individual modules:

Sum of individual times          ...      884.073 sec (=  14.735 min)
Startup calculation              ...       22.794 sec (=   0.380 min)   2.6 %
SCF iterations                   ...      575.215 sec (=   9.587 min)  65.1 %
Property calculations            ...        0.174 sec (=   0.003 min)   0.0 %
SCF Gradient evaluation          ...      285.642 sec (=   4.761 min)  32.3 %
Geometry relaxation              ...        0.248 sec (=   0.004 min)   0.0 %
                             ****ORCA TERMINATED NORMALLY****
TOTAL RUN TIME: 0 days 0 hours 14 minutes 47 seconds 88 msec
