
                                 *****************
                                 * O   R   C   A *
                                 *****************

                                            #,                                       
                                            ###                                      
                                            ####                                     
                                            #####                                    
                                            ######                                   
                                           ########,                                 
                                     ,,################,,,,,                         
                               ,,#################################,,                 
                          ,,##########################################,,             
                       ,#########################################, ''#####,          
                    ,#############################################,,   '####,        
                  ,##################################################,,,,####,       
                ,###########''''           ''''###############################       
              ,#####''   ,,,,##########,,,,          '''####'''          '####       
            ,##' ,,,,###########################,,,                        '##       
           ' ,,###''''                  '''############,,,                           
         ,,##''                                '''############,,,,        ,,,,,,###''
      ,#''                                            '''#######################'''  
     '                                                          ''''####''''         
             ,#######,   #######,   ,#######,      ##                                
            ,#'     '#,  ##    ##  ,#'     '#,    #''#        ,####,   ,####,        
            ##       ##  ##   ,#'  ##            #'  '#       #'       #'  '#        
            ##       ##  #######   ##           ,######,      #####,   #    #        
            '#,     ,#'  ##    ##  '#,     ,#' ,#      #,     #,   #   #,  ,#        
             '#######'   ##     ##  '#######'  #'      '#     '####' # '####'        



                #########################################################
                #                        -***-                          #
                #          Department of theory and spectroscopy        #
                #                                                       #
                #                      Frank Neese                      #
                #                                                       #
                #     Directorship, Architecture, Infrastructure        #
                #                    SHARK, DRIVERS                     #
                #        Core code/Algorithms in most modules           #
                #                                                       #
                #        Max Planck Institute fuer Kohlenforschung      #
                #                Kaiser Wilhelm Platz 1                 #
                #                 D-45470 Muelheim/Ruhr                 #
                #                      Germany                          #
                #                                                       #
                #                  All rights reserved                  #
                #                        -***-                          #
                #########################################################


                         Program Version 6.0.0  -   RELEASE   -


 With contributions from (in alphabetic order):
   Daniel Aravena         : Magnetic Suceptibility
   Michael Atanasov       : Ab Initio Ligand Field Theory (pilot matlab implementation)
   Alexander A. Auer      : GIAO ZORA, VPT2 properties, NMR spectrum
   Ute Becker             : All parallelization in ORCA, NUMFREQ, NUMCALC
   Giovanni Bistoni       : ED, misc. LED, open-shell LED, HFLD
   Martin Brehm           : Molecular dynamics
   Dmytro Bykov           : pre 5.0 version of the SCF Hessian
   Marcos Casanova-Páez   : Triplet and SCS-CIS(D). UHF-(DLPNO)-IP/EA/STEOM-CCSD. UHF-CVS-IP/STEOM-CCSD
   Vijay G. Chilkuri      : MRCI spin determinant printing, contributions to CSF-ICE
   Pauline Colinet        : FMM embedding
   Dipayan Datta          : RHF DLPNO-CCSD density
   Achintya Kumar Dutta   : EOM-CC, STEOM-CC
   Nicolas Foglia         : Exact transition moments, OPA infrastructure, MCD improvements
   Dmitry Ganyushin       : Spin-Orbit,Spin-Spin,Magnetic field MRCI
   Miquel Garcia          : C-PCM and meta-GGA Hessian, CCSD/C-PCM, Gaussian charge scheme
   Tiago L. C. Gouveia    : GS-ROHF, GS-ROCIS
   Yang Guo               : DLPNO-NEVPT2, F12-NEVPT2, CIM, IAO-localization
   Andreas Hansen         : Spin unrestricted coupled pair/coupled cluster methods
   Ingolf Harden          : AUTO-CI MPn and infrastructure 
   Benjamin Helmich-Paris : MC-RPA, TRAH-(SCF,CASSCF), AVAS, COSX integrals, SCF dyn. polar.
   Lee Huntington         : MR-EOM, pCC
   Robert Izsak           : Overlap fitted RIJCOSX, COSX-SCS-MP3, EOM
   Riya Kayal             : Wick's Theorem for AUTO-CI, AUTO-CI UHF-CCSDT
   Emily Kempfer          : AUTO-CI, RHF CISDT and CCSDT
   Christian Kollmar      : KDIIS, OOCD, Brueckner-CCSD(T), CCSD density, CASPT2, CASPT2-K, improved NEVPT2
   Axel Koslowski         : Symmetry handling
   Simone Kossmann        : Meta GGA functionals, TD-DFT gradient, OOMP2, (MP2 Hessian; deprecated post 5.0)
   Lucas Lang             : DCDCAS
   Marvin Lechner         : AUTO-CI (C++ implementation), FIC-MRCC
   Spencer Leger          : CASSCF response
   Dagmar Lenk            : GEPOL surface, SMD, ORCA-2-JSON
   Dimitrios Liakos       : Extrapolation schemes; Compound Job, initial MDCI parallelization
   Dimitrios Manganas     : Further ROCIS development; embedding schemes. LFT, Crystal Embedding
   Dimitrios Pantazis     : SARC Basis sets
   Anastasios Papadopoulos: AUTO-CI, single reference methods and gradients
   Taras Petrenko         : pre 6.0 DFT Hessian and TD-DFT gradient, (ASA, deprecated), ECA, 1-Electron XAS/XES, NRVS
   Peter Pinski           : DLPNO-MP2, DLPNO-MP2 Gradient
   Christoph Reimann      : Effective Core Potentials
   Marius Retegan         : Local ZFS, SOC
   Christoph Riplinger    : Optimizer, TS searches, QM/MM, DLPNO-CCSD(T), (RO)-DLPNO pert. Triples
   Michael Roemelt        : Original ROCIS implementation
   Masaaki Saitow         : Open-shell DLPNO-CCSD energy and density
   Barbara Sandhoefer     : DKH picture change effects
   Kantharuban Sivalingam : CASSCF convergence/infrastructure, NEVPT2 and variants, FIC-MRCI
   Bernardo de Souza      : ESD, SOC TD-DFT
   Georgi Stoychev        : AutoAux, RI-MP2 NMR, DLPNO-MP2 response, X2C
   Van Anh Tran           : RI-MP2 g-tensors
   Willem Van den Heuvel  : Paramagnetic NMR
   Zikuan Wang            : NOTCH, Electric field optimization 
   Frank Wennmohs         : Technical directorship and infrastructure
   Hang Xu                : AUTO-CI-Response properties 


 We gratefully acknowledge several colleagues who have allowed us to
 interface, adapt or use parts of their codes:
   Stefan Grimme, W. Hujo, H. Kruse, P. Pracht,  : VdW corrections, initial TS optimization,
                  C. Bannwarth, S. Ehlert,         DFT functionals, gCP, sTDA/sTD-DF
                  L. Wittmann, M. Mueller
   Ed Valeev, F. Pavosevic, A. Kumar             : LibInt (2-el integral package), F12 methods
   Garnet Chan, S. Sharma, J. Yang, R. Olivares  : DMRG
   Ulf Ekstrom                                   : XCFun DFT Library
   Mihaly Kallay                                 : mrcc  (arbitrary order and MRCC methods)
   Frank Weinhold                                : gennbo (NPA and NBO analysis)
   Simon Mueller                                 : openCOSMO-RS
   Christopher J. Cramer and Donald G. Truhlar   : smd solvation model
   Lars Goerigk                                  : TD-DFT with DH, B97 family of functionals
   V. Asgeirsson, H. Jonsson                     : NEB implementation
   FAccTs GmbH                                   : IRC, NEB, NEB-TS, DLPNO-Multilevel, CI-OPT
                                                   MM, QMMM, 2- and 3-layer-ONIOM, Crystal-QMMM,
                                                   LR-CPCM, SF, NACMEs, symmetry and pop. for TD-DFT,
                                                   nearIR, NL-DFT gradient (VV10), updates on ESD,
                                                   ML-optimized integration grids, MBIS, APM,
                                                   GOAT, DOCKER, SOLVATOR, interface openCOSMO-RS
   S Lehtola, MJT Oliveira, MAL Marques          : LibXC Library
   Liviu Ungur et al                             : ANISO software


 Your calculation uses the libint2 library for the computation of 2-el integrals
 For citations please refer to: http://libint.valeyev.net

 Your ORCA version has been built with support for libXC version: 6.2.2
 For citations please refer to: https://libxc.gitlab.io

 This ORCA versions uses:
   CBLAS   interface :  Fast vector & matrix operations
   LAPACKE interface :  Fast linear algebra routines
   Shared memory     :  Shared parallel matrices


Your calculation utilizes the atom-pairwise dispersion correction
with the Becke-Johnson damping scheme (D3BJ)


Warning: RI is on but no J-basis has been assigned. Assigning Def2/J (nothing to worry about!)
================================================================================

----- Orbital basis set information -----
Your calculation utilizes the basis: def2-SVP
   F. Weigend and R. Ahlrichs, Phys. Chem. Chem. Phys. 7, 3297 (2005).

----- AuxJ basis set information -----
Your calculation utilizes the auxiliary basis: def2/J
   F. Weigend, Phys. Chem. Chem. Phys. 8, 1057 (2006).

================================================================================
                                        WARNINGS
                       Please study these warnings very carefully!
================================================================================


WARNING: Geometry Optimization
  ===> : Switching off AutoStart
         For restart on a previous wavefunction, please use MOREAD

================================================================================
                                       INPUT FILE
================================================================================
NAME = data/geom_opt_PO_BP86/621893/621893.inp
|  1> ! RI BP86 def2-SVP D3BJ TIGHTSCF Opt
|  2> %pal
|  3> nprocs 6
|  4> end
|  5> 
|  6> * xyz 0 1
|  7> C     -3.729370   -2.173660   -0.286316
|  8> C     -3.120356   -2.449742    0.935207
|  9> C     -1.975185   -1.749581    1.316305
| 10> C     -1.423406   -0.763206    0.482290
| 11> C     -2.047839   -0.497489   -0.744184
| 12> C     -3.194014   -1.198687   -1.125356
| 13> P      0.065966    0.101572    1.028670
| 14> O      0.146004    0.118837    2.551771
| 15> C      1.470962   -0.779198    0.314967
| 16> C      1.604135   -0.964094   -1.068388
| 17> C      2.696560   -1.658540   -1.591514
| 18> C      3.667823   -2.177987   -0.738213
| 19> C      3.549021   -2.003446    0.638615
| 20> C      2.457459   -1.308894    1.161717
| 21> C      0.047316    1.789915    0.350719
| 22> C     -0.143830    2.858270    1.227524
| 23> C     -0.158039    4.155538    0.723911
| 24> C      0.019452    4.358597   -0.638375
| 25> C      0.202415    3.250554   -1.446906
| 26> N      0.215887    1.978974   -0.990051
| 27> H     -4.621384   -2.718303   -0.584489
| 28> H     -3.535912   -3.209213    1.592465
| 29> H     -1.506395   -1.969732    2.274460
| 30> H     -1.648682    0.255783   -1.418613
| 31> H     -3.669096   -0.983374   -2.079201
| 32> H      0.859362   -0.560750   -1.750265
| 33> H      2.789476   -1.792368   -2.666194
| 34> H      4.517737   -2.718412   -1.146479
| 35> H      4.305092   -2.408135    1.306430
| 36> H      2.372020   -1.179786    2.239583
| 37> H     -0.275539    2.678676    2.291266
| 38> H     -0.303022    4.999940    1.392141
| 39> H      0.017310    5.357612   -1.059832
| 40> H      0.348072    3.360330   -2.518018
| 41> **                         ****END OF INPUT****
================================================================================

                       *****************************
                       * Geometry Optimization Run *
                       *****************************

Geometry optimization settings:
Update method            Update   .... BFGS
Choice of coordinates    CoordSys .... (2022) Redundant Internals
Initial Hessian          InHess   .... Almloef's Model
Max. no of cycles        MaxIter  .... 102

Convergence Tolerances:
Energy Change            TolE     ....  5.0000e-06 Eh
Max. Gradient            TolMAXG  ....  3.0000e-04 Eh/bohr
RMS Gradient             TolRMSG  ....  1.0000e-04 Eh/bohr
Max. Displacement        TolMAXD  ....  4.0000e-03 bohr
RMS Displacement         TolRMSD  ....  2.0000e-03 bohr
Strict Convergence                .... False

------------------------------------------------------------------------------
                        ORCA OPTIMIZATION COORDINATE SETUP
------------------------------------------------------------------------------

The optimization will be done in redundant internal coordinates (2022)
Making redundant internal coordinates   ...  (2022 redundants) done
Evaluating the initial hessian          ...  (Almloef) done
Evaluating the coordinates              ...  done
Calculating the B-matrix                .... done
Calculating the G-matrix                .... done
Diagonalizing the G-matrix              .... done
Small eigenvalue found = 6.756e-03
Small eigenvalue found = 7.317e-03
Small eigenvalue found = 8.819e-03
Small eigenvalue found = 2.327e-02
Small eigenvalue found = 2.775e-02
The first mode is                       ....   81
The number of degrees of freedom        ....   96

    -----------------------------------------------------------------
                    Redundant Internal Coordinates


    -----------------------------------------------------------------
         Definition                    Initial Value    Approx d2E/dq
    -----------------------------------------------------------------
      1. B(C   1,C   0)                  1.3926         0.618936   
      2. B(C   2,C   1)                  1.3953         0.612737   
      3. B(C   3,C   2)                  1.4046         0.592110   
      4. B(C   4,C   3)                  1.4017         0.598513   
      5. B(C   5,C   4)                  1.3967         0.609672   
      6. B(C   5,C   0)                  1.3933         0.617364   
      7. B(P   6,C   3)                  1.8068         0.454173   
      8. B(O   7,P   6)                  1.5253         1.144212   
      9. B(C   8,P   6)                  1.8053         0.456702   
     10. B(C   9,C   8)                  1.4020         0.597860   
     11. B(C  10,C   9)                  1.3962         0.610780   
     12. B(C  11,C  10)                  1.3933         0.617256   
     13. B(C  12,C  11)                  1.3929         0.618124   
     14. B(C  13,C  12)                  1.3955         0.612198   
     15. B(C  13,C   8)                  1.4038         0.593845   
     16. B(C  14,P   6)                  1.8195         0.433553   
     17. B(C  15,C  14)                  1.3952         0.612875   
     18. B(C  16,C  15)                  1.3917         0.620986   
     19. B(C  17,C  16)                  1.3887         0.627728   
     20. B(C  18,C  17)                  1.3838         0.639144   
     21. B(N  19,C  18)                  1.3512         0.645261   
     22. B(N  19,C  14)                  1.3645         0.614583   
     23. B(H  20,C   0)                  1.0868         0.364298   
     24. B(H  21,C   1)                  1.0870         0.364151   
     25. B(H  22,C   2)                  1.0892         0.361200   
     26. B(H  23,C   4)                  1.0870         0.364072   
     27. B(H  24,C   5)                  1.0871         0.363898   
     28. B(H  25,C   9)                  1.0873         0.363623   
     29. B(H  26,C  10)                  1.0870         0.364145   
     30. B(H  27,C  11)                  1.0868         0.364383   
     31. B(H  28,C  12)                  1.0869         0.364199   
     32. B(H  29,C  13)                  1.0889         0.361521   
     33. B(H  30,C  15)                  1.0868         0.364350   
     34. B(H  31,C  16)                  1.0865         0.364708   
     35. B(H  32,C  17)                  1.0843         0.367748   
     36. B(H  33,C  18)                  1.0865         0.364720   
     37. A(C   5,C   0,H  20)          120.0547         0.353347   
     38. A(C   1,C   0,C   5)          119.9297         0.433599   
     39. A(C   1,C   0,H  20)          120.0156         0.353499   
     40. A(C   0,C   1,H  21)          120.1148         0.353475   
     41. A(C   2,C   1,H  21)          119.9493         0.352873   
     42. A(C   0,C   1,C   2)          119.9359         0.433013   
     43. A(C   1,C   2,H  22)          119.4786         0.352388   
     44. A(C   1,C   2,C   3)          120.8380         0.429580   
     45. A(C   3,C   2,H  22)          119.6831         0.350354   
     46. A(C   2,C   3,P   6)          118.7089         0.434302   
     47. A(C   2,C   3,C   4)          118.5326         0.427774   
     48. A(C   4,C   3,P   6)          122.7571         0.435143   
     49. A(C   3,C   4,C   5)          120.6112         0.430023   
     50. A(C   3,C   4,H  23)          120.7080         0.351461   
     51. A(C   5,C   4,H  23)          118.6805         0.352561   
     52. A(C   0,C   5,C   4)          120.1525         0.432425   
     53. A(C   4,C   5,H  24)          119.9102         0.352532   
     54. A(C   0,C   5,H  24)          119.9373         0.353281   
     55. A(C   8,P   6,C  14)          108.2636         0.438560   
     56. A(C   3,P   6,C  14)          108.8444         0.438121   
     57. A(O   7,P   6,C   8)          111.0664         0.521479   
     58. A(C   3,P   6,C   8)          106.7661         0.442256   
     59. A(C   3,P   6,O   7)          110.5261         0.520936   
     60. A(O   7,P   6,C  14)          111.2296         0.516417   
     61. A(P   6,C   8,C   9)          121.8938         0.435493   
     62. A(C   9,C   8,C  13)          118.5966         0.427915   
     63. A(P   6,C   8,C  13)          119.5069         0.434965   
     64. A(C   8,C   9,C  10)          120.6386         0.430079   
     65. A(C  10,C   9,H  25)          119.0430         0.352596   
     66. A(C   8,C   9,H  25)          120.3168         0.351323   
     67. A(C   9,C  10,C  11)          120.0928         0.432553   
     68. A(C  11,C  10,H  26)          120.0013         0.353312   
     69. A(C   9,C  10,H  26)          119.9059         0.352681   
     70. A(C  10,C  11,C  12)          119.9459         0.433483   
     71. A(C  12,C  11,H  27)          120.0222         0.353435   
     72. A(C  10,C  11,H  27)          120.0319         0.353351   
     73. A(C  13,C  12,H  28)          119.9398         0.352829   
     74. A(C  11,C  12,H  28)          120.0879         0.353404   
     75. A(C  11,C  12,C  13)          119.9723         0.432842   
     76. A(C  12,C  13,H  29)          119.4332         0.352388   
     77. A(C   8,C  13,H  29)          119.8130         0.350580   
     78. A(C   8,C  13,C  12)          120.7537         0.429738   
     79. A(C  15,C  14,N  19)          121.8928         0.429655   
     80. A(P   6,C  14,N  19)          119.5668         0.430747   
     81. A(P   6,C  14,C  15)          118.5402         0.433365   
     82. A(C  16,C  15,H  30)          120.4643         0.353706   
     83. A(C  14,C  15,H  30)          120.3418         0.352919   
     84. A(C  14,C  15,C  16)          119.1934         0.433288   
     85. A(C  17,C  16,H  31)          120.4455         0.354413   
     86. A(C  15,C  16,H  31)          120.2145         0.353765   
     87. A(C  15,C  16,C  17)          119.3396         0.435159   
     88. A(C  18,C  17,H  32)          120.7240         0.355999   
     89. A(C  16,C  17,H  32)          121.0487         0.354912   
     90. A(C  16,C  17,C  18)          118.2272         0.437425   
     91. A(N  19,C  18,H  33)          115.2803         0.353877   
     92. A(C  17,C  18,N  19)          123.8685         0.436719   
     93. A(C  17,C  18,H  33)          120.8511         0.355499   
     94. A(C  14,N  19,C  18)          117.4765         0.430813   
     95. D(H  21,C   1,C   0,C   5)    179.9523         0.026503   
     96. D(C   2,C   1,C   0,H  20)    179.9956         0.026503   
     97. D(C   2,C   1,C   0,C   5)     -0.0089         0.026503   
     98. D(H  21,C   1,C   0,H  20)     -0.0432         0.026503   
     99. D(H  22,C   2,C   1,C   0)    179.8431         0.025943   
    100. D(C   3,C   2,C   1,C   0)      0.0445         0.025943   
    101. D(C   3,C   2,C   1,H  21)   -179.9168         0.025943   
    102. D(H  22,C   2,C   1,H  21)     -0.1181         0.025943   
    103. D(P   6,C   3,C   2,H  22)      0.5390         0.024136   
    104. D(P   6,C   3,C   2,C   1)   -179.6627         0.024136   
    105. D(C   4,C   3,C   2,H  22)   -179.8683         0.024136   
    106. D(C   4,C   3,C   2,C   1)     -0.0701         0.024136   
    107. D(H  23,C   4,C   3,C   2)   -179.7646         0.024688   
    108. D(C   5,C   4,C   3,P   6)    179.6366         0.024688   
    109. D(C   5,C   4,C   3,C   2)      0.0614         0.024688   
    110. D(H  23,C   4,C   3,P   6)     -0.1894         0.024688   
    111. D(H  24,C   5,C   4,H  23)     -0.1696         0.025670   
    112. D(C   0,C   5,C   4,H  23)    179.8021         0.025670   
    113. D(C   0,C   5,C   4,C   3)     -0.0274         0.025670   
    114. D(H  24,C   5,C   0,H  20)     -0.0324         0.026360   
    115. D(C   4,C   5,C   0,C   1)      0.0005         0.026360   
    116. D(H  24,C   5,C   4,C   3)   -179.9991         0.025670   
    117. D(C   4,C   5,C   0,H  20)    179.9960         0.026360   
    118. D(H  24,C   5,C   0,C   1)    179.9721         0.026360   
    119. D(C  14,P   6,C   3,C   2)   -149.2938         0.004314   
    120. D(C   8,P   6,C   3,C   4)    -85.5261         0.004314   
    121. D(C   8,P   6,C   3,C   2)     94.0483         0.004314   
    122. D(O   7,P   6,C   3,C   4)    153.5663         0.004314   
    123. D(O   7,P   6,C   3,C   2)    -26.8593         0.004314   
    124. D(C   9,C   8,P   6,O   7)    178.1612         0.004347   
    125. D(C   9,C   8,P   6,C   3)     57.5987         0.004347   
    126. D(C  13,C   8,P   6,O   7)     -1.2269         0.004347   
    127. D(C  13,C   8,P   6,C   3)   -121.7894         0.004347   
    128. D(C   9,C   8,P   6,C  14)    -59.4443         0.004347   
    129. D(H  25,C   9,C   8,C  13)   -179.6521         0.024631   
    130. D(H  25,C   9,C   8,P   6)      0.9544         0.024631   
    131. D(C  10,C   9,C   8,C  13)     -0.1112         0.024631   
    132. D(C  10,C   9,C   8,P   6)   -179.5047         0.024631   
    133. D(H  26,C  10,C   9,H  25)     -0.2715         0.025768   
    134. D(H  26,C  10,C   9,C   8)   -179.8182         0.025768   
    135. D(C  11,C  10,C   9,H  25)    179.6351         0.025768   
    136. D(C  11,C  10,C   9,C   8)      0.0884         0.025768   
    137. D(H  27,C  11,C  10,H  26)     -0.0960         0.026350   
    138. D(H  27,C  11,C  10,C   9)    179.9976         0.026350   
    139. D(C  12,C  11,C  10,H  26)    179.8687         0.026350   
    140. D(C  12,C  11,C  10,C   9)     -0.0377         0.026350   
    141. D(H  28,C  12,C  11,H  27)     -0.0664         0.026429   
    142. D(H  28,C  12,C  11,C  10)    179.9688         0.026429   
    143. D(C  13,C  12,C  11,H  27)    179.9770         0.026429   
    144. D(C  13,C  12,C  11,C  10)      0.0123         0.026429   
    145. D(H  29,C  13,C  12,H  28)     -0.1112         0.025895   
    146. D(H  29,C  13,C  12,C  11)    179.8454         0.025895   
    147. D(C   8,C  13,C  12,H  28)   -179.9938         0.025895   
    148. D(C   8,C  13,C  12,C  11)     -0.0372         0.025895   
    149. D(H  29,C  13,C   8,C   9)   -179.7964         0.024285   
    150. D(H  29,C  13,C   8,P   6)     -0.3881         0.024285   
    151. D(C  12,C  13,C   8,C   9)      0.0857         0.024285   
    152. D(C  12,C  13,C   8,P   6)    179.4940         0.024285   
    153. D(N  19,C  14,P   6,O   7)    168.4983         0.004057   
    154. D(N  19,C  14,P   6,C   3)    -69.4930         0.004057   
    155. D(C  15,C  14,P   6,C   8)   -133.9426         0.004057   
    156. D(C  15,C  14,P   6,O   7)    -11.6478         0.004057   
    157. D(C  15,C  14,P   6,C   3)    110.3609         0.004057   
    158. D(H  30,C  15,C  14,N  19)   -179.9986         0.025956   
    159. D(H  30,C  15,C  14,P   6)      0.1511         0.025956   
    160. D(C  16,C  15,C  14,N  19)     -0.2661         0.025956   
    161. D(C  16,C  15,C  14,P   6)    179.8836         0.025956   
    162. D(H  31,C  16,C  15,H  30)     -0.1079         0.026689   
    163. D(H  31,C  16,C  15,C  14)   -179.8400         0.026689   
    164. D(C  17,C  16,C  15,H  30)    179.6669         0.026689   
    165. D(C  17,C  16,C  15,C  14)     -0.0653         0.026689   
    166. D(H  32,C  17,C  16,H  31)      0.0236         0.027309   
    167. D(H  32,C  17,C  16,C  15)   -179.7506         0.027309   
    168. D(C  18,C  17,C  16,H  31)    179.8959         0.027309   
    169. D(C  18,C  17,C  16,C  15)      0.1216         0.027309   
    170. D(H  33,C  18,C  17,H  32)      0.0519         0.028377   
    171. D(H  33,C  18,C  17,C  16)   -179.8208         0.028377   
    172. D(N  19,C  18,C  17,H  32)   -179.9738         0.028377   
    173. D(N  19,C  18,C  17,C  16)      0.1535         0.028377   
    174. D(C  14,N  19,C  18,H  33)    179.5057         0.030735   
    175. D(C  14,N  19,C  18,C  17)     -0.4699         0.030735   
    176. D(C  18,N  19,C  14,C  15)      0.5211         0.027677   
    177. D(C  18,N  19,C  14,P   6)   -179.6301         0.027677   
    -----------------------------------------------------------------

Number of atoms                         .... 34
Number of degrees of freedom            .... 177


         *************************************************************
         *                GEOMETRY OPTIMIZATION CYCLE   1            *
         *************************************************************
---------------------------------
CARTESIAN COORDINATES (ANGSTROEM)
---------------------------------
  C     -3.729370   -2.173660   -0.286316
  C     -3.120356   -2.449742    0.935207
  C     -1.975185   -1.749581    1.316305
  C     -1.423406   -0.763206    0.482290
  C     -2.047839   -0.497489   -0.744184
  C     -3.194014   -1.198687   -1.125356
  P      0.065966    0.101572    1.028670
  O      0.146004    0.118837    2.551771
  C      1.470962   -0.779198    0.314967
  C      1.604135   -0.964094   -1.068388
  C      2.696560   -1.658540   -1.591514
  C      3.667823   -2.177987   -0.738213
  C      3.549021   -2.003446    0.638615
  C      2.457459   -1.308894    1.161717
  C      0.047316    1.789915    0.350719
  C     -0.143830    2.858270    1.227524
  C     -0.158039    4.155538    0.723911
  C      0.019452    4.358597   -0.638375
  C      0.202415    3.250554   -1.446906
  N      0.215887    1.978974   -0.990051
  H     -4.621384   -2.718303   -0.584489
  H     -3.535912   -3.209213    1.592465
  H     -1.506395   -1.969732    2.274460
  H     -1.648682    0.255783   -1.418613
  H     -3.669096   -0.983374   -2.079201
  H      0.859362   -0.560750   -1.750265
  H      2.789476   -1.792368   -2.666194
  H      4.517737   -2.718412   -1.146479
  H      4.305092   -2.408135    1.306430
  H      2.372020   -1.179786    2.239583
  H     -0.275539    2.678676    2.291266
  H     -0.303022    4.999940    1.392141
  H      0.017310    5.357612   -1.059832
  H      0.348072    3.360330   -2.518018

----------------------------
CARTESIAN COORDINATES (A.U.)
----------------------------
  NO LB      ZA    FRAG     MASS         X           Y           Z
   0 C     6.0000    0    12.011   -7.047488   -4.107622   -0.541059
   1 C     6.0000    0    12.011   -5.896618   -4.629341    1.767285
   2 C     6.0000    0    12.011   -3.732559   -3.306229    2.487456
   3 C     6.0000    0    12.011   -2.689848   -1.442250    0.911396
   4 C     6.0000    0    12.011   -3.869855   -0.940118   -1.406304
   5 C     6.0000    0    12.011   -6.035812   -2.265190   -2.126615
   6 P    15.0000    0    30.974    0.124658    0.191943    1.943905
   7 O     8.0000    0    15.999    0.275908    0.224569    4.822148
   8 C     6.0000    0    12.011    2.779715   -1.472471    0.595201
   9 C     6.0000    0    12.011    3.031376   -1.821874   -2.018961
  10 C     6.0000    0    12.011    5.095760   -3.134186   -3.007526
  11 C     6.0000    0    12.011    6.931181   -4.115799   -1.395020
  12 C     6.0000    0    12.011    6.706678   -3.785964    1.206807
  13 C     6.0000    0    12.011    4.643924   -2.473451    2.195327
  14 C     6.0000    0    12.011    0.089414    3.382449    0.662763
  15 C     6.0000    0    12.011   -0.271799    5.401348    2.319684
  16 C     6.0000    0    12.011   -0.298650    7.852829    1.367994
  17 C     6.0000    0    12.011    0.036759    8.236555   -1.206354
  18 C     6.0000    0    12.011    0.382509    6.142657   -2.734256
  19 N     7.0000    0    14.007    0.407967    3.739719   -1.870925
  20 H     1.0000    0     1.008   -8.733150   -5.136848   -1.104524
  21 H     1.0000    0     1.008   -6.681905   -6.064534    3.009323
  22 H     1.0000    0     1.008   -2.846674   -3.722254    4.298107
  23 H     1.0000    0     1.008   -3.115557    0.483360   -2.680790
  24 H     1.0000    0     1.008   -6.933587   -1.858308   -3.929120
  25 H     1.0000    0     1.008    1.623959   -1.059664   -3.307522
  26 H     1.0000    0     1.008    5.271346   -3.387085   -5.038376
  27 H     1.0000    0     1.008    8.537286   -5.137054   -2.166531
  28 H     1.0000    0     1.008    8.135445   -4.550716    2.468795
  29 H     1.0000    0     1.008    4.482468   -2.229472    4.232199
  30 H     1.0000    0     1.008   -0.520693    5.061964    4.329865
  31 H     1.0000    0     1.008   -0.572629    9.448517    2.630765
  32 H     1.0000    0     1.008    0.032711   10.124419   -2.002792
  33 H     1.0000    0     1.008    0.657761    6.350103   -4.758364

--------------------------------
INTERNAL COORDINATES (ANGSTROEM)
--------------------------------
 C      0   0   0     0.000000000000     0.00000000     0.00000000
 C      1   0   0     1.392565173501     0.00000000     0.00000000
 C      2   1   0     1.395305604793   119.93588214     0.00000000
 C      3   2   1     1.404626899106   120.83801246     0.04449050
 C      4   3   2     1.401699171810   118.53260304   359.92988909
 C      1   2   3     1.393257520728   119.92974299     0.00000000
 P      4   3   2     1.806820701693   118.70893044   180.33728382
 O      7   4   3     1.525300238599   110.52612021   333.14066507
 C      7   4   3     1.805309260245   106.76613087    94.04831731
 C      9   7   4     1.401995946774   121.89377159    57.59870983
 C     10   9   7     1.396176364009   120.63863905   180.49534854
 C     11  10   9     1.393305277956   120.09275394     0.08837366
 C     12  11  10     1.392922760769   119.94590152   359.96228479
 C     13  12  11     1.395544977044   119.97229452     0.00000000
 C      7   4   3     1.819469006757   108.84442190   210.70618927
 C     15   7   4     1.395244138983   118.54024752   110.36087821
 C     16  15   7     1.391665266245   119.19340864   179.88356206
 C     17  16  15     1.388725731870   119.33958320   359.93471394
 C     18  17  16     1.383819759643   118.22720445     0.12164989
 N     19  18  17     1.351226732347   123.86850432     0.15348253
 H      1   2   3     1.086845026475   120.01559781   179.99558944
 H      2   1   3     1.086954951937   120.11479268   179.96120452
 H      3   2   1     1.089170111106   119.47860566   179.84313512
 H      5   4   3     1.087014025979   120.70799401   180.23544039
 H      6   1   2     1.087144368848   119.93731573   179.97211475
 H     10   9   7     1.087349735363   120.31678119     0.95442765
 H     11  10   9     1.086959253625   119.90586685   180.18183566
 H     12  11  10     1.086781539582   120.03186337   179.99755469
 H     13  12  11     1.086919232504   120.08794104   179.96884869
 H     14  13  12     1.088927826966   119.43320981   179.84540662
 H     16  15   7     1.086806472230   120.34176417     0.15106749
 H     17  16  15     1.086538605293   120.21451139   180.15995897
 H     18  17  16     1.084279281937   121.04869531   180.24939291
 H     19  18  17     1.086530095473   120.85114154   180.17918751

---------------------------
INTERNAL COORDINATES (A.U.)
---------------------------
 C      0   0   0     0.000000000000     0.00000000     0.00000000
 C      1   0   0     2.631566801554     0.00000000     0.00000000
 C      2   1   0     2.636745466184   119.93588214     0.00000000
 C      3   2   1     2.654360159649   120.83801246     0.04449050
 C      4   3   2     2.648827556866   118.53260304   359.92988909
 C      1   2   3     2.632875148202   119.92974299     0.00000000
 P      4   3   2     3.414396299300   118.70893044   180.33728382
 O      7   4   3     2.882399722957   110.52612021   333.14066507
 C      7   4   3     3.411540088894   106.76613087    94.04831731
 C      9   7   4     2.649388380270   121.89377159    57.59870983
 C     10   9   7     2.638390962631   120.63863905   180.49534854
 C     11  10   9     2.632965396283   120.09275394     0.08837366
 C     12  11  10     2.632242543559   119.94590152   359.96228479
 C     13  12  11     2.637197814182   119.97229452     0.00000000
 C      7   4   3     3.438298131929   108.84442190   210.70618927
 C     15   7   4     2.636629312636   118.54024752   110.36087821
 C     16  15   7     2.629866223294   119.19340864   179.88356206
 C     17  16  15     2.624311308364   119.33958320   359.93471394
 C     18  17  16     2.615040364434   118.22720445     0.12164989
 N     19  18  17     2.553448468969   123.86850432     0.15348253
 H      1   2   3     2.053839450053   120.01559781   179.99558944
 H      2   1   3     2.054047179071   120.11479268   179.96120452
 H      3   2   1     2.058233223242   119.47860566   179.84313512
 H      5   4   3     2.054158812831   120.70799401   180.23544039
 H      6   1   2     2.054405125157   119.93731573   179.97211475
 H     10   9   7     2.054793211628   120.31678119     0.95442765
 H     11  10   9     2.054055308082   119.90586685   180.18183566
 H     12  11  10     2.053719477212   120.03186337   179.99755469
 H     13  12  11     2.053979679124   120.08794104   179.96884869
 H     14  13  12     2.057775372572   119.43320981   179.84540662
 H     16  15   7     2.053766593088   120.34176417     0.15106749
 H     17  16  15     2.053260397937   120.21451139   180.15995897
 H     18  17  16     2.048990895546   121.04869531   180.24939291
 H     19  18  17     2.053244316708   120.85114154   180.17918751

---------------------
BASIS SET INFORMATION
---------------------
There are 5 groups of distinct atoms

 Group   1 Type C   : 7s4p1d contracted to 3s2p1d pattern {511/31/1}
 Group   2 Type P   : 10s7p1d contracted to 4s3p1d pattern {5311/511/1}
 Group   3 Type O   : 7s4p1d contracted to 3s2p1d pattern {511/31/1}
 Group   4 Type N   : 7s4p1d contracted to 3s2p1d pattern {511/31/1}
 Group   5 Type H   : 4s1p contracted to 2s1p pattern {31/1}

Atom   0C    basis set group =>   1
Atom   1C    basis set group =>   1
Atom   2C    basis set group =>   1
Atom   3C    basis set group =>   1
Atom   4C    basis set group =>   1
Atom   5C    basis set group =>   1
Atom   6P    basis set group =>   2
Atom   7O    basis set group =>   3
Atom   8C    basis set group =>   1
Atom   9C    basis set group =>   1
Atom  10C    basis set group =>   1
Atom  11C    basis set group =>   1
Atom  12C    basis set group =>   1
Atom  13C    basis set group =>   1
Atom  14C    basis set group =>   1
Atom  15C    basis set group =>   1
Atom  16C    basis set group =>   1
Atom  17C    basis set group =>   1
Atom  18C    basis set group =>   1
Atom  19N    basis set group =>   4
Atom  20H    basis set group =>   5
Atom  21H    basis set group =>   5
Atom  22H    basis set group =>   5
Atom  23H    basis set group =>   5
Atom  24H    basis set group =>   5
Atom  25H    basis set group =>   5
Atom  26H    basis set group =>   5
Atom  27H    basis set group =>   5
Atom  28H    basis set group =>   5
Atom  29H    basis set group =>   5
Atom  30H    basis set group =>   5
Atom  31H    basis set group =>   5
Atom  32H    basis set group =>   5
Atom  33H    basis set group =>   5
---------------------------------
AUXILIARY/J BASIS SET INFORMATION
---------------------------------
There are 5 groups of distinct atoms

 Group   1 Type C   : 12s5p4d2f1g contracted to 6s4p3d1f1g pattern {711111/2111/211/2/1}
 Group   2 Type P   : 14s5p5d2f1g contracted to 8s4p3d1f1g pattern {71111111/2111/311/2/1}
 Group   3 Type O   : 12s5p4d2f1g contracted to 6s4p3d1f1g pattern {711111/2111/211/2/1}
 Group   4 Type N   : 12s5p4d2f1g contracted to 6s4p3d1f1g pattern {711111/2111/211/2/1}
 Group   5 Type H   : 5s2p1d contracted to 3s1p1d pattern {311/2/1}

Atom   0C    basis set group =>   1
Atom   1C    basis set group =>   1
Atom   2C    basis set group =>   1
Atom   3C    basis set group =>   1
Atom   4C    basis set group =>   1
Atom   5C    basis set group =>   1
Atom   6P    basis set group =>   2
Atom   7O    basis set group =>   3
Atom   8C    basis set group =>   1
Atom   9C    basis set group =>   1
Atom  10C    basis set group =>   1
Atom  11C    basis set group =>   1
Atom  12C    basis set group =>   1
Atom  13C    basis set group =>   1
Atom  14C    basis set group =>   1
Atom  15C    basis set group =>   1
Atom  16C    basis set group =>   1
Atom  17C    basis set group =>   1
Atom  18C    basis set group =>   1
Atom  19N    basis set group =>   4
Atom  20H    basis set group =>   5
Atom  21H    basis set group =>   5
Atom  22H    basis set group =>   5
Atom  23H    basis set group =>   5
Atom  24H    basis set group =>   5
Atom  25H    basis set group =>   5
Atom  26H    basis set group =>   5
Atom  27H    basis set group =>   5
Atom  28H    basis set group =>   5
Atom  29H    basis set group =>   5
Atom  30H    basis set group =>   5
Atom  31H    basis set group =>   5
Atom  32H    basis set group =>   5
Atom  33H    basis set group =>   5


           ************************************************************
           *        Program running with 6 parallel MPI-processes     *
           *              working on a common directory               *
           ************************************************************
------------------------------------------------------------------------------
                             ORCA STARTUP CALCULATIONS
                           -- RI-GTO INTEGRALS CHOSEN --
------------------------------------------------------------------------------
------------------------------------------------------------------------------
                   ___                                                        
                  /   \      - P O W E R E D   B Y -                         
                 /     \                                                     
                 |  |  |   _    _      __       _____    __    __             
                 |  |  |  | |  | |    /  \     |  _  \  |  |  /  |          
                  \  \/   | |  | |   /    \    | | | |  |  | /  /          
                 / \  \   | |__| |  /  /\  \   | |_| |  |  |/  /          
                |  |  |   |  __  | /  /__\  \  |    /   |      \           
                |  |  |   | |  | | |   __   |  |    \   |  |\   \          
                \     /   | |  | | |  |  |  |  | |\  \  |  | \   \       
                 \___/    |_|  |_| |__|  |__|  |_| \__\ |__|  \__/        
                                                                              
                      - O R C A' S   B I G   F R I E N D -                    
                                      &                                       
                       - I N T E G R A L  F E E D E R -                       
                                                                              
 v1 FN, 2020, v2 2021, v3 2022-2024                                           
------------------------------------------------------------------------------


----------------------
SHARK INTEGRAL PACKAGE
----------------------

Number of atoms                             ...     34
Number of basis functions                   ...    354
Number of shells                            ...    164
Maximum angular momentum                    ...      2
Integral batch strategy                     ... SHARK/LIBINT Hybrid
RI-J (if used) integral strategy            ... SPLIT-RIJ (Revised 2003 algorithm where possible)
Printlevel                                  ...      1
Contraction scheme used                     ... SEGMENTED contraction
Prescreening option                         ... SCHWARTZ
   Thresh                                   ... 2.500e-11
   Tcut                                     ... 2.500e-12
   Tpresel                                  ... 2.500e-12 
Coulomb Range Separation                    ... NOT USED
Exchange Range Separation                   ... NOT USED
Multipole approximations                    ... NOT USED
Finite Nucleus Model                        ... NOT USED
CABS basis                                  ... NOT available
Auxiliary Coulomb fitting basis             ... AVAILABLE
   # of basis functions in Aux-J            ...   1136
   # of shells in Aux-J                     ...    372
   Maximum angular momentum in Aux-J        ...      4
Auxiliary J/K fitting basis                 ... NOT available
Auxiliary Correlation fitting basis         ... NOT available
Auxiliary 'external' fitting basis          ... NOT available

Checking pre-screening integrals            ... done (  0.0 sec) Dimension = 164
Check shell pair data                       ... done (  0.0 sec)
Shell pair information
Shell pair cut-off parameter TPreSel        ...   2.5e-12
Total number of shell pairs                 ...     13530
Shell pairs after pre-screening             ...     10514
Total number of primitive shell pairs       ...     50398
Primitive shell pairs kept                  ...     25077
          la=0 lb=0:   3174 shell pairs
          la=1 lb=0:   3904 shell pairs
          la=1 lb=1:   1237 shell pairs
          la=2 lb=0:   1286 shell pairs
          la=2 lb=1:    788 shell pairs
          la=2 lb=2:    125 shell pairs

Calculating one electron integrals          ... done (  0.0 sec)
Calculating RI/J V-Matrix + Cholesky decomp.... done (  0.1 sec)
Calculating Nuclear repulsion               ... done (  0.0 sec) ENN=   1576.896354903450 Eh

Diagonalization of the overlap matrix:
Smallest eigenvalue                        ... 2.864e-04
Time for diagonalization                   ...    0.016 sec
Threshold for overlap eigenvalues          ... 1.000e-07
Number of eigenvalues below threshold      ... 0
Time for construction of square roots      ...    0.008 sec
Total time needed                          ...    0.026 sec

-------------------
DFT GRID GENERATION
-------------------

General Integration Accuracy     IntAcc      ... 4.388
Radial Grid Type                 RadialGrid  ... OptM3 with GC (2021)
Angular Grid (max. ang.)         AngularGrid ... 4 (Lebedev-302)
Angular grid pruning method      GridPruning ... 4 (adaptive)
Weight generation scheme         WeightScheme... mBecke (2022)
Basis function cutoff            BFCut       ... 1.0000e-11
Integration weight cutoff        WCut        ... 1.0000e-14
Partially contracted basis set               ... off
Rotationally invariant grid construction     ... off
Angular grids for H and He will be reduced by one unit

Total number of grid points                  ...   165674
Total number of batches                      ...     2607
Average number of points per batch           ...       63
Average number of grid points per atom       ...     4873
Initializing property integral containers    ... done (  0.0 sec)

SHARK setup successfully completed in   1.2 seconds

Maximum memory used throughout the entire STARTUP-calculation: 45.0 MB


           ************************************************************
           *        Program running with 6 parallel MPI-processes     *
           *              working on a common directory               *
           ************************************************************
-------------------------------------------------------------------------------
                                 ORCA GUESS
                   Start orbitals & Density for SCF / CASSCF
-------------------------------------------------------------------------------

------------
SCF SETTINGS
------------
Hamiltonian:
 Density Functional     Method          .... DFT(GTOs)
 Exchange Functional    Exchange        .... B88
   X-Alpha parameter    XAlpha          ....  0.666667
   Becke's b parameter  XBeta           ....  0.004200
 Correlation Functional Correlation     .... P86
 LDA part of GGA corr.  LDAOpt          .... PW91-LDA
 Gradients option       PostSCFGGA      .... off
   NL short-range parameter             ....  4.400000
 RI-approximation to the Coulomb term is turned on
   Number of AuxJ basis functions       .... 1136


General Settings:
 Integral files         IntName         .... data/geom_opt_PO_BP86/621893/621893
 Hartree-Fock type      HFTyp           .... RHF
 Total Charge           Charge          ....    0
 Multiplicity           Mult            ....    1
 Number of Electrons    NEL             ....  146
 Basis Dimension        Dim             ....  354
 Nuclear Repulsion      ENuc            ....   1576.8963549034 Eh

Convergence Acceleration:
 AO-DIIS                CNVDIIS         .... on
   Start iteration      DIISMaxIt       ....    12
   Startup error        DIISStart       ....  0.200000
   # of expansion vecs  DIISMaxEq       ....     5
   Bias factor          DIISBfac        ....   1.050
   Max. coefficient     DIISMaxC        ....  10.000
 MO-DIIS                CNVKDIIS        .... off
 Trust-Rad. Augm. Hess. CNVTRAH         .... auto
   Auto Start mean grad. ratio tolernc. ....  1.125000
   Auto Start start iteration           ....    50
   Auto Start num. interpolation iter.  ....    10
   Max. Number of Micro iterations      ....    24
   Max. Number of Macro iterations      .... Maxiter - #DIIS iter
   Number of Davidson start vectors     ....     2
   Converg. threshold    (grad. norm)   ....   1.000e-05
   Grad. Scal. Fac. for Micro threshold ....   0.100
   Minimum threshold for Micro iter.    ....   1.000e-02
   NR start threshold (gradient norm)   ....   1.000e-04
   Initial trust radius                 ....   0.400
   Minimum AH scaling param. (alpha)    ....   1.000
   Maximum AH scaling param. (alpha)    .... 1000.000
   Quad. conv. algorithm                .... NR
   White noise on init. David. guess    .... on
   Maximum white noise                  ....   0.010
   Pseudo random numbers                .... off
   Inactive MOs                         .... canonical
   Orbital update algorithm             .... Taylor
   Preconditioner                       .... Diag
   Full preconditioner red. dimension   ....   250
 SOSCF                  CNVSOSCF        .... on
   Start iteration      SOSCFMaxIt      ....   150
   Startup grad/error   SOSCFStart      ....  0.003300
   Hessian update       SOSCFHessUp     .... L-BFGS
 Level Shifting         CNVShift        .... on
   Level shift para.    LevelShift      ....    0.2500
   Turn off err/grad.   ShiftErr        ....    0.0010
 Zerner damping         CNVZerner       .... off
 Static damping         CNVDamp         .... on
   Fraction old density DampFac         ....    0.7000
   Max. Damping (<1)    DampMax         ....    0.9800
   Min. Damping (>=0)   DampMin         ....    0.0000
   Turn off err/grad.   DampErr         ....    0.1000

SCF Procedure:
 Maximum # iterations   MaxIter         ....   125
 SCF integral mode      SCFMode         .... Direct
   Integral package                     .... SHARK and LIBINT hybrid scheme
 Reset frequency        DirectResetFreq ....    20
 Integral Threshold     Thresh          ....  2.500e-11 Eh
 Primitive CutOff       TCut            ....  2.500e-12 Eh

Convergence Tolerance:
 Convergence Check Mode ConvCheckMode   .... Total+1el-Energy
 Convergence forced     ConvForced      .... 0
 Energy Change          TolE            ....  1.000e-08 Eh
 1-El. energy change                    ....  1.000e-05 Eh
 Orbital Gradient       TolG            ....  1.000e-05
 Orbital Rotation angle TolX            ....  1.000e-05
 DIIS Error             TolErr          ....  5.000e-07

------------------------------
INITIAL GUESS: MODEL POTENTIAL
------------------------------
Loading Hartree-Fock densities                     ... done
Calculating cut-offs                               ... done
Initializing the effective Hamiltonian             ... done
Setting up the integral package (SHARK)            ... done
Starting the Coulomb interaction                   ... done (   0.1 sec)
Making the grid                                    ... done (   0.3 sec)
Mapping shells                                     ... done
Starting the XC term evaluation                    ... done (   0.2 sec)
  promolecular density results
     # of electrons  =    145.983896551
     EX              =   -128.969665036
     EC              =     -5.426383633
     EX+EC           =   -134.396048669
Transforming the Hamiltonian                       ... done (   0.0 sec)
Diagonalizing the Hamiltonian                      ... done (   0.0 sec)
Back transforming the eigenvectors                 ... done (   0.0 sec)
Now organizing SCF variables                       ... done
                      ------------------
                      INITIAL GUESS DONE (   0.6 sec)
                      ------------------
             **** ENERGY FILE WAS UPDATED (data/geom_opt_PO_BP86/621893/621893.en.tmp) ****
Finished Guess after   0.7 sec
Maximum memory used throughout the entire GUESS-calculation: 25.4 MB


           ************************************************************
           *        Program running with 6 parallel MPI-processes     *
           *              working on a common directory               *
           ************************************************************

-------------------------------------------------------------------------------------------
                                      ORCA LEAN-SCF
                              memory conserving SCF solver
-------------------------------------------------------------------------------------------

----------------------------------------D-I-I-S--------------------------------------------
Iteration    Energy (Eh)           Delta-E    RMSDP     MaxDP     DIISErr   Damp  Time(sec)
-------------------------------------------------------------------------------------------
               ***  Starting incremental Fock matrix formation  ***
    1    -1126.5255048198459917     0.00e+00  3.39e-03  1.55e-01  3.32e-01  0.700   0.9
    2    -1126.7348410204817810    -2.09e-01  1.93e-03  7.10e-02  7.66e-02  0.700   0.9
                               ***Turning on AO-DIIS***
    3    -1126.7987352438713060    -6.39e-02  6.95e-04  1.86e-02  3.32e-02  0.700   0.8
    4    -1126.8442847861956579    -4.55e-02  1.23e-03  4.82e-02  2.00e-02  0.000   0.8
    5    -1126.9458986537792953    -1.02e-01  2.94e-04  9.41e-03  6.77e-03  0.000   0.9
    6    -1126.9468706632555950    -9.72e-04  1.10e-04  3.75e-03  4.54e-03  0.000   0.8
                              *** Initializing SOSCF ***
---------------------------------------S-O-S-C-F--------------------------------------
Iteration    Energy (Eh)           Delta-E    RMSDP     MaxDP     MaxGrad    Time(sec)
--------------------------------------------------------------------------------------
    7    -1126.9469541556386503    -8.35e-05  4.07e-05  1.73e-03  2.33e-03     0.8
               *** Restarting incremental Fock matrix formation ***
    8    -1126.9469695574844081    -1.54e-05  3.77e-05  1.23e-03  1.81e-04     0.8
    9    -1126.9469673291455365     2.23e-06  2.39e-05  9.04e-04  3.75e-04     0.7
   10    -1126.9469712676968811    -3.94e-06  1.18e-05  9.45e-04  5.35e-05     0.8
   11    -1126.9469710220387242     2.46e-07  6.11e-06  4.28e-04  9.28e-05     0.8
   12    -1126.9469714458687122    -4.24e-07  5.63e-06  4.03e-04  3.62e-05     0.7
   13    -1126.9469713058060734     1.40e-07  3.41e-06  2.51e-04  6.52e-05     0.7
   14    -1126.9469715062364230    -2.00e-07  2.32e-06  1.62e-04  1.41e-05     0.7
   15    -1126.9469714811366430     2.51e-08  1.51e-06  1.16e-04  2.01e-05     1.0
   16    -1126.9469715098443885    -2.87e-08  5.54e-07  1.88e-05  3.09e-06     1.0
   17    -1126.9469714946576460     1.52e-08  3.62e-07  1.25e-05  6.99e-06     0.7
   18    -1126.9469715136456216    -1.90e-08  1.72e-07  4.90e-06  8.14e-07     0.6
                  *** Gradient check signals convergence ***

               *****************************************************
               *                     SUCCESS                       *
               *           SCF CONVERGED AFTER  18 CYCLES          *
               *****************************************************

             **** ENERGY FILE WAS UPDATED (data/geom_opt_PO_BP86/621893/621893.en.tmp) ****

----------------
TOTAL SCF ENERGY
----------------

Total Energy       :      -1126.94697151364562 Eh          -30665.78611 eV

Components:
Nuclear Repulsion  :       1576.89635490344972 Eh           42909.53130 eV
Electronic Energy  :      -2703.84332641709534 Eh          -73575.31741 eV
One Electron Energy:      -4669.58652155853997 Eh         -127065.90916 eV
Two Electron Energy:       1965.74319514144440 Eh           53490.59175 eV

Virial components:
Potential Energy   :      -2244.19012594350215 Eh          -61067.51794 eV
Kinetic Energy     :       1117.24315442985653 Eh           30401.73183 eV
Virial Ratio       :          2.00868550149116

DFT components:
N(Alpha)           :       73.000005211528 electrons
N(Beta)            :       73.000005211528 electrons
N(Total)           :      146.000010423056 electrons
E(X)               :     -130.743660699728 Eh       
E(C)               :       -5.435503873197 Eh       
E(XC)              :     -136.179164572925 Eh       

---------------
SCF CONVERGENCE
---------------

  Last Energy change         ...    1.8988e-08  Tolerance :   1.0000e-08
  Last MAX-Density change    ...    4.8952e-06  Tolerance :   1.0000e-07
  Last RMS-Density change    ...    1.7155e-07  Tolerance :   5.0000e-09
  Last DIIS Error            ...    2.3326e-03  Tolerance :   5.0000e-07
  Last Orbital Gradient      ...    8.1375e-07  Tolerance :   1.0000e-05
  Last Orbital Rotation      ...    2.7223e-06  Tolerance :   1.0000e-05


----------------
ORBITAL ENERGIES
----------------

  NO   OCC          E(Eh)            E(eV) 
   0   2.0000     -76.412471     -2079.2890 
   1   2.0000     -18.709675      -509.1161 
   2   2.0000     -14.030198      -381.7811 
   3   2.0000      -9.962478      -271.0928 
   4   2.0000      -9.961702      -271.0717 
   5   2.0000      -9.946235      -270.6508 
   6   2.0000      -9.940069      -270.4830 
   7   2.0000      -9.937556      -270.4146 
   8   2.0000      -9.923964      -270.0448 
   9   2.0000      -9.923403      -270.0295 
  10   2.0000      -9.922768      -270.0122 
  11   2.0000      -9.922628      -270.0084 
  12   2.0000      -9.921418      -269.9755 
  13   2.0000      -9.920845      -269.9599 
  14   2.0000      -9.920678      -269.9554 
  15   2.0000      -9.920045      -269.9382 
  16   2.0000      -9.919856      -269.9330 
  17   2.0000      -9.919647      -269.9273 
  18   2.0000      -9.918078      -269.8846 
  19   2.0000      -9.917618      -269.8721 
  20   2.0000      -6.372014      -173.3913 
  21   2.0000      -4.593296      -124.9899 
  22   2.0000      -4.593061      -124.9835 
  23   2.0000      -4.592776      -124.9758 
  24   2.0000      -0.869746       -23.6670 
  25   2.0000      -0.843655       -22.9570 
  26   2.0000      -0.779824       -21.2201 
  27   2.0000      -0.776293       -21.1240 
  28   2.0000      -0.740975       -20.1630 
  29   2.0000      -0.708260       -19.2727 
  30   2.0000      -0.687397       -18.7050 
  31   2.0000      -0.675471       -18.3805 
  32   2.0000      -0.674511       -18.3544 
  33   2.0000      -0.671973       -18.2853 
  34   2.0000      -0.601294       -16.3620 
  35   2.0000      -0.580865       -15.8061 
  36   2.0000      -0.563019       -15.3205 
  37   2.0000      -0.547862       -14.9081 
  38   2.0000      -0.543935       -14.8012 
  39   2.0000      -0.540686       -14.7128 
  40   2.0000      -0.509996       -13.8777 
  41   2.0000      -0.482014       -13.1163 
  42   2.0000      -0.473150       -12.8751 
  43   2.0000      -0.456552       -12.4234 
  44   2.0000      -0.448404       -12.2017 
  45   2.0000      -0.420404       -11.4398 
  46   2.0000      -0.413032       -11.2392 
  47   2.0000      -0.408715       -11.1217 
  48   2.0000      -0.404869       -11.0171 
  49   2.0000      -0.399943       -10.8830 
  50   2.0000      -0.392054       -10.6683 
  51   2.0000      -0.387513       -10.5448 
  52   2.0000      -0.379532       -10.3276 
  53   2.0000      -0.375665       -10.2224 
  54   2.0000      -0.368364       -10.0237 
  55   2.0000      -0.367177        -9.9914 
  56   2.0000      -0.348459        -9.4821 
  57   2.0000      -0.337811        -9.1923 
  58   2.0000      -0.334971        -9.1150 
  59   2.0000      -0.317851        -8.6492 
  60   2.0000      -0.311431        -8.4745 
  61   2.0000      -0.306856        -8.3500 
  62   2.0000      -0.304752        -8.2927 
  63   2.0000      -0.292872        -7.9694 
  64   2.0000      -0.278852        -7.5879 
  65   2.0000      -0.259850        -7.0709 
  66   2.0000      -0.247360        -6.7310 
  67   2.0000      -0.239855        -6.5268 
  68   2.0000      -0.236942        -6.4475 
  69   2.0000      -0.231877        -6.3097 
  70   2.0000      -0.229920        -6.2564 
  71   2.0000      -0.212173        -5.7735 
  72   2.0000      -0.209892        -5.7114 
  73   0.0000      -0.088099        -2.3973 
  74   0.0000      -0.070432        -1.9165 
  75   0.0000      -0.064680        -1.7600 
  76   0.0000      -0.048694        -1.3250 
  77   0.0000      -0.042628        -1.1600 
  78   0.0000      -0.040092        -1.0910 
  79   0.0000       0.024380         0.6634 
  80   0.0000       0.039678         1.0797 
  81   0.0000       0.046044         1.2529 
  82   0.0000       0.050864         1.3841 
  83   0.0000       0.062392         1.6978 
*Only the first 10 virtual orbitals were printed.

                    ********************************
                    * MULLIKEN POPULATION ANALYSIS *
                    ********************************

-----------------------
MULLIKEN ATOMIC CHARGES
-----------------------
   0 C :    0.015111
   1 C :    0.011997
   2 C :    0.001138
   3 C :   -0.094285
   4 C :   -0.010350
   5 C :    0.013682
   6 P :    0.642777
   7 O :   -0.464558
   8 C :   -0.093998
   9 C :    0.012901
  10 C :    0.009279
  11 C :    0.015294
  12 C :    0.009970
  13 C :   -0.008207
  14 C :   -0.147542
  15 C :    0.029831
  16 C :    0.047723
  17 C :    0.000986
  18 C :    0.031511
  19 N :   -0.108722
  20 H :   -0.000934
  21 H :    0.001213
  22 H :    0.012176
  23 H :   -0.000385
  24 H :   -0.004836
  25 H :   -0.000438
  26 H :   -0.005127
  27 H :   -0.002160
  28 H :   -0.000811
  29 H :    0.010852
  30 H :    0.027016
  31 H :    0.016983
  32 H :    0.012327
  33 H :    0.019588
Sum of atomic charges:   -0.0000000

--------------------------------
MULLIKEN REDUCED ORBITAL CHARGES
--------------------------------
  0 C s       :     3.168763  s :     3.168763
      pz      :     0.956938  p :     2.783004
      px      :     0.887997
      py      :     0.938069
      dz2     :     0.008685  d :     0.033122
      dxz     :     0.007222
      dyz     :     0.007252
      dx2y2   :     0.004475
      dxy     :     0.005489

  1 C s       :     3.170691  s :     3.170691
      pz      :     0.918410  p :     2.784512
      px      :     0.950416
      py      :     0.915686
      dz2     :     0.006921  d :     0.032800
      dxz     :     0.008200
      dyz     :     0.006964
      dx2y2   :     0.005294
      dxy     :     0.005422

  2 C s       :     3.244755  s :     3.244755
      pz      :     0.880663  p :     2.721516
      px      :     0.898059
      py      :     0.942794
      dz2     :     0.006708  d :     0.032591
      dxz     :     0.007408
      dyz     :     0.005486
      dx2y2   :     0.006787
      dxy     :     0.006201

  3 C s       :     3.055315  s :     3.055315
      pz      :     0.982660  p :     3.005663
      px      :     0.995552
      py      :     1.027451
      dz2     :     0.008616  d :     0.033307
      dxz     :     0.007281
      dyz     :     0.007131
      dx2y2   :     0.004747
      dxy     :     0.005532

  4 C s       :     3.226973  s :     3.226973
      pz      :     0.935446  p :     2.750610
      px      :     0.919789
      py      :     0.895375
      dz2     :     0.006852  d :     0.032767
      dxz     :     0.008108
      dyz     :     0.007034
      dx2y2   :     0.005427
      dxy     :     0.005347

  5 C s       :     3.169050  s :     3.169050
      pz      :     0.866563  p :     2.784544
      px      :     0.950603
      py      :     0.967378
      dz2     :     0.006961  d :     0.032724
      dxz     :     0.007474
      dyz     :     0.005419
      dx2y2   :     0.006602
      dxy     :     0.006267

  6 P s       :     5.209114  s :     5.209114
      pz      :     2.794070  p :     8.675933
      px      :     2.938729
      py      :     2.943134
      dz2     :     0.083991  d :     0.472176
      dxz     :     0.130723
      dyz     :     0.135742
      dx2y2   :     0.062663
      dxy     :     0.059057

  7 O s       :     3.821470  s :     3.821470
      pz      :     1.331677  p :     4.631539
      px      :     1.655813
      py      :     1.644048
      dz2     :     0.004993  d :     0.011549
      dxz     :     0.003234
      dyz     :     0.003236
      dx2y2   :     0.000044
      dxy     :     0.000042

  8 C s       :     3.051758  s :     3.051758
      pz      :     0.984039  p :     3.009010
      px      :     1.000127
      py      :     1.024844
      dz2     :     0.009106  d :     0.033230
      dxz     :     0.009527
      dyz     :     0.007075
      dx2y2   :     0.003376
      dxy     :     0.004145

  9 C s       :     3.226017  s :     3.226017
      pz      :     0.929115  p :     2.728274
      px      :     0.877095
      py      :     0.922063
      dz2     :     0.008040  d :     0.032808
      dxz     :     0.010255
      dyz     :     0.006703
      dx2y2   :     0.003959
      dxy     :     0.003851

 10 C s       :     3.169246  s :     3.169246
      pz      :     0.836468  p :     2.788772
      px      :     0.969991
      py      :     0.982313
      dz2     :     0.009370  d :     0.032703
      dxz     :     0.007850
      dyz     :     0.004362
      dx2y2   :     0.005718
      dxy     :     0.005402

 11 C s       :     3.168463  s :     3.168463
      pz      :     0.950530  p :     2.783082
      px      :     0.893554
      py      :     0.938998
      dz2     :     0.009314  d :     0.033161
      dxz     :     0.009768
      dyz     :     0.007116
      dx2y2   :     0.002994
      dxy     :     0.003970

 12 C s       :     3.170915  s :     3.170915
      pz      :     0.911490  p :     2.786367
      px      :     0.909884
      py      :     0.964993
      dz2     :     0.008153  d :     0.032748
      dxz     :     0.010357
      dyz     :     0.006612
      dx2y2   :     0.003750
      dxy     :     0.003877

 13 C s       :     3.251743  s :     3.251743
      pz      :     0.856491  p :     2.723793
      px      :     0.928682
      py      :     0.938619
      dz2     :     0.008932  d :     0.032672
      dxz     :     0.007859
      dyz     :     0.004349
      dx2y2   :     0.006073
      dxy     :     0.005459

 14 C s       :     3.128998  s :     3.128998
      pz      :     0.945401  p :     2.968588
      px      :     0.987680
      py      :     1.035508
      dz2     :     0.014918  d :     0.049955
      dxz     :     0.008560
      dyz     :     0.018256
      dx2y2   :     0.004700
      dxy     :     0.003521

 15 C s       :     3.201484  s :     3.201484
      pz      :     0.877702  p :     2.737186
      px      :     0.940135
      py      :     0.919348
      dz2     :     0.008007  d :     0.031500
      dxz     :     0.002623
      dyz     :     0.010330
      dx2y2   :     0.005134
      dxy     :     0.005406

 16 C s       :     3.146385  s :     3.146385
      pz      :     0.922281  p :     2.772264
      px      :     0.939751
      py      :     0.910232
      dz2     :     0.008297  d :     0.033628
      dxz     :     0.004683
      dyz     :     0.012556
      dx2y2   :     0.004157
      dxy     :     0.003935

 17 C s       :     3.163118  s :     3.163118
      pz      :     0.950435  p :     2.803786
      px      :     0.975710
      py      :     0.877641
      dz2     :     0.008626  d :     0.032110
      dxz     :     0.005042
      dyz     :     0.011407
      dx2y2   :     0.004035
      dxy     :     0.003000

 18 C s       :     3.137298  s :     3.137298
      pz      :     0.908586  p :     2.780854
      px      :     0.947118
      py      :     0.925149
      dz2     :     0.013439  d :     0.050338
      dxz     :     0.002770
      dyz     :     0.015812
      dx2y2   :     0.009458
      dxy     :     0.008859

 19 N s       :     3.525744  s :     3.525744
      pz      :     1.163815  p :     3.556829
      px      :     1.112215
      py      :     1.280799
      dz2     :     0.008247  d :     0.026149
      dxz     :     0.004067
      dyz     :     0.005031
      dx2y2   :     0.004705
      dxy     :     0.004098

 20 H s       :     0.978622  s :     0.978622
      pz      :     0.004705  p :     0.022312
      px      :     0.010811
      py      :     0.006796

 21 H s       :     0.976431  s :     0.976431
      pz      :     0.007628  p :     0.022356
      px      :     0.005550
      py      :     0.009178

 22 H s       :     0.965074  s :     0.965074
      pz      :     0.012183  p :     0.022749
      px      :     0.006168
      py      :     0.004398

 23 H s       :     0.976770  s :     0.976770
      pz      :     0.007878  p :     0.023615
      px      :     0.005941
      py      :     0.009796

 24 H s       :     0.982465  s :     0.982465
      pz      :     0.011600  p :     0.022372
      px      :     0.006045
      py      :     0.004727

 25 H s       :     0.977276  s :     0.977276
      pz      :     0.007636  p :     0.023162
      px      :     0.008856
      py      :     0.006670

 26 H s       :     0.982762  s :     0.982762
      pz      :     0.013407  p :     0.022364
      px      :     0.004130
      py      :     0.004827

 27 H s       :     0.979851  s :     0.979851
      pz      :     0.005137  p :     0.022309
      px      :     0.010109
      py      :     0.007063

 28 H s       :     0.978448  s :     0.978448
      pz      :     0.007484  p :     0.022363
      px      :     0.008833
      py      :     0.006045

 29 H s       :     0.966250  s :     0.966250
      pz      :     0.014164  p :     0.022898
      px      :     0.004128
      py      :     0.004606

 30 H s       :     0.949756  s :     0.949756
      pz      :     0.014382  p :     0.023229
      px      :     0.004532
      py      :     0.004315

 31 H s       :     0.960705  s :     0.960705
      pz      :     0.007654  p :     0.022312
      px      :     0.004739
      py      :     0.009919

 32 H s       :     0.965100  s :     0.965100
      pz      :     0.005240  p :     0.022572
      px      :     0.004811
      py      :     0.012522

 33 H s       :     0.959841  s :     0.959841
      pz      :     0.013635  p :     0.020571
      px      :     0.004586
      py      :     0.002349



                     *******************************
                     * LOEWDIN POPULATION ANALYSIS *
                     *******************************

----------------------
LOEWDIN ATOMIC CHARGES
----------------------
   0 C :   -0.018268
   1 C :   -0.025762
   2 C :   -0.007657
   3 C :   -0.181988
   4 C :   -0.028806
   5 C :   -0.028001
   6 P :    0.887871
   7 O :   -0.505080
   8 C :   -0.184532
   9 C :   -0.017655
  10 C :   -0.029384
  11 C :   -0.018122
  12 C :   -0.029275
  13 C :   -0.011169
  14 C :   -0.141326
  15 C :   -0.021479
  16 C :    0.004756
  17 C :   -0.034891
  18 C :    0.017824
  19 N :   -0.083690
  20 H :    0.031094
  21 H :    0.033071
  22 H :    0.035316
  23 H :    0.026195
  24 H :    0.030933
  25 H :    0.027700
  26 H :    0.030652
  27 H :    0.030488
  28 H :    0.032035
  29 H :    0.034891
  30 H :    0.042575
  31 H :    0.038460
  32 H :    0.037455
  33 H :    0.025767

-------------------------------
LOEWDIN REDUCED ORBITAL CHARGES
-------------------------------
  0 C s       :     2.864572  s :     2.864572
      pz      :     1.046035  p :     3.064127
      px      :     1.012184
      py      :     1.005908
      dz2     :     0.023471  d :     0.089569
      dxz     :     0.020408
      dyz     :     0.020511
      dx2y2   :     0.010718
      dxy     :     0.014461

  1 C s       :     2.863270  s :     2.863270
      pz      :     1.038280  p :     3.073454
      px      :     1.030376
      py      :     1.004798
      dz2     :     0.019312  d :     0.089038
      dxz     :     0.023657
      dyz     :     0.018098
      dx2y2   :     0.012959
      dxy     :     0.015012

  2 C s       :     2.867675  s :     2.867675
      pz      :     1.030497  p :     3.051104
      px      :     1.021120
      py      :     0.999487
      dz2     :     0.018240  d :     0.088878
      dxz     :     0.020290
      dyz     :     0.015373
      dx2y2   :     0.016460
      dxy     :     0.018515

  3 C s       :     2.913407  s :     2.913407
      pz      :     1.074812  p :     3.179940
      px      :     1.056107
      py      :     1.049020
      dz2     :     0.022704  d :     0.088642
      dxz     :     0.020656
      dyz     :     0.019816
      dx2y2   :     0.011211
      dxy     :     0.014255

  4 C s       :     2.866891  s :     2.866891
      pz      :     1.036368  p :     3.071937
      px      :     1.029646
      py      :     1.005923
      dz2     :     0.019084  d :     0.089978
      dxz     :     0.024047
      dyz     :     0.018478
      dx2y2   :     0.013577
      dxy     :     0.014792

  5 C s       :     2.863826  s :     2.863826
      pz      :     1.026784  p :     3.075257
      px      :     1.029960
      py      :     1.018513
      dz2     :     0.018545  d :     0.088918
      dxz     :     0.020377
      dyz     :     0.015476
      dx2y2   :     0.016178
      dxy     :     0.018342

  6 P s       :     4.938909  s :     4.938909
      pz      :     2.768118  p :     8.514402
      px      :     2.877617
      py      :     2.868668
      dz2     :     0.124631  d :     0.658818
      dxz     :     0.175829
      dyz     :     0.181835
      dx2y2   :     0.089602
      dxy     :     0.086921

  7 O s       :     3.667147  s :     3.667147
      pz      :     1.462696  p :     4.819977
      px      :     1.684027
      py      :     1.673254
      dz2     :     0.010363  d :     0.017956
      dxz     :     0.003775
      dyz     :     0.003713
      dx2y2   :     0.000058
      dxy     :     0.000048

  8 C s       :     2.912336  s :     2.912336
      pz      :     1.089507  p :     3.183476
      px      :     1.062181
      py      :     1.031788
      dz2     :     0.027370  d :     0.088719
      dxz     :     0.026787
      dyz     :     0.017305
      dx2y2   :     0.007141
      dxy     :     0.010116

  9 C s       :     2.866678  s :     2.866678
      pz      :     1.057018  p :     3.060934
      px      :     1.029494
      py      :     0.974422
      dz2     :     0.024453  d :     0.090043
      dxz     :     0.029367
      dyz     :     0.017250
      dx2y2   :     0.008633
      dxy     :     0.010339

 10 C s       :     2.863497  s :     2.863497
      pz      :     1.039806  p :     3.077037
      px      :     1.041896
      py      :     0.995336
      dz2     :     0.025685  d :     0.088850
      dxz     :     0.023400
      dyz     :     0.011142
      dx2y2   :     0.013468
      dxy     :     0.015154

 11 C s       :     2.864760  s :     2.864760
      pz      :     1.067430  p :     3.063715
      px      :     1.020635
      py      :     0.975650
      dz2     :     0.027921  d :     0.089647
      dxz     :     0.027678
      dyz     :     0.017694
      dx2y2   :     0.006390
      dxy     :     0.009964

 12 C s       :     2.863250  s :     2.863250
      pz      :     1.057199  p :     3.077027
      px      :     1.027814
      py      :     0.992014
      dz2     :     0.025076  d :     0.088998
      dxz     :     0.028719
      dyz     :     0.016631
      dx2y2   :     0.008205
      dxy     :     0.010367

 13 C s       :     2.868393  s :     2.868393
      pz      :     1.054448  p :     3.053855
      px      :     1.026716
      py      :     0.972692
      dz2     :     0.025017  d :     0.088920
      dxz     :     0.023114
      dyz     :     0.011050
      dx2y2   :     0.014302
      dxy     :     0.015437

 14 C s       :     2.922777  s :     2.922777
      pz      :     1.029574  p :     3.095934
      px      :     0.969877
      py      :     1.096483
      dz2     :     0.040706  d :     0.122615
      dxz     :     0.017220
      dyz     :     0.046715
      dx2y2   :     0.011355
      dxy     :     0.006618

 15 C s       :     2.871555  s :     2.871555
      pz      :     1.060774  p :     3.061060
      px      :     0.936749
      py      :     1.063537
      dz2     :     0.024030  d :     0.088865
      dxz     :     0.005028
      dyz     :     0.031690
      dx2y2   :     0.015941
      dxy     :     0.012176

 16 C s       :     2.864397  s :     2.864397
      pz      :     1.059321  p :     3.040230
      px      :     0.925059
      py      :     1.055850
      dz2     :     0.025100  d :     0.090616
      dxz     :     0.010049
      dyz     :     0.035744
      dx2y2   :     0.011735
      dxy     :     0.007989

 17 C s       :     2.867866  s :     2.867866
      pz      :     1.067666  p :     3.077481
      px      :     0.958330
      py      :     1.051485
      dz2     :     0.026767  d :     0.089543
      dxz     :     0.011321
      dyz     :     0.033702
      dx2y2   :     0.011793
      dxy     :     0.005960

 18 C s       :     2.864928  s :     2.864928
      pz      :     1.038162  p :     2.991532
      px      :     0.934097
      py      :     1.019273
      dz2     :     0.034722  d :     0.125716
      dxz     :     0.004851
      dyz     :     0.041787
      dx2y2   :     0.026184
      dxy     :     0.018172

 19 N s       :     3.244273  s :     3.244273
      pz      :     1.290508  p :     3.782645
      px      :     1.111996
      py      :     1.380141
      dz2     :     0.020123  d :     0.056772
      dxz     :     0.007399
      dyz     :     0.012842
      dx2y2   :     0.010152
      dxy     :     0.006256

 20 H s       :     0.900860  s :     0.900860
      pz      :     0.014567  p :     0.068046
      px      :     0.032933
      py      :     0.020546

 21 H s       :     0.898831  s :     0.898831
      pz      :     0.023366  p :     0.068098
      px      :     0.016928
      py      :     0.027803

 22 H s       :     0.893905  s :     0.893905
      pz      :     0.037895  p :     0.070779
      px      :     0.019383
      py      :     0.013501

 23 H s       :     0.901652  s :     0.901652
      pz      :     0.024541  p :     0.072153
      px      :     0.017952
      py      :     0.029660

 24 H s       :     0.900903  s :     0.900903
      pz      :     0.035466  p :     0.068164
      px      :     0.018447
      py      :     0.014251

 25 H s       :     0.901489  s :     0.901489
      pz      :     0.024294  p :     0.070811
      px      :     0.027557
      py      :     0.018960

 26 H s       :     0.901169  s :     0.901169
      pz      :     0.041155  p :     0.068179
      px      :     0.012706
      py      :     0.014318

 27 H s       :     0.901493  s :     0.901493
      pz      :     0.016130  p :     0.068019
      px      :     0.030848
      py      :     0.021042

 28 H s       :     0.899837  s :     0.899837
      pz      :     0.023152  p :     0.068127
      px      :     0.026971
      py      :     0.018005

 29 H s       :     0.893646  s :     0.893646
      pz      :     0.044667  p :     0.071463
      px      :     0.012876
      py      :     0.013920

[...]
      px      :     1.014039
      py      :     0.986090
      dz2     :     0.026493  d :     0.085665
      dxz     :     0.024642
      dyz     :     0.018479
      dx2y2   :     0.006296
      dxy     :     0.009755

 12 C s       :     2.872560  s :     2.872560
      pz      :     1.053490  p :     3.070716
      px      :     1.024550
      py      :     0.992676
      dz2     :     0.023993  d :     0.086016
      dxz     :     0.026430
      dyz     :     0.016963
      dx2y2   :     0.007570
      dxy     :     0.011059

 13 C s       :     2.875809  s :     2.875809
      pz      :     1.053111  p :     3.056736
      px      :     1.022861
      py      :     0.980764
      dz2     :     0.023235  d :     0.086788
      dxz     :     0.022112
      dyz     :     0.012305
      dx2y2   :     0.013614
      dxy     :     0.015524

 14 C s       :     2.923904  s :     2.923904
      pz      :     1.033271  p :     3.090529
      px      :     0.961853
      py      :     1.095405
      dz2     :     0.041483  d :     0.124286
      dxz     :     0.017533
      dyz     :     0.049009
      dx2y2   :     0.010259
      dxy     :     0.006002

 15 C s       :     2.881353  s :     2.881353
      pz      :     1.061053  p :     3.061856
      px      :     0.939623
      py      :     1.061180
      dz2     :     0.022748  d :     0.085578
      dxz     :     0.004508
      dyz     :     0.032042
      dx2y2   :     0.015242
      dxy     :     0.011037

 16 C s       :     2.875498  s :     2.875498
      pz      :     1.058428  p :     3.035441
      px      :     0.923037
      py      :     1.053976
      dz2     :     0.024704  d :     0.086845
      dxz     :     0.009382
      dyz     :     0.034147
      dx2y2   :     0.011451
      dxy     :     0.007160

 17 C s       :     2.881390  s :     2.881390
      pz      :     1.063569  p :     3.073900
      px      :     0.961896
      py      :     1.048434
      dz2     :     0.025577  d :     0.084106
      dxz     :     0.010214
      dyz     :     0.032535
      dx2y2   :     0.010692
      dxy     :     0.005088

 18 C s       :     2.873415  s :     2.873415
      pz      :     1.035753  p :     2.987023
      px      :     0.932751
      py      :     1.018518
      dz2     :     0.034313  d :     0.123901
      dxz     :     0.004281
      dyz     :     0.042023
      dx2y2   :     0.025673
      dxy     :     0.017612

 19 N s       :     3.228892  s :     3.228892
      pz      :     1.289637  p :     3.789390
      px      :     1.112427
      py      :     1.387327
      dz2     :     0.020957  d :     0.058925
      dxz     :     0.007702
      dyz     :     0.013940
      dx2y2   :     0.009974
      dxy     :     0.006351

 20 H s       :     0.900489  s :     0.900489
      pz      :     0.013188  p :     0.065781
      px      :     0.032304
      py      :     0.020289

 21 H s       :     0.899338  s :     0.899338
      pz      :     0.025321  p :     0.065883
      px      :     0.019830
      py      :     0.020732

 22 H s       :     0.892083  s :     0.892083
      pz      :     0.041315  p :     0.070531
      px      :     0.016623
      py      :     0.012593

 23 H s       :     0.899261  s :     0.899261
      pz      :     0.025581  p :     0.071120
      px      :     0.021165
      py      :     0.024374

 24 H s       :     0.900729  s :     0.900729
      pz      :     0.038325  p :     0.065881
      px      :     0.014741
      py      :     0.012815

 25 H s       :     0.899282  s :     0.899282
      pz      :     0.022295  p :     0.071187
      px      :     0.024639
      py      :     0.024254

 26 H s       :     0.900723  s :     0.900723
      pz      :     0.040133  p :     0.065881
      px      :     0.012872
      py      :     0.012876

 27 H s       :     0.900477  s :     0.900477
      pz      :     0.015259  p :     0.065783
      px      :     0.030702
      py      :     0.019823

 28 H s       :     0.899324  s :     0.899324
      pz      :     0.022193  p :     0.065883
      px      :     0.023044
      py      :     0.020646

 29 H s       :     0.892097  s :     0.892097
      pz      :     0.043888  p :     0.070511
      px      :     0.014050
      py      :     0.012573

 30 H s       :     0.883280  s :     0.883280
      pz      :     0.044430  p :     0.071268
      px      :     0.012975
      py      :     0.013863

 31 H s       :     0.893005  s :     0.893005
      pz      :     0.022778  p :     0.065823
      px      :     0.012441
      py      :     0.030604

 32 H s       :     0.893085  s :     0.893085
      pz      :     0.015965  p :     0.067020
      px      :     0.013658
      py      :     0.037396

 33 H s       :     0.907021  s :     0.907021
      pz      :     0.042837  p :     0.064379
      px      :     0.012844
      py      :     0.008699



                      *****************************
                      * MAYER POPULATION ANALYSIS *
                      *****************************

  NA   - Mulliken gross atomic population
  ZA   - Total nuclear charge
  QA   - Mulliken gross atomic charge
  VA   - Mayer's total valence
  BVA  - Mayer's bonded valence
  FA   - Mayer's free valence

  ATOM       NA         ZA         QA         VA         BVA        FA
  0 C      5.9902     6.0000     0.0098     3.8268     3.8268    -0.0000
  1 C      6.0002     6.0000    -0.0002     3.8307     3.8307    -0.0000
  2 C      6.0024     6.0000    -0.0024     3.8894     3.8894    -0.0000
  3 C      6.1205     6.0000    -0.1205     3.7709     3.7709    -0.0000
  4 C      6.0019     6.0000    -0.0019     3.8694     3.8694    -0.0000
  5 C      5.9985     6.0000     0.0015     3.8495     3.8495    -0.0000
  6 P     14.3477    15.0000     0.6523     4.6481     4.6481    -0.0000
  7 O      8.4539     8.0000    -0.4539     2.1599     2.1599    -0.0000
  8 C      6.1207     6.0000    -0.1207     3.7708     3.7708    -0.0000
  9 C      6.0026     6.0000    -0.0026     3.8691     3.8691    -0.0000
 10 C      5.9986     6.0000     0.0014     3.8496     3.8496    -0.0000
 11 C      5.9901     6.0000     0.0099     3.8268     3.8268    -0.0000
 12 C      6.0001     6.0000    -0.0001     3.8309     3.8309    -0.0000
 13 C      6.0021     6.0000    -0.0021     3.8891     3.8891    -0.0000
 14 C      6.1645     6.0000    -0.1645     3.8823     3.8823    -0.0000
 15 C      5.9740     6.0000     0.0260     3.8766     3.8766    -0.0000
 16 C      5.9590     6.0000     0.0410     3.8753     3.8753    -0.0000
 17 C      6.0173     6.0000    -0.0173     3.8438     3.8438    -0.0000
 18 C      5.9746     6.0000     0.0254     4.0041     4.0041    -0.0000
 19 N      7.0938     7.0000    -0.0938     3.1904     3.1904    -0.0000
 20 H      0.9931     1.0000     0.0069     0.9787     0.9787    -0.0000
 21 H      0.9916     1.0000     0.0084     0.9799     0.9799     0.0000
 22 H      0.9787     1.0000     0.0213     1.0178     1.0178    -0.0000
 23 H      0.9888     1.0000     0.0112     1.0212     1.0212     0.0000
 24 H      0.9968     1.0000     0.0032     0.9792     0.9792     0.0000
 25 H      0.9886     1.0000     0.0114     1.0214     1.0214    -0.0000
 26 H      0.9968     1.0000     0.0032     0.9792     0.9792    -0.0000
 27 H      0.9930     1.0000     0.0070     0.9787     0.9787     0.0000
 28 H      0.9916     1.0000     0.0084     0.9799     0.9799    -0.0000
 29 H      0.9787     1.0000     0.0213     1.0177     1.0177    -0.0000
 30 H      0.9639     1.0000     0.0361     1.0195     1.0195    -0.0000
 31 H      0.9739     1.0000     0.0261     0.9812     0.9812    -0.0000
 32 H      0.9783     1.0000     0.0217     0.9834     0.9834     0.0000
 33 H      0.9737     1.0000     0.0263     0.9815     0.9815    -0.0000

  Mayer bond orders larger than 0.100000
B(  0-C ,  1-C ) :   1.3846 B(  0-C ,  5-C ) :   1.3750 B(  0-C , 20-H ) :   0.9756 
B(  1-C ,  2-C ) :   1.3659 B(  1-C , 21-H ) :   0.9781 B(  2-C ,  3-C ) :   1.3884 
B(  2-C , 22-H ) :   0.9704 B(  3-C ,  4-C ) :   1.3641 B(  3-C ,  6-P ) :   0.8804 
B(  4-C ,  5-C ) :   1.3936 B(  4-C , 23-H ) :   0.9623 B(  5-C , 24-H ) :   0.9750 
B(  6-P ,  7-O ) :   1.8804 B(  6-P ,  8-C ) :   0.8801 B(  6-P , 14-C ) :   0.8258 
B(  8-C ,  9-C ) :   1.3644 B(  8-C , 13-C ) :   1.3882 B(  9-C , 10-C ) :   1.3934 
B(  9-C , 25-H ) :   0.9621 B( 10-C , 11-C ) :   1.3752 B( 10-C , 26-H ) :   0.9750 
B( 11-C , 12-C ) :   1.3844 B( 11-C , 27-H ) :   0.9756 B( 12-C , 13-C ) :   1.3662 
B( 12-C , 28-H ) :   0.9781 B( 13-C , 29-H ) :   0.9704 B( 14-C , 15-C ) :   1.3850 
B( 14-C , 19-N ) :   1.4546 B( 15-C , 16-C ) :   1.3832 B( 15-C , 30-H ) :   0.9554 
B( 16-C , 17-C ) :   1.4104 B( 16-C , 31-H ) :   0.9732 B( 17-C , 18-C ) :   1.3717 
B( 17-C , 32-H ) :   0.9632 B( 18-C , 19-N ) :   1.5128 B( 18-C , 33-H ) :   0.9629 


-------
TIMINGS
-------

Total SCF time: 0 days 0 hours 0 min 6 sec 

Total time                  ....       6.275 sec
Sum of individual times     ....       6.190 sec  ( 98.6%)

SCF preparation             ....       0.114 sec  (  1.8%)
Fock matrix formation       ....       5.572 sec  ( 88.8%)
  Startup                   ....       0.027 sec  (  0.5% of F)
  Split-RI-J                ....       1.903 sec  ( 34.2% of F)
  XC integration            ....       3.538 sec  ( 63.5% of F)
    Basis function eval.    ....       1.110 sec  ( 31.4% of XC)
    Density eval.           ....       0.990 sec  ( 28.0% of XC)
    XC-Functional eval.     ....       0.094 sec  (  2.7% of XC)
    XC-Potential eval.      ....       0.719 sec  ( 20.3% of XC)
Diagonalization             ....       0.000 sec  (  0.0%)
Density matrix formation    ....       0.063 sec  (  1.0%)
Total Energy calculation    ....       0.023 sec  (  0.4%)
Population analysis         ....       0.082 sec  (  1.3%)
Orbital Transformation      ....       0.038 sec  (  0.6%)
Orbital Orthonormalization  ....       0.000 sec  (  0.0%)
DIIS solution               ....       0.046 sec  (  0.7%)
SOSCF solution              ....       0.252 sec  (  4.0%)
Finished LeanSCF after   6.3 sec

Maximum memory used throughout the entire LEANSCF-calculation: 36.7 MB


-------------------------------------------------------------------------------
                          DFT DISPERSION CORRECTION                            
                                                                               
                              DFTD3 V3.1  Rev 1                                
                          USING Becke-Johnson damping                          
-------------------------------------------------------------------------------
The BP86 functional is recognized
Active option DFTDOPT                   ...         4   

molecular C6(AA) [au] = 16874.069457 


            DFT-D V3
 parameters
 s6 scaling factor         :     1.0000 
 a1 scaling factor         :     0.3946 
 s8 scaling factor         :     3.2822 
 a2 scaling factor         :     4.8516 
 ad hoc parameters k1-k3   :    16.0000     1.3333    -4.0000 

 Edisp/kcal,au: -50.953656295188  -0.081199811263 
 E6   /kcal   : -18.380930086 
 E8   /kcal   : -32.572726209 
 % E8         :  63.926180333 

-------------------------   ----------------
Dispersion correction           -0.081199811
-------------------------   ----------------


-------------------------   --------------------
FINAL SINGLE POINT ENERGY     -1127.036477900768
-------------------------   --------------------

                                *** OPTIMIZATION RUN DONE ***



           ************************************************************
           *        Program running with 6 parallel MPI-processes     *
           *              working on a common directory               *
           ************************************************************

------------------------------------------------------------------------------
                              ORCA PROPERTY CALCULATIONS
------------------------------------------------------------------------------

GBWName                                 ... data/geom_opt_PO_BP86/621893/621893.gbw
Number of atoms                         ...     34
Number of basis functions               ...    354
Max core memory                         ...   1024 MB

Electric properties:
Dipole moment                           ... YES
Quadrupole moment                       ...  NO
Static polarizability (Dipole/Dipole)   ...  NO
Static polarizability (Dipole/Quad.)    ...  NO
Static polarizability (Quad./Quad.)     ...  NO
Static polarizability (Velocity)        ...  NO

Atomic electric properties:
Dipole moment                           ...  NO
Quadrupole moment                       ...  NO
Static polarizability                   ...  NO

Choice of electric origin               ... Center of mass
Position of electric origin             ...     0.023141     0.088620     0.354677

General magnetic properties:
Magnetizability                         ...  NO

EPR properties:
g-Tensor (aka g-matrix)                 ...  NO
Zero-Field splitting spin-orbit         ...  NO
Zero-field splitting spin-spin          ...  NO
Hyperfine couplings                     ...  NO (   0 nuclei)
Quadrupole couplings                    ...  NO (   0 nuclei)
Contact density                         ...  NO (   0 nuclei)

NMR properties:
Chemical shifts                         ...  NO (   0 nuclei)
Spin-rotation constants                 ...  NO (   0 nuclei)
Spin-spin couplings                     ...  NO (   0 nuclei,    0 pairs)

Choice of magnetic origin               ... GIAO
Position of magnetic origin             ...     0.000000     0.000000     0.000000

Properties with geometric perturbations:
SCF Hessian                             ...  NO
IR spectrum                             ...  NO
VCD spectrum                            ...  NO
X-ray spectroscopy properties:
SCF XES/XAS/RIXS spectra                ...  NO


-------------
DIPOLE MOMENT
-------------

Method             : SCF
Type of density    : Electron Density
Multiplicity       :   1
Irrep              :   0
Energy             : -1126.9552780895046453 Eh
Relativity type    : 
Basis              : AO
                                X                 Y                 Z
Electronic contribution:      0.262995439       2.020650013       4.195863284
Nuclear contribution   :     -0.342680824      -1.293330409      -5.265035241
                        -----------------------------------------
Total Dipole Moment    :     -0.079685385       0.727319604      -1.069171957
                        -----------------------------------------
Magnitude (a.u.)       :      1.295558660
Magnitude (Debye)      :      3.293048410



--------------------
Rotational spectrum 
--------------------
 
Rotational constants in cm-1:             0.010654             0.010550             0.007061 
Rotational constants in MHz :           319.401810           316.277672           211.681332 

Dipole components along the rotational axes: 
x,y,z [a.u.] :    -0.761068     0.052137    -1.047153 
x,y,z [Debye]:    -1.934482     0.132522    -2.661651 

 

Dipole moment calculation done in   0.0 sec 

Maximum memory used throughout the entire PROP-calculation: 18.7 MB

--------------------------------
SUGGESTED CITATIONS FOR THIS RUN
--------------------------------

Below you find a list of papers that are relevant to this ORCA run
We neither can nor want to force you to cite these papers, but we appreciate if you do
You receive ORCA, which is the product of decades of hard work by many enthusiastic individuals, for free
The only thing we kindly ask in return is that you cite our papers,
We deeply appreciate it, if you show your appreciation for ORCA by not just citing the generic ORCA reference.

Please note that relegating all ORCA citations to the supporting information does *not* help us.
SI sections are not indexed - citations you put there will not count into any citation statistics
But we need these citations in order to attract the funding resources that allow us to do what we are doing

Therefore, if you are a happy ORCA user, please consider citing a few of the papers listed below in the main body of your paper

In addition to the list printed below, the program has created the file data/geom_opt_PO_BP86/621893/621893.bibtex that contains the list in bibtex format
You can import this file easily into all common literature databanks and citation aid programs


List of essential papers. We consider these as the minimum necessary citations

  1. Neese,F.
     Software update: the ORCA program system, version 5.0
     WIRES Comput. Molec. Sci., 2022 12(1)e1606
     doi.org/10.1002/wcms.1606

List of papers to cite with high priority. The work reported in these papers was absolutely
necessary for this run to complete.
Our perspective: the developers of density functionals and basis sets usually get cited in chemistry papers
Good! But without the algorithms to do something with them, the functionals or basis sets would not do anything.
Hence, in our opinion, the algorithm design and method developments papers are equally worthy of getting cited

  1. Neese,F.
     An improvement of the resolution of the identity approximation for the formation of the Coulomb matrix
     J. Comp. Chem., 2003 24(14)1740-1747
     doi.org/10.1002/jcc.10318
  2. Neese,F.
     The SHARK Integral Generation and Digestion System
     J. Comp. Chem., 2022  1-16
     doi.org/10.1002/jcc.26942
  3. Grimme,S.; Antony,J.; Ehrlich,S.; Krieg,H.
     A consistent and accurate ab initio parametrization of density functional dispersion correction (DFT-D) for the 94 elements H-Pu
     J. Chem. Phys., 2010 132 154104-XXXX
     doi.org/10.1063/1.3382344
  4. Grimme,S.; Ehrlich,S.; Goerigk,L.
     Effect of the damping function in dispersion corrected density functional theory
     J. Comput. Chem., 2011 32(7)1456-1465
     doi.org/10.1002/jcc.21759

List of suggested additional citations. These are papers that are important in the 'surrounding' of 
of this run, or papers that preceded the highly important papers. If you like your results we are grateful for a citation.

  1. Neese,F.
     The ORCA program system
     WIRES Comput. Molec. Sci., 2012 2(1)73-78
     doi.org/10.1002/wcms.81
  2. Neese,F.
     Software update: the ORCA program system, version 4.0
     WIRES Comput. Molec. Sci., 2018 8(1)1-6
     doi.org/10.1002/wcms.1327
  3. Neese,F.; Wennmohs,F.; Becker,U.; Riplinger,C.
     The ORCA quantum chemistry program package
     J. Chem. Phys., 2020 152 Art. No. L224108
     doi.org/10.1063/5.0004608

List of optional additional citations

  1. Neese,F.
     Approximate second-order SCF convergence for spin unrestricted wavefunctions
     Chem. Phys. Lett., 2000 325(1-3)93-98
     doi.org/10.1016/s0009-2614(00)00662-x

Timings for individual modules:

Sum of individual times          ...      176.829 sec (=   2.947 min)
Startup calculation              ...       14.395 sec (=   0.240 min)   8.1 %
SCF iterations                   ...      108.243 sec (=   1.804 min)  61.2 %
Property calculations            ...        0.176 sec (=   0.003 min)   0.1 %
SCF Gradient evaluation          ...       53.845 sec (=   0.897 min)  30.5 %
Geometry relaxation              ...        0.170 sec (=   0.003 min)   0.1 %
                             ****ORCA TERMINATED NORMALLY****
TOTAL RUN TIME: 0 days 0 hours 2 minutes 58 seconds 934 msec
