
                                 *****************
                                 * O   R   C   A *
                                 *****************

                                            #,                                       
                                            ###                                      
                                            ####                                     
                                            #####                                    
                                            ######                                   
                                           ########,                                 
                                     ,,################,,,,,                         
                               ,,#################################,,                 
                          ,,##########################################,,             
                       ,#########################################, ''#####,          
                    ,#############################################,,   '####,        
                  ,##################################################,,,,####,       
                ,###########''''           ''''###############################       
              ,#####''   ,,,,##########,,,,          '''####'''          '####       
            ,##' ,,,,###########################,,,                        '##       
           ' ,,###''''                  '''############,,,                           
         ,,##''                                '''############,,,,        ,,,,,,###''
      ,#''                                            '''#######################'''  
     '                                                          ''''####''''         
             ,#######,   #######,   ,#######,      ##                                
            ,#'     '#,  ##    ##  ,#'     '#,    #''#        ,####,   ,####,        
            ##       ##  ##   ,#'  ##            #'  '#       #'       #'  '#        
            ##       ##  #######   ##           ,######,      #####,   #    #        
            '#,     ,#'  ##    ##  '#,     ,#' ,#      #,     #,   #   #,  ,#        
             '#######'   ##     ##  '#######'  #'      '#     '####' # '####'        



                #########################################################
                #                        -***-                          #
                #          Department of theory and spectroscopy        #
                #                                                       #
                #                      Frank Neese                      #
                #                                                       #
                #     Directorship, Architecture, Infrastructure        #
                #                    SHARK, DRIVERS                     #
                #        Core code/Algorithms in most modules           #
                #                                                       #
                #        Max Planck Institute fuer Kohlenforschung      #
                #                Kaiser Wilhelm Platz 1                 #
                #                 D-45470 Muelheim/Ruhr                 #
                #                      Germany                          #
                #                                                       #
                #                  All rights reserved                  #
                #                        -***-                          #
                #########################################################


                         Program Version 6.0.0  -   RELEASE   -


 With contributions from (in alphabetic order):
   Daniel Aravena         : Magnetic Suceptibility
   Michael Atanasov       : Ab Initio Ligand Field Theory (pilot matlab implementation)
   Alexander A. Auer      : GIAO ZORA, VPT2 properties, NMR spectrum
   Ute Becker             : All parallelization in ORCA, NUMFREQ, NUMCALC
   Giovanni Bistoni       : ED, misc. LED, open-shell LED, HFLD
   Martin Brehm           : Molecular dynamics
   Dmytro Bykov           : pre 5.0 version of the SCF Hessian
   Marcos Casanova-Páez   : Triplet and SCS-CIS(D). UHF-(DLPNO)-IP/EA/STEOM-CCSD. UHF-CVS-IP/STEOM-CCSD
   Vijay G. Chilkuri      : MRCI spin determinant printing, contributions to CSF-ICE
   Pauline Colinet        : FMM embedding
   Dipayan Datta          : RHF DLPNO-CCSD density
   Achintya Kumar Dutta   : EOM-CC, STEOM-CC
   Nicolas Foglia         : Exact transition moments, OPA infrastructure, MCD improvements
   Dmitry Ganyushin       : Spin-Orbit,Spin-Spin,Magnetic field MRCI
   Miquel Garcia          : C-PCM and meta-GGA Hessian, CCSD/C-PCM, Gaussian charge scheme
   Tiago L. C. Gouveia    : GS-ROHF, GS-ROCIS
   Yang Guo               : DLPNO-NEVPT2, F12-NEVPT2, CIM, IAO-localization
   Andreas Hansen         : Spin unrestricted coupled pair/coupled cluster methods
   Ingolf Harden          : AUTO-CI MPn and infrastructure 
   Benjamin Helmich-Paris : MC-RPA, TRAH-(SCF,CASSCF), AVAS, COSX integrals, SCF dyn. polar.
   Lee Huntington         : MR-EOM, pCC
   Robert Izsak           : Overlap fitted RIJCOSX, COSX-SCS-MP3, EOM
   Riya Kayal             : Wick's Theorem for AUTO-CI, AUTO-CI UHF-CCSDT
   Emily Kempfer          : AUTO-CI, RHF CISDT and CCSDT
   Christian Kollmar      : KDIIS, OOCD, Brueckner-CCSD(T), CCSD density, CASPT2, CASPT2-K, improved NEVPT2
   Axel Koslowski         : Symmetry handling
   Simone Kossmann        : Meta GGA functionals, TD-DFT gradient, OOMP2, (MP2 Hessian; deprecated post 5.0)
   Lucas Lang             : DCDCAS
   Marvin Lechner         : AUTO-CI (C++ implementation), FIC-MRCC
   Spencer Leger          : CASSCF response
   Dagmar Lenk            : GEPOL surface, SMD, ORCA-2-JSON
   Dimitrios Liakos       : Extrapolation schemes; Compound Job, initial MDCI parallelization
   Dimitrios Manganas     : Further ROCIS development; embedding schemes. LFT, Crystal Embedding
   Dimitrios Pantazis     : SARC Basis sets
   Anastasios Papadopoulos: AUTO-CI, single reference methods and gradients
   Taras Petrenko         : pre 6.0 DFT Hessian and TD-DFT gradient, (ASA, deprecated), ECA, 1-Electron XAS/XES, NRVS
   Peter Pinski           : DLPNO-MP2, DLPNO-MP2 Gradient
   Christoph Reimann      : Effective Core Potentials
   Marius Retegan         : Local ZFS, SOC
   Christoph Riplinger    : Optimizer, TS searches, QM/MM, DLPNO-CCSD(T), (RO)-DLPNO pert. Triples
   Michael Roemelt        : Original ROCIS implementation
   Masaaki Saitow         : Open-shell DLPNO-CCSD energy and density
   Barbara Sandhoefer     : DKH picture change effects
   Kantharuban Sivalingam : CASSCF convergence/infrastructure, NEVPT2 and variants, FIC-MRCI
   Bernardo de Souza      : ESD, SOC TD-DFT
   Georgi Stoychev        : AutoAux, RI-MP2 NMR, DLPNO-MP2 response, X2C
   Van Anh Tran           : RI-MP2 g-tensors
   Willem Van den Heuvel  : Paramagnetic NMR
   Zikuan Wang            : NOTCH, Electric field optimization 
   Frank Wennmohs         : Technical directorship and infrastructure
   Hang Xu                : AUTO-CI-Response properties 


 We gratefully acknowledge several colleagues who have allowed us to
 interface, adapt or use parts of their codes:
   Stefan Grimme, W. Hujo, H. Kruse, P. Pracht,  : VdW corrections, initial TS optimization,
                  C. Bannwarth, S. Ehlert,         DFT functionals, gCP, sTDA/sTD-DF
                  L. Wittmann, M. Mueller
   Ed Valeev, F. Pavosevic, A. Kumar             : LibInt (2-el integral package), F12 methods
   Garnet Chan, S. Sharma, J. Yang, R. Olivares  : DMRG
   Ulf Ekstrom                                   : XCFun DFT Library
   Mihaly Kallay                                 : mrcc  (arbitrary order and MRCC methods)
   Frank Weinhold                                : gennbo (NPA and NBO analysis)
   Simon Mueller                                 : openCOSMO-RS
   Christopher J. Cramer and Donald G. Truhlar   : smd solvation model
   Lars Goerigk                                  : TD-DFT with DH, B97 family of functionals
   V. Asgeirsson, H. Jonsson                     : NEB implementation
   FAccTs GmbH                                   : IRC, NEB, NEB-TS, DLPNO-Multilevel, CI-OPT
                                                   MM, QMMM, 2- and 3-layer-ONIOM, Crystal-QMMM,
                                                   LR-CPCM, SF, NACMEs, symmetry and pop. for TD-DFT,
                                                   nearIR, NL-DFT gradient (VV10), updates on ESD,
                                                   ML-optimized integration grids, MBIS, APM,
                                                   GOAT, DOCKER, SOLVATOR, interface openCOSMO-RS
   S Lehtola, MJT Oliveira, MAL Marques          : LibXC Library
   Liviu Ungur et al                             : ANISO software


 Your calculation uses the libint2 library for the computation of 2-el integrals
 For citations please refer to: http://libint.valeyev.net

 Your ORCA version has been built with support for libXC version: 6.2.2
 For citations please refer to: https://libxc.gitlab.io

 This ORCA versions uses:
   CBLAS   interface :  Fast vector & matrix operations
   LAPACKE interface :  Fast linear algebra routines
   Shared memory     :  Shared parallel matrices


Your calculation utilizes the atom-pairwise dispersion correction
with the zero-damping scheme (D30)


XCFun DFT library Copyright 2009-2010 Ulf Ekstrom and contributors.
See http://admol.org/xcfun for more information.
This is free software; see the source code for copying conditions.
There is ABSOLUTELY NO WARRANTY; not even for MERCHANTABILITY or FITNESS FOR A PARTICULAR PURPOSE.
For details see the documentation.
Scientific users of this library should cite U. Ekstrom, L. Visscher, R. Bast, A. J. Thorvaldsen and K. Ruud;
J.Chem.Theor.Comp. 2010, DOI: 10.1021/ct100117s
XCFun Version 0.99 

Warning: RI is on but no J-basis has been assigned. Assigning Def2/J (nothing to worry about!)
================================================================================

----- Orbital basis set information -----
Your calculation utilizes the basis: def2-TZVP
   F. Weigend and R. Ahlrichs, Phys. Chem. Chem. Phys. 7, 3297 (2005).

----- AuxJ basis set information -----
Your calculation utilizes the auxiliary basis: def2/J
   F. Weigend, Phys. Chem. Chem. Phys. 8, 1057 (2006).

================================================================================
                                        WARNINGS
                       Please study these warnings very carefully!
================================================================================

WARNING: Functional chosen is sensitive to the integration grid.
         DEFGRID3 seems to be a minimum grid for robust results!

================================================================================
                                       INPUT FILE
================================================================================
NAME = data/single_point_P_M06-2x/69773/69773.inp
|  1> ! RIJCOSX M062X def2-TZVP D3ZERO NormalSCF
|  2> %pal
|  3> nprocs 6
|  4> end
|  5> 
|  6> * xyz 0 1
|  7>   C          -3.20610611001572     -2.78987456411636      0.19762395398464
|  8>   C          -2.53340432875065     -3.01789136208149     -1.01569844311949
|  9>   C          -1.61379411819540     -2.07406148334933     -1.49727906260347
| 10>   C          -1.33821977174385     -0.89956490304853     -0.76187468865948
| 11>   C          -2.01874842499897     -0.67717519760631      0.45348995229503
| 12>   C          -2.94952669707533     -1.61700958686004      0.92692995093325
| 13>   P          -0.08335917918561      0.26340579624103     -1.47070851110105
| 14>   C          -0.28611154100228      1.72726196163927     -0.35447141155893
| 15>   C          -1.28794902343054      2.66138571101514     -0.70081320622098
| 16>   C          -1.52379294275145      3.78617162794890      0.10378899707979
| 17>   C          -0.74636403200666      4.00372171433485      1.25485888505453
| 18>   C           0.26201419572023      3.08788741415477      1.59806111437288
| 19>   C           0.49036268300277      1.95341125699821      0.80143433218230
| 20>   C           1.48073012398729     -0.46967295906127     -0.80342825663914
| 21>   C           2.69944650169162      0.05343109242765     -1.28993743078576
| 22>   C           3.93174609533931     -0.42851303278273     -0.82681237948128
| 23>   C           3.94496314630451     -1.46467645553499      0.12283696029198
| 24>   C           2.74854138312000     -2.01375572322410      0.61124118441368
| 25>   C           1.52264006467394     -1.50997769060056      0.14780192077161
| 26>   Br          5.61580628115022     -2.13971515453783      0.75171712528599
| 27>   H          -3.93451609797974     -3.52553690325023      0.57180176818229
| 28>   H          -2.73347945121375     -3.93219791416470     -1.59550570578233
| 29>   H          -1.09680967535308     -2.24860549654944     -2.45499862022030
| 30>   H          -1.81506465676345      0.23518064047773      1.03384766577988
| 31>   H          -3.47527061350547     -1.43193812682340      1.87658105834343
| 32>   H          -1.88955610957352      2.49915331796463     -1.60997900267459
| 33>   H          -2.31229262408536      4.50250991491597     -0.17420716931537
| 34>   H          -0.92411949783295      4.89077272576570      1.88200163867797
| 35>   H           0.87553068572500      3.25386918534294      2.49722105185728
| 36>   H           1.27518042274517      1.23500826696713      1.08183553600932
| 37>   H           2.68525412391132      0.85746057623187     -2.04360033173389
| 38>   H           4.87611082992898     -0.01210145524969     -1.20508652164395
| 39>   H           2.77492793470325     -2.82519878815105      1.35254473657522
| 40>   H           0.58522942346020     -1.93316640543374      0.53878190944892
| 41> **                         ****END OF INPUT****
================================================================================

                       ****************************
                       * Single Point Calculation *
                       ****************************

---------------------------------
CARTESIAN COORDINATES (ANGSTROEM)
---------------------------------
  C     -3.206106   -2.789875    0.197624
  C     -2.533404   -3.017891   -1.015698
  C     -1.613794   -2.074061   -1.497279
  C     -1.338220   -0.899565   -0.761875
  C     -2.018748   -0.677175    0.453490
  C     -2.949527   -1.617010    0.926930
  P     -0.083359    0.263406   -1.470709
  C     -0.286112    1.727262   -0.354471
  C     -1.287949    2.661386   -0.700813
  C     -1.523793    3.786172    0.103789
  C     -0.746364    4.003722    1.254859
  C      0.262014    3.087887    1.598061
  C      0.490363    1.953411    0.801434
  C      1.480730   -0.469673   -0.803428
  C      2.699447    0.053431   -1.289937
  C      3.931746   -0.428513   -0.826812
  C      3.944963   -1.464676    0.122837
  C      2.748541   -2.013756    0.611241
  C      1.522640   -1.509978    0.147802
  Br     5.615806   -2.139715    0.751717
  H     -3.934516   -3.525537    0.571802
  H     -2.733479   -3.932198   -1.595506
  H     -1.096810   -2.248605   -2.454999
  H     -1.815065    0.235181    1.033848
  H     -3.475271   -1.431938    1.876581
  H     -1.889556    2.499153   -1.609979
  H     -2.312293    4.502510   -0.174207
  H     -0.924119    4.890773    1.882002
  H      0.875531    3.253869    2.497221
  H      1.275180    1.235008    1.081836
  H      2.685254    0.857461   -2.043600
  H      4.876111   -0.012101   -1.205087
  H      2.774928   -2.825199    1.352545
  H      0.585229   -1.933166    0.538782

----------------------------
CARTESIAN COORDINATES (A.U.)
----------------------------
  NO LB      ZA    FRAG     MASS         X           Y           Z
   0 C     6.0000    0    12.011   -6.058663   -5.272099    0.373455
   1 C     6.0000    0    12.011   -4.787440   -5.702988   -1.919392
   2 C     6.0000    0    12.011   -3.049629   -3.919408   -2.829447
   3 C     6.0000    0    12.011   -2.528869   -1.699931   -1.439735
   4 C     6.0000    0    12.011   -3.814882   -1.279676    0.856972
   5 C     6.0000    0    12.011   -5.573798   -3.055705    1.751644
   6 P    15.0000    0    30.974   -0.157526    0.497765   -2.779236
   7 C     6.0000    0    12.011   -0.540672    3.264052   -0.669854
   8 C     6.0000    0    12.011   -2.433871    5.029290   -1.324345
   9 C     6.0000    0    12.011   -2.879551    7.154827    0.196133
  10 C     6.0000    0    12.011   -1.410424    7.565938    2.371340
  11 C     6.0000    0    12.011    0.495135    5.835262    3.019898
  12 C     6.0000    0    12.011    0.926651    3.691412    1.514491
  13 C     6.0000    0    12.011    2.798174   -0.887553   -1.518259
  14 C     6.0000    0    12.011    5.101215    0.100970   -2.437628
  15 C     6.0000    0    12.011    7.429923   -0.809772   -1.562449
  16 C     6.0000    0    12.011    7.454900   -2.767837    0.232128
  17 C     6.0000    0    12.011    5.193990   -3.805447    1.155078
  18 C     6.0000    0    12.011    2.877373   -2.853444    0.279305
  19 Br   35.0000    0    79.900   10.612336   -4.043476    1.420539
  20 H     1.0000    0     1.008   -7.435158   -6.662299    1.080549
  21 H     1.0000    0     1.008   -5.165528   -7.430777   -3.015069
  22 H     1.0000    0     1.008   -2.072670   -4.249249   -4.639275
  23 H     1.0000    0     1.008   -3.429975    0.444427    1.953689
  24 H     1.0000    0     1.008   -6.567310   -2.705971    3.546224
  25 H     1.0000    0     1.008   -3.570744    4.722715   -3.042419
  26 H     1.0000    0     1.008   -4.369600    8.508511   -0.329204
  27 H     1.0000    0     1.008   -1.746333    9.242221    3.556468
  28 H     1.0000    0     1.008    1.654513    6.148922    4.719064
  29 H     1.0000    0     1.008    2.409742    2.333827    2.044373
  30 H     1.0000    0     1.008    5.074395    1.620366   -3.861845
  31 H     1.0000    0     1.008    9.214514   -0.022868   -2.277283
  32 H     1.0000    0     1.008    5.243854   -5.338852    2.555939
  33 H     1.0000    0     1.008    1.105923   -3.653155    1.018150

--------------------------------
INTERNAL COORDINATES (ANGSTROEM)
--------------------------------
 C      0   0   0     0.000000000000     0.00000000     0.00000000
 C      1   0   0     1.405941174440     0.00000000     0.00000000
 C      2   1   0     1.403003090662   120.04888035     0.00000000
 C      3   2   1     1.412870493278   120.55756902     1.01974296
 C      4   3   2     1.410562880367   119.04097821   358.89479183
 C      1   2   3     1.404753532547   119.73953448   359.74487608
 P      4   3   2     1.851923686872   117.06278534   178.80535863
 C      7   4   3     1.852017455531   101.03971467   170.60170980
 C      8   7   4     1.412875847014   116.90185387   273.80577428
 C      9   8   7     1.402907844005   120.57684872   178.85611892
 C     10   9   8     1.405946527557   120.04334806     1.01540412
 C     11  10   9     1.404765776117   119.74037809   359.72020099
 C     12  11  10     1.404917582246   120.30417074   359.60386052
 C      7   4   3     1.851767465901   100.70784933   274.01827158
 C     14   7   4     1.412656587603   117.25761739   171.47888407
 C     15  14   7     1.401897728607   121.14932786   179.10914774
 C     16  15  14     1.405575753070   119.00539098     0.99541603
 C     17  16  15     1.404083958945   121.01639133   359.78257950
 C     18  17  16     1.404066344518   119.26512819   359.54120270
 Br    17  16  15     1.908634142086   119.44382884   179.52131836
 H      1   2   3     1.100812983401   120.10343887   179.45057038
 H      2   1   3     1.100982737216   120.14632563   180.59310611
 H      3   2   1     1.102254633797   119.94312461   180.76874282
 H      5   4   3     1.100316012939   119.72754851   180.18242249
 H      6   1   2     1.101133659820   120.05751477   179.84824970
 H      9   8   7     1.102194574879   119.46686259   359.07839546
 H     10   9   8     1.100978727028   119.81717886   180.41644639
 H     11  10   9     1.100801769591   120.12133757   179.43342615
 H     12  11  10     1.101108997807   120.07866501   179.87758065
 H     13  12  11     1.100302947287   119.91146448   180.61243184
 H     15  14   7     1.102121863806   119.63939823   359.37248785
 H     16  15  14     1.099233678737   120.74807656   180.40424194
 H     18  17  16     1.099393948578   120.18069703   179.88506086
 H     19  18  17     1.100314841384   119.24600368   180.64888432

---------------------------
INTERNAL COORDINATES (A.U.)
---------------------------
 C      0   0   0     0.000000000000     0.00000000     0.00000000
 C      1   0   0     2.656843780095     0.00000000     0.00000000
 C      2   1   0     2.651291606397   120.04888035     0.00000000
 C      3   2   1     2.669938294994   120.55756902     1.01974296
 C      4   3   2     2.665577538570   119.04097821   358.89479183
 C      1   2   3     2.654599462173   119.73953448   359.74487608
 P      4   3   2     3.499628589110   117.06278534   178.80535863
 C      7   4   3     3.499805786195   101.03971467   170.60170980
 C      8   7   4     2.669948412089   116.90185387   273.80577428
 C      9   8   7     2.651111616299   120.57684872   178.85611892
 C     10   9   8     2.656853896021   120.04334806     1.01540412
 C     11  10   9     2.654622599166   119.74037809   359.72020099
 C     12  11  10     2.654909471176   120.30417074   359.60386052
 C      7   4   3     3.499333374259   100.70784933   274.01827158
 C     14   7   4     2.669534071849   117.25761739   171.47888407
 C     15  14   7     2.649202774834   121.14932786   179.10914774
 C     16  15  14     2.656153233782   119.00539098     0.99541603
 C     17  16  15     2.653334151439   121.01639133   359.78257950
 C     18  17  16     2.653300864994   119.26512819   359.54120270
 Br    17  16  15     3.606795818394   119.44382884   179.52131836
 H      1   2   3     2.080235063292   120.10343887   179.45057038
 H      2   1   3     2.080555851513   120.14632563   180.59310611
 H      3   2   1     2.082959387722   119.94312461   180.76874282
 H      5   4   3     2.079295925223   119.72754851   180.18242249
 H      6   1   2     2.080841053902   120.05751477   179.84824970
 H      9   8   7     2.082845892816   119.46686259   359.07839546
 H     10   9   8     2.080548273357   119.81717886   180.41644639
 H     11  10   9     2.080213872262   120.12133757   179.43342615
 H     12  11  10     2.080794449452   120.07866501   179.87758065
 H     13  12  11     2.079271234718   119.91146448   180.61243184
 H     15  14   7     2.082708488800   119.63939823   359.37248785
 H     16  15  14     2.077250609995   120.74807656   180.40424194
 H     18  17  16     2.077553476103   120.18069703   179.88506086
 H     19  18  17     2.079293711304   119.24600368   180.64888432

---------------------
BASIS SET INFORMATION
---------------------
There are 4 groups of distinct atoms

 Group   1 Type C   : 11s6p2d1f contracted to 5s3p2d1f pattern {62111/411/11/1}
 Group   2 Type P   : 14s9p3d1f contracted to 5s5p2d1f pattern {73211/51111/21/1}
 Group   3 Type Br  : 17s13p8d1f contracted to 6s5p4d1f pattern {842111/64111/5111/1}
 Group   4 Type H   : 5s1p contracted to 3s1p pattern {311/1}

Atom   0C    basis set group =>   1
Atom   1C    basis set group =>   1
Atom   2C    basis set group =>   1
Atom   3C    basis set group =>   1
Atom   4C    basis set group =>   1
Atom   5C    basis set group =>   1
Atom   6P    basis set group =>   2
Atom   7C    basis set group =>   1
Atom   8C    basis set group =>   1
Atom   9C    basis set group =>   1
Atom  10C    basis set group =>   1
Atom  11C    basis set group =>   1
Atom  12C    basis set group =>   1
Atom  13C    basis set group =>   1
Atom  14C    basis set group =>   1
Atom  15C    basis set group =>   1
Atom  16C    basis set group =>   1
Atom  17C    basis set group =>   1
Atom  18C    basis set group =>   1
Atom  19Br   basis set group =>   3
Atom  20H    basis set group =>   4
Atom  21H    basis set group =>   4
Atom  22H    basis set group =>   4
Atom  23H    basis set group =>   4
Atom  24H    basis set group =>   4
Atom  25H    basis set group =>   4
Atom  26H    basis set group =>   4
Atom  27H    basis set group =>   4
Atom  28H    basis set group =>   4
Atom  29H    basis set group =>   4
Atom  30H    basis set group =>   4
Atom  31H    basis set group =>   4
Atom  32H    basis set group =>   4
Atom  33H    basis set group =>   4
---------------------------------
AUXILIARY/J BASIS SET INFORMATION
---------------------------------
There are 4 groups of distinct atoms

 Group   1 Type C   : 12s5p4d2f1g contracted to 6s4p3d1f1g pattern {711111/2111/211/2/1}
 Group   2 Type P   : 14s5p5d2f1g contracted to 8s4p3d1f1g pattern {71111111/2111/311/2/1}
 Group   3 Type Br  : 19s5p5d3f1g contracted to 8s4p3d2f1g pattern {121111111/2111/311/21/1}
 Group   4 Type H   : 5s2p1d contracted to 3s1p1d pattern {311/2/1}

Atom   0C    basis set group =>   1
Atom   1C    basis set group =>   1
Atom   2C    basis set group =>   1
Atom   3C    basis set group =>   1
Atom   4C    basis set group =>   1
Atom   5C    basis set group =>   1
Atom   6P    basis set group =>   2
Atom   7C    basis set group =>   1
Atom   8C    basis set group =>   1
Atom   9C    basis set group =>   1
Atom  10C    basis set group =>   1
Atom  11C    basis set group =>   1
Atom  12C    basis set group =>   1
Atom  13C    basis set group =>   1
Atom  14C    basis set group =>   1
Atom  15C    basis set group =>   1
Atom  16C    basis set group =>   1
Atom  17C    basis set group =>   1
Atom  18C    basis set group =>   1
Atom  19Br   basis set group =>   3
Atom  20H    basis set group =>   4
Atom  21H    basis set group =>   4
Atom  22H    basis set group =>   4
Atom  23H    basis set group =>   4
Atom  24H    basis set group =>   4
Atom  25H    basis set group =>   4
Atom  26H    basis set group =>   4
Atom  27H    basis set group =>   4
Atom  28H    basis set group =>   4
Atom  29H    basis set group =>   4
Atom  30H    basis set group =>   4
Atom  31H    basis set group =>   4
Atom  32H    basis set group =>   4
Atom  33H    basis set group =>   4


           ************************************************************
           *        Program running with 6 parallel MPI-processes     *
           *              working on a common directory               *
           ************************************************************
------------------------------------------------------------------------------
                             ORCA STARTUP CALCULATIONS
                           -- RI-GTO INTEGRALS CHOSEN --
------------------------------------------------------------------------------
------------------------------------------------------------------------------
                   ___                                                        
                  /   \      - P O W E R E D   B Y -                         
                 /     \                                                     
                 |  |  |   _    _      __       _____    __    __             
                 |  |  |  | |  | |    /  \     |  _  \  |  |  /  |          
                  \  \/   | |  | |   /    \    | | | |  |  | /  /          
                 / \  \   | |__| |  /  /\  \   | |_| |  |  |/  /          
                |  |  |   |  __  | /  /__\  \  |    /   |      \           
                |  |  |   | |  | | |   __   |  |    \   |  |\   \          
                \     /   | |  | | |  |  |  |  | |\  \  |  | \   \       
                 \___/    |_|  |_| |__|  |__|  |_| \__\ |__|  \__/        
                                                                              
                      - O R C A' S   B I G   F R I E N D -                    
                                      &                                       
                       - I N T E G R A L  F E E D E R -                       
                                                                              
 v1 FN, 2020, v2 2021, v3 2022-2024                                           
------------------------------------------------------------------------------


----------------------
SHARK INTEGRAL PACKAGE
----------------------

Number of atoms                             ...     34
Number of basis functions                   ...    727
Number of shells                            ...    283
Maximum angular momentum                    ...      3
Integral batch strategy                     ... SHARK/LIBINT Hybrid
RI-J (if used) integral strategy            ... SPLIT-RIJ (Revised 2003 algorithm where possible)
Printlevel                                  ...      1
Contraction scheme used                     ... SEGMENTED contraction
Prescreening option                         ... SCHWARTZ
   Thresh                                   ... 1.000e-10
   Tcut                                     ... 1.000e-11
   Tpresel                                  ... 1.000e-11 
Coulomb Range Separation                    ... NOT USED
Exchange Range Separation                   ... NOT USED
Multipole approximations                    ... NOT USED
Finite Nucleus Model                        ... NOT USED
CABS basis                                  ... NOT available
Auxiliary Coulomb fitting basis             ... AVAILABLE
   # of basis functions in Aux-J            ...   1145
   # of shells in Aux-J                     ...    375
   Maximum angular momentum in Aux-J        ...      4
Auxiliary J/K fitting basis                 ... NOT available
Auxiliary Correlation fitting basis         ... NOT available
Auxiliary 'external' fitting basis          ... NOT available

Checking pre-screening integrals            ... done (  0.0 sec) Dimension = 283
Check shell pair data                       ... done (  0.0 sec)
Shell pair information
Shell pair cut-off parameter TPreSel        ...   1.0e-11
Total number of shell pairs                 ...     40186
Shell pairs after pre-screening             ...     28713
Total number of primitive shell pairs       ...    130845
Primitive shell pairs kept                  ...     60323
          la=0 lb=0:   7037 shell pairs
          la=1 lb=0:   8282 shell pairs
          la=1 lb=1:   2455 shell pairs
          la=2 lb=0:   4125 shell pairs
          la=2 lb=1:   2464 shell pairs
          la=2 lb=2:    638 shell pairs
          la=3 lb=0:   1894 shell pairs
          la=3 lb=1:   1117 shell pairs
          la=3 lb=2:    564 shell pairs
          la=3 lb=3:    137 shell pairs

Calculating one electron integrals          ... done (  0.1 sec)
Calculating RI/J V-Matrix + Cholesky decomp.... done (  0.1 sec)
Calculating Nuclear repulsion               ... done (  0.0 sec) ENN=   1852.467885946849 Eh

Diagonalization of the overlap matrix:
Smallest eigenvalue                        ... 7.363e-06
Time for diagonalization                   ...    0.135 sec
Threshold for overlap eigenvalues          ... 1.000e-07
Number of eigenvalues below threshold      ... 0
Time for construction of square roots      ...    0.048 sec
Total time needed                          ...    0.190 sec

-------------------
DFT GRID GENERATION
-------------------

General Integration Accuracy     IntAcc      ... 4.388
Radial Grid Type                 RadialGrid  ... OptM3 with GC (2021)
Angular Grid (max. ang.)         AngularGrid ... 4 (Lebedev-302)
Angular grid pruning method      GridPruning ... 4 (adaptive)
Weight generation scheme         WeightScheme... mBecke (2022)
Basis function cutoff            BFCut       ... 1.0000e-10
Integration weight cutoff        WCut        ... 1.0000e-14
Partially contracted basis set               ... off
Rotationally invariant grid construction     ... off
Angular grids for H and He will be reduced by one unit
Core-polarized basis detected: some atoms will have their core
                               angular grid increased.

Total number of grid points                  ...   170768
Total number of batches                      ...     2687
Average number of points per batch           ...       63
Average number of grid points per atom       ...     5023

--------------------
COSX GRID GENERATION
--------------------

GRIDX 1
-------
General Integration Accuracy     IntAcc      ... 3.816
Radial Grid Type                 RadialGrid  ... OptM3 with GC (2021)
Angular Grid (max. ang.)         AngularGrid ... 1 (Lebedev-50)
Angular grid pruning method      GridPruning ... 4 (adaptive)
Weight generation scheme         WeightScheme... mBecke (2022)
Basis function cutoff            BFCut       ... 1.0000e-10
Integration weight cutoff        WCut        ... 1.0000e-14
Partially contracted basis set               ... on
Rotationally invariant grid construction     ... off
Angular grids for H and He will be reduced by one unit
Core-polarized basis detected: some atoms will have their core
                               angular grid increased.

Total number of grid points                  ...    27359
Total number of batches                      ...      226
Average number of points per batch           ...      121
Average number of grid points per atom       ...      805
UseSFitting                                  ... on

GRIDX 2
-------
General Integration Accuracy     IntAcc      ... 4.020
Radial Grid Type                 RadialGrid  ... OptM3 with GC (2021)
Angular Grid (max. ang.)         AngularGrid ... 2 (Lebedev-110)
Angular grid pruning method      GridPruning ... 4 (adaptive)
Weight generation scheme         WeightScheme... mBecke (2022)
Basis function cutoff            BFCut       ... 1.0000e-10
Integration weight cutoff        WCut        ... 1.0000e-14
Partially contracted basis set               ... on
Rotationally invariant grid construction     ... off
Angular grids for H and He will be reduced by one unit
Core-polarized basis detected: some atoms will have their core
                               angular grid increased.

Total number of grid points                  ...    50108
Total number of batches                      ...      409
Average number of points per batch           ...      122
Average number of grid points per atom       ...     1474
UseSFitting                                  ... on

GRIDX 3
-------
General Integration Accuracy     IntAcc      ... 4.338
Radial Grid Type                 RadialGrid  ... OptM3 with GC (2021)
Angular Grid (max. ang.)         AngularGrid ... 3 (Lebedev-194)
Angular grid pruning method      GridPruning ... 4 (adaptive)
Weight generation scheme         WeightScheme... mBecke (2022)
Basis function cutoff            BFCut       ... 1.0000e-10
Integration weight cutoff        WCut        ... 1.0000e-14
Partially contracted basis set               ... on
Rotationally invariant grid construction     ... off
Angular grids for H and He will be reduced by one unit
Core-polarized basis detected: some atoms will have their core
                               angular grid increased.

Total number of grid points                  ...   102728
Total number of batches                      ...      820
Average number of points per batch           ...      125
Average number of grid points per atom       ...     3021
UseSFitting                                  ... on
Initializing property integral containers    ... done (  0.0 sec)

SHARK setup successfully completed in   4.0 seconds

Maximum memory used throughout the entire STARTUP-calculation: 78.1 MB


           ************************************************************
           *        Program running with 6 parallel MPI-processes     *
           *              working on a common directory               *
           ************************************************************
-------------------------------------------------------------------------------
                                 ORCA GUESS
                   Start orbitals & Density for SCF / CASSCF
-------------------------------------------------------------------------------

------------
SCF SETTINGS
------------
Hamiltonian:
 Density Functional     Method          .... DFT(GTOs)
 Exchange Functional    Exchange        .... M062X
 Correlation Functional Correlation     .... M062X
 Gradients option       PostSCFGGA      .... off
 Hybrid DFT is turned on
   Fraction HF Exchange ScalHFX         ....  0.540000
   Scaling of DF-GGA-X  ScalDFX         ....  0.460000
   Scaling of DF-GGA-C  ScalDFC         ....  1.000000
   Scaling of DF-LDA-C  ScalLDAC        ....  1.000000
   Perturbative correction              ....  0.000000
 RI-approximation to the Coulomb term is turned on
   Number of AuxJ basis functions       .... 1145
   RIJ-COSX (HFX calculated with COS-X)).... on


General Settings:
 Integral files         IntName         .... data/single_point_P_M06-2x/69773/69773
 Hartree-Fock type      HFTyp           .... RHF
 Total Charge           Charge          ....    0
 Multiplicity           Mult            ....    1
 Number of Electrons    NEL             ....  172
 Basis Dimension        Dim             ....  727
 Nuclear Repulsion      ENuc            ....   1852.4678859468 Eh

Convergence Acceleration:
 AO-DIIS                CNVDIIS         .... on
   Start iteration      DIISMaxIt       ....    12
   Startup error        DIISStart       ....  0.200000
   # of expansion vecs  DIISMaxEq       ....     5
   Bias factor          DIISBfac        ....   1.050
   Max. coefficient     DIISMaxC        ....  10.000
 MO-DIIS                CNVKDIIS        .... off
 Trust-Rad. Augm. Hess. CNVTRAH         .... auto
   Auto Start mean grad. ratio tolernc. ....  1.125000
   Auto Start start iteration           ....    50
   Auto Start num. interpolation iter.  ....    10
   Max. Number of Micro iterations      ....    24
   Max. Number of Macro iterations      .... Maxiter - #DIIS iter
   Number of Davidson start vectors     ....     2
   Converg. threshold    (grad. norm)   ....   5.000e-05
   Grad. Scal. Fac. for Micro threshold ....   0.100
   Minimum threshold for Micro iter.    ....   1.000e-02
   NR start threshold (gradient norm)   ....   1.000e-04
   Initial trust radius                 ....   0.400
   Minimum AH scaling param. (alpha)    ....   1.000
   Maximum AH scaling param. (alpha)    .... 1000.000
   Quad. conv. algorithm                .... NR
   White noise on init. David. guess    .... on
   Maximum white noise                  ....   0.010
   Pseudo random numbers                .... off
   Inactive MOs                         .... canonical
   Orbital update algorithm             .... Taylor
   Preconditioner                       .... Diag
   Full preconditioner red. dimension   ....   250
 SOSCF                  CNVSOSCF        .... on
   Start iteration      SOSCFMaxIt      ....   150
   Startup grad/error   SOSCFStart      ....  0.003300
   Hessian update       SOSCFHessUp     .... L-BFGS
 Level Shifting         CNVShift        .... on
   Level shift para.    LevelShift      ....    0.2500
   Turn off err/grad.   ShiftErr        ....    0.0010
 Zerner damping         CNVZerner       .... off
 Static damping         CNVDamp         .... on
   Fraction old density DampFac         ....    0.7000
   Max. Damping (<1)    DampMax         ....    0.9800
   Min. Damping (>=0)   DampMin         ....    0.0000
   Turn off err/grad.   DampErr         ....    0.1000

SCF Procedure:
 Maximum # iterations   MaxIter         ....   125
 SCF integral mode      SCFMode         .... Direct
   Integral package                     .... SHARK and LIBINT hybrid scheme
 Reset frequency        DirectResetFreq ....    20
 Integral Threshold     Thresh          ....  1.000e-10 Eh
 Primitive CutOff       TCut            ....  1.000e-11 Eh

Convergence Tolerance:
 Convergence Check Mode ConvCheckMode   .... Total+1el-Energy
 Convergence forced     ConvForced      .... 0
 Energy Change          TolE            ....  1.000e-06 Eh
 1-El. energy change                    ....  1.000e-03 Eh
 Orbital Gradient       TolG            ....  5.000e-05
 Orbital Rotation angle TolX            ....  5.000e-05
 DIIS Error             TolErr          ....  1.000e-05

------------------------------
INITIAL GUESS: MODEL POTENTIAL
------------------------------
Loading Hartree-Fock densities                     ... done
Calculating cut-offs                               ... done
Initializing the effective Hamiltonian             ... done
Setting up the integral package (SHARK)            ... done
Starting the Coulomb interaction                   ... done (   0.5 sec)
Making the grid                                    ... done (   0.3 sec)
Mapping shells                                     ... done
Starting the XC term evaluation                    ... done (   0.4 sec)
  promolecular density results
     # of electrons  =    171.991538817
     EX              =   -207.875608887
     EC              =     -6.344594022
     EX+EC           =   -214.220202908
Transforming the Hamiltonian                       ... done (   0.0 sec)
Diagonalizing the Hamiltonian                      ... done (   0.1 sec)
Back transforming the eigenvectors                 ... done (   0.0 sec)
Now organizing SCF variables                       ... done
                      ------------------
                      INITIAL GUESS DONE (   1.5 sec)
                      ------------------
             **** ENERGY FILE WAS UPDATED (data/single_point_P_M06-2x/69773/69773.en.tmp) ****
Finished Guess after   1.7 sec
Maximum memory used throughout the entire GUESS-calculation: 56.8 MB


           ************************************************************
           *        Program running with 6 parallel MPI-processes     *
           *              working on a common directory               *
           ************************************************************

-------------------------------------------------------------------------------------------
                                      ORCA LEAN-SCF
                              memory conserving SCF solver
-------------------------------------------------------------------------------------------

----------------------------------------D-I-I-S--------------------------------------------
Iteration    Energy (Eh)           Delta-E    RMSDP     MaxDP     DIISErr   Damp  Time(sec)
-------------------------------------------------------------------------------------------
               ***  Starting incremental Fock matrix formation  ***
    1    -3609.3899567139956162     0.00e+00  1.22e-03  4.38e-02  1.42e-01  0.700  15.9
    2    -3609.5769512443280291    -1.87e-01  9.72e-04  3.21e-02  8.06e-02  0.700   8.9
                               ***Turning on AO-DIIS***
    3    -3609.6681715056042776    -9.12e-02  7.03e-04  2.57e-02  4.51e-02  0.700   8.8
    4    -3609.7219729394496426    -5.38e-02  1.68e-03  6.42e-02  3.22e-02  0.000   8.3
                              *** Initializing SOSCF ***
---------------------------------------S-O-S-C-F--------------------------------------
Iteration    Energy (Eh)           Delta-E    RMSDP     MaxDP     MaxGrad    Time(sec)
--------------------------------------------------------------------------------------
    5    -3609.8371059810419865    -1.15e-01  1.44e-04  1.39e-02  3.24e-03     9.0
               *** Restarting incremental Fock matrix formation ***
    6    -3609.8372681228352121    -1.62e-04  1.85e-04  9.53e-03  7.48e-04    15.5
    7    -3609.8373005130965794    -3.24e-05  7.14e-05  3.53e-03  3.08e-04    11.4
    8    -3609.8373040201872755    -3.51e-06  5.72e-05  3.04e-03  1.90e-04    10.9
    9    -3609.8373076332850360    -3.61e-06  8.56e-06  4.57e-04  4.23e-05    10.4
   10    -3609.8373078742220059    -2.41e-07  4.12e-06  1.93e-04  2.22e-05     8.7
                 **** Energy Check signals convergence ****

               *****************************************************
               *                     SUCCESS                       *
               *           SCF CONVERGED AFTER  10 CYCLES          *
               *****************************************************

Recomputing exchange energy using gridx3       ... done (   21.022 sec)
Old exchange energy                            :   -113.614339603 Eh
New exchange energy                            :   -113.614214474 Eh
Exchange energy change after final integration :      0.000125129 Eh
Total energy after final integration           :  -3609.837182745 Eh
             **** ENERGY FILE WAS UPDATED (data/single_point_P_M06-2x/69773/69773.en.tmp) ****

----------------
TOTAL SCF ENERGY
----------------

Total Energy       :      -3609.83718274482044 Eh          -98228.66359 eV

Components:
Nuclear Repulsion  :       1852.46788594684904 Eh           50408.21388 eV
Electronic Energy  :      -5462.30519382107013 Eh         -148636.88088 eV
One Electron Energy:      -8677.44265960246594 Eh         -236125.21914 eV
Two Electron Energy:       3215.13746578139535 Eh           87488.33827 eV

Virial components:
Potential Energy   :      -7211.17232443324065 Eh         -196225.97488 eV
Kinetic Energy     :       3601.33514168842021 Eh           97997.31129 eV
Virial Ratio       :          2.00236080251404

DFT components:
N(Alpha)           :       86.000077291615 electrons
N(Beta)            :       86.000077291615 electrons
N(Total)           :      172.000154583231 electrons
E(XC)              :     -103.542112772315 Eh       

---------------
SCF CONVERGENCE
---------------

  Last Energy change         ...    2.4094e-07  Tolerance :   1.0000e-06
  Last MAX-Density change    ...    1.9349e-04  Tolerance :   1.0000e-05
  Last RMS-Density change    ...    4.1185e-06  Tolerance :   1.0000e-06
  Last DIIS Error            ...    3.2374e-03  Tolerance :   1.0000e-05
  Last Orbital Gradient      ...    2.2242e-05  Tolerance :   5.0000e-05
  Last Orbital Rotation      ...    5.9291e-05  Tolerance :   5.0000e-05


----------------
ORBITAL ENERGIES
----------------

  NO   OCC          E(Eh)            E(eV) 
   0   2.0000    -485.379241    -13207.8406 
   1   2.0000     -78.038025     -2123.5226 
   2   2.0000     -63.360983     -1724.1400 
   3   2.0000     -57.179438     -1555.9316 
   4   2.0000     -57.177861     -1555.8887 
   5   2.0000     -57.177839     -1555.8881 
   6   2.0000     -10.611240      -288.7465 
   7   2.0000     -10.566211      -287.5212 
   8   2.0000     -10.565621      -287.5052 
   9   2.0000     -10.564930      -287.4864 
  10   2.0000     -10.564086      -287.4634 
  11   2.0000     -10.562625      -287.4236 
  12   2.0000     -10.559893      -287.3493 
  13   2.0000     -10.559862      -287.3484 
  14   2.0000     -10.556941      -287.2690 
  15   2.0000     -10.556676      -287.2618 
  16   2.0000     -10.556303      -287.2516 
  17   2.0000     -10.556138      -287.2471 
  18   2.0000     -10.555298      -287.2243 
  19   2.0000     -10.555281      -287.2238 
  20   2.0000     -10.555080      -287.2183 
  21   2.0000     -10.554989      -287.2159 
  22   2.0000     -10.554531      -287.2034 
  23   2.0000     -10.554435      -287.2008 
  24   2.0000      -9.027633      -245.6544 
  25   2.0000      -6.854032      -186.5077 
  26   2.0000      -6.851486      -186.4384 
  27   2.0000      -6.843084      -186.2098 
  28   2.0000      -6.842823      -186.2027 
  29   2.0000      -4.968656      -135.2040 
  30   2.0000      -4.968231      -135.1924 
  31   2.0000      -4.968230      -135.1924 
  32   2.0000      -2.885457       -78.5173 
  33   2.0000      -2.882486       -78.4364 
  34   2.0000      -2.882170       -78.4278 
  35   2.0000      -2.874021       -78.2061 
  36   2.0000      -2.874011       -78.2058 
  37   2.0000      -0.979739       -26.6601 
  38   2.0000      -0.963479       -26.2176 
  39   2.0000      -0.958182       -26.0735 
  40   2.0000      -0.903296       -24.5799 
  41   2.0000      -0.863701       -23.5025 
  42   2.0000      -0.856261       -23.3000 
  43   2.0000      -0.846073       -23.0228 
  44   2.0000      -0.845450       -23.0059 
  45   2.0000      -0.839565       -22.8457 
  46   2.0000      -0.818103       -22.2617 
  47   2.0000      -0.732827       -19.9412 
  48   2.0000      -0.704785       -19.1782 
  49   2.0000      -0.692242       -18.8369 
  50   2.0000      -0.691493       -18.8165 
  51   2.0000      -0.680005       -18.5039 
  52   2.0000      -0.676347       -18.4043 
  53   2.0000      -0.639852       -17.4113 
  54   2.0000      -0.593656       -16.1542 
  55   2.0000      -0.589200       -16.0330 
  56   2.0000      -0.561932       -15.2909 
  57   2.0000      -0.540302       -14.7024 
  58   2.0000      -0.532987       -14.5033 
  59   2.0000      -0.528635       -14.3849 
  60   2.0000      -0.521319       -14.1858 
  61   2.0000      -0.520087       -14.1523 
  62   2.0000      -0.515183       -14.0189 
  63   2.0000      -0.501388       -13.6435 
  64   2.0000      -0.492024       -13.3886 
  65   2.0000      -0.491336       -13.3699 
  66   2.0000      -0.476686       -12.9713 
  67   2.0000      -0.469417       -12.7735 
  68   2.0000      -0.457906       -12.4603 
  69   2.0000      -0.443645       -12.0722 
  70   2.0000      -0.440152       -11.9771 
  71   2.0000      -0.430126       -11.7043 
  72   2.0000      -0.420903       -11.4534 
  73   2.0000      -0.408904       -11.1268 
  74   2.0000      -0.408028       -11.1030 
  75   2.0000      -0.387481       -10.5439 
  76   2.0000      -0.384341       -10.4584 
  77   2.0000      -0.375737       -10.2243 
  78   2.0000      -0.352378        -9.5887 
  79   2.0000      -0.335954        -9.1418 
  80   2.0000      -0.325792        -8.8652 
  81   2.0000      -0.318755        -8.6738 
  82   2.0000      -0.314033        -8.5453 
  83   2.0000      -0.312385        -8.5004 
  84   2.0000      -0.304839        -8.2951 
  85   2.0000      -0.271034        -7.3752 
  86   0.0000      -0.011321        -0.3081 
  87   0.0000      -0.008719        -0.2372 
  88   0.0000      -0.006454        -0.1756 
  89   0.0000       0.009671         0.2632 
  90   0.0000       0.013541         0.3685 
  91   0.0000       0.018293         0.4978 
  92   0.0000       0.034295         0.9332 
  93   0.0000       0.068873         1.8741 
  94   0.0000       0.072127         1.9627 
  95   0.0000       0.080407         2.1880 
  96   0.0000       0.089757         2.4424 
*Only the first 10 virtual orbitals were printed.

                    ********************************
                    * MULLIKEN POPULATION ANALYSIS *
                    ********************************

-----------------------
MULLIKEN ATOMIC CHARGES
-----------------------
   0 C :   -0.134573
   1 C :   -0.145137
   2 C :   -0.146902
   3 C :   -0.096475
   4 C :   -0.136271
   5 C :   -0.159666
   6 P :    0.129534
   7 C :   -0.096383
   8 C :   -0.145814
   9 C :   -0.144989
  10 C :   -0.135963
  11 C :   -0.161079
  12 C :   -0.135544
  13 C :   -0.114646
  14 C :   -0.136158
  15 C :   -0.153286
  16 C :    0.053524
  17 C :   -0.177003
  18 C :   -0.117553
  19 Br:   -0.100179
  20 H :    0.147674
  21 H :    0.147839
  22 H :    0.156353
  23 H :    0.184987
  24 H :    0.147503
  25 H :    0.155852
  26 H :    0.147851
  27 H :    0.147674
  28 H :    0.148509
  29 H :    0.182735
  30 H :    0.160254
  31 H :    0.169587
  32 H :    0.169787
  33 H :    0.187960
Sum of atomic charges:   -0.0000000

--------------------------------
MULLIKEN REDUCED ORBITAL CHARGES
--------------------------------
  0 C s       :     3.222850  s :     3.222850
      pz      :     0.913831  p :     2.844115
      px      :     0.976500
      py      :     0.953784
      dz2     :     0.016478  d :     0.061323
      dxz     :     0.012391
      dyz     :     0.011402
      dx2y2   :     0.007693
      dxy     :     0.013358
      f0      :     0.001000  f :     0.006285
      f+1     :     0.000624
      f-1     :     0.001209
      f+2     :     0.000864
      f-2     :     0.001239
      f+3     :     0.000716
      f-3     :     0.000633

  1 C s       :     3.226231  s :     3.226231
      pz      :     0.930202  p :     2.851910
      px      :     0.924724
      py      :     0.996984
      dz2     :     0.015168  d :     0.060691
      dxz     :     0.008087
      dyz     :     0.014581
      dx2y2   :     0.013982
      dxy     :     0.008874
      f0      :     0.001047  f :     0.006305
      f+1     :     0.000881
      f-1     :     0.000800
      f+2     :     0.000966
      f-2     :     0.001058
      f+3     :     0.000758
      f-3     :     0.000795

  2 C s       :     3.205661  s :     3.205661
      pz      :     0.998879  p :     2.870237
      px      :     0.946788
      py      :     0.924570
      dz2     :     0.010563  d :     0.064468
      dxz     :     0.011894
      dyz     :     0.012786
      dx2y2   :     0.018783
      dxy     :     0.010441
      f0      :     0.000343  f :     0.006536
      f+1     :     0.000867
      f-1     :     0.001229
      f+2     :     0.000799
      f-2     :     0.001083
      f+3     :     0.001137
      f-3     :     0.001077

  3 C s       :     3.236366  s :     3.236366
      pz      :     0.880304  p :     2.775619
      px      :     0.946465
      py      :     0.948850
      dz2     :     0.020690  d :     0.077528
      dxz     :     0.012937
      dyz     :     0.015478
      dx2y2   :     0.013116
      dxy     :     0.015307
      f0      :     0.001032  f :     0.006961
      f+1     :     0.000832
      f-1     :     0.001303
      f+2     :     0.000972
      f-2     :     0.001288
      f+3     :     0.000791
      f-3     :     0.000744

  4 C s       :     3.191883  s :     3.191883
      pz      :     0.903663  p :     2.872208
      px      :     0.944536
      py      :     1.024009
      dz2     :     0.014116  d :     0.065721
      dxz     :     0.011060
      dyz     :     0.016761
      dx2y2   :     0.015675
      dxy     :     0.008108
      f0      :     0.001023  f :     0.006459
      f+1     :     0.000901
      f-1     :     0.000778
      f+2     :     0.001023
      f-2     :     0.001133
      f+3     :     0.000792
      f-3     :     0.000808

  5 C s       :     3.234002  s :     3.234002
      pz      :     0.998991  p :     2.858473
      px      :     0.957226
      py      :     0.902256
      dz2     :     0.009875  d :     0.060924
      dxz     :     0.010557
      dyz     :     0.012157
      dx2y2   :     0.017375
      dxy     :     0.010960
      f0      :     0.000343  f :     0.006267
      f+1     :     0.000839
      f-1     :     0.001145
      f+2     :     0.000787
      f-2     :     0.001128
      f+3     :     0.001025
      f-3     :     0.001000

  6 P s       :     5.750773  s :     5.750773
      pz      :     3.345577  p :     8.837280
      px      :     2.735731
      py      :     2.755972
      dz2     :     0.027121  d :     0.256935
      dxz     :     0.046642
      dyz     :     0.057047
      dx2y2   :     0.058465
      dxy     :     0.067660
      f0      :     0.002461  f :     0.025478
      f+1     :     0.002569
      f-1     :     0.003215
      f+2     :     0.004746
      f-2     :     0.005132
      f+3     :     0.003600
      f-3     :     0.003755

  7 C s       :     3.241292  s :     3.241292
      pz      :     0.891572  p :     2.771375
      px      :     0.955606
      py      :     0.924198
      dz2     :     0.020382  d :     0.076754
      dxz     :     0.007857
      dyz     :     0.018179
      dx2y2   :     0.018974
      dxy     :     0.011363
      f0      :     0.001086  f :     0.006963
      f+1     :     0.000882
      f-1     :     0.000975
      f+2     :     0.000814
      f-2     :     0.001411
      f+3     :     0.000966
      f-3     :     0.000829

  8 C s       :     3.207104  s :     3.207104
      pz      :     1.009122  p :     2.868354
      px      :     0.951417
      py      :     0.907814
      dz2     :     0.011057  d :     0.063810
      dxz     :     0.012802
      dyz     :     0.011027
      dx2y2   :     0.016790
      dxy     :     0.012134
      f0      :     0.000483  f :     0.006547
      f+1     :     0.000811
      f-1     :     0.001126
      f+2     :     0.000689
      f-2     :     0.001305
      f+3     :     0.001149
      f-3     :     0.000982

  9 C s       :     3.226194  s :     3.226194
      pz      :     0.911793  p :     2.852053
      px      :     0.989811
      py      :     0.950450
      dz2     :     0.018265  d :     0.060426
      dxz     :     0.011024
      dyz     :     0.009320
      dx2y2   :     0.008277
      dxy     :     0.013541
      f0      :     0.000965  f :     0.006316
      f+1     :     0.000662
      f-1     :     0.001160
      f+2     :     0.000897
      f-2     :     0.001327
      f+3     :     0.000641
      f-3     :     0.000664

 10 C s       :     3.226340  s :     3.226340
      pz      :     0.943223  p :     2.842356
      px      :     0.918582
      py      :     0.980551
      dz2     :     0.013545  d :     0.060977
      dxz     :     0.008642
      dyz     :     0.014660
      dx2y2   :     0.014974
      dxy     :     0.009157
      f0      :     0.001046  f :     0.006289
      f+1     :     0.000829
      f-1     :     0.000659
      f+2     :     0.000886
      f-2     :     0.001232
      f+3     :     0.000873
      f-3     :     0.000764

 11 C s       :     3.235956  s :     3.235956
      pz      :     0.997008  p :     2.858193
      px      :     0.950713
      py      :     0.910472
      dz2     :     0.009117  d :     0.060653
      dxz     :     0.011867
      dyz     :     0.011856
      dx2y2   :     0.017570
      dxy     :     0.010242
      f0      :     0.000426  f :     0.006277
      f+1     :     0.000780
      f-1     :     0.001080
      f+2     :     0.000722
      f-2     :     0.001266
      f+3     :     0.001087
      f-3     :     0.000917

 12 C s       :     3.191567  s :     3.191567
      pz      :     0.885148  p :     2.872444
      px      :     0.989490
      py      :     0.997806
      dz2     :     0.018728  d :     0.065070
      dxz     :     0.011414
      dyz     :     0.012012
      dx2y2   :     0.007926
      dxy     :     0.014991
      f0      :     0.000951  f :     0.006464
      f+1     :     0.000652
      f-1     :     0.001244
      f+2     :     0.000974
      f-2     :     0.001326
      f+3     :     0.000661
      f-3     :     0.000656

 13 C s       :     3.247346  s :     3.247346
      pz      :     0.910152  p :     2.783055
      px      :     0.928093
      py      :     0.944810
      dz2     :     0.019794  d :     0.077286
      dxz     :     0.018008
      dyz     :     0.005992
      dx2y2   :     0.015123
      dxy     :     0.018369
      f0      :     0.000708  f :     0.006959
      f+1     :     0.000829
      f-1     :     0.001277
      f+2     :     0.001049
      f-2     :     0.001289
      f+3     :     0.001113
      f-3     :     0.000694

 14 C s       :     3.202611  s :     3.202611
      pz      :     0.988162  p :     2.862695
      px      :     0.907017
      py      :     0.967515
      dz2     :     0.006587  d :     0.064278
      dxz     :     0.018592
      dyz     :     0.009113
      dx2y2   :     0.011799
      dxy     :     0.018186
      f0      :     0.000468  f :     0.006574
      f+1     :     0.001153
      f-1     :     0.000703
      f+2     :     0.001131
      f-2     :     0.000839
      f+3     :     0.001412
      f-3     :     0.000867

 15 C s       :     3.176051  s :     3.176051
      pz      :     0.930514  p :     2.905458
      px      :     1.037931
      py      :     0.937012
      dz2     :     0.016858  d :     0.065251
      dxz     :     0.010665
      dyz     :     0.009378
      dx2y2   :     0.017103
      dxy     :     0.011247
      f0      :     0.000777  f :     0.006527
      f+1     :     0.000637
      f-1     :     0.001167
      f+2     :     0.001012
      f-2     :     0.001243
      f+3     :     0.000912
      f-3     :     0.000778

 16 C s       :     3.258952  s :     3.258952
      pz      :     0.914978  p :     2.562626
      px      :     0.742605
      py      :     0.905042
      dz2     :     0.023480  d :     0.116701
      dxz     :     0.028136
      dyz     :     0.009634
      dx2y2   :     0.026886
      dxy     :     0.028565
      f0      :     0.000823  f :     0.008198
      f+1     :     0.001024
      f-1     :     0.001353
      f+2     :     0.001215
      f-2     :     0.001482
      f+3     :     0.001470
      f-3     :     0.000831

 17 C s       :     3.180492  s :     3.180492
      pz      :     1.005744  p :     2.924832
      px      :     0.918410
      py      :     1.000677
      dz2     :     0.007304  d :     0.065206
      dxz     :     0.017902
      dyz     :     0.008125
      dx2y2   :     0.013794
      dxy     :     0.018081
      f0      :     0.000498  f :     0.006474
      f+1     :     0.001107
      f-1     :     0.000732
      f+2     :     0.001162
      f-2     :     0.000776
      f+3     :     0.001398
      f-3     :     0.000800

 18 C s       :     3.182650  s :     3.182650
      pz      :     0.908367  p :     2.863190
      px      :     1.025730
      py      :     0.929092
      dz2     :     0.015144  d :     0.065206
      dxz     :     0.014337
      dyz     :     0.007298
      dx2y2   :     0.014317
      dxy     :     0.014109
      f0      :     0.000730  f :     0.006508
      f+1     :     0.000646
      f-1     :     0.001076
      f+2     :     0.000995
      f-2     :     0.001297
      f+3     :     0.000974
      f-3     :     0.000790

 19 Brs       :     7.924180  s :     7.924180
      pz      :     5.869031  p :    17.115799
      px      :     5.387792
      py      :     5.858976
      dz2     :     2.007148  d :    10.052818
      dxz     :     2.015187
      dyz     :     2.002690
      dx2y2   :     2.012383
      dxy     :     2.015410
      f0      :     0.000775  f :     0.007383
      f+1     :     0.001082
      f-1     :     0.000260
      f+2     :     0.001209
      f-2     :     0.000954
      f+3     :     0.001234
      f-3     :     0.001870

 20 H s       :     0.832664  s :     0.832664
      pz      :     0.004137  p :     0.019662
      px      :     0.007899
      py      :     0.007626

 21 H s       :     0.832449  s :     0.832449
      pz      :     0.005859  p :     0.019713
      px      :     0.003645
      py      :     0.010208

 22 H s       :     0.823723  s :     0.823723
      pz      :     0.011055  p :     0.019924
      px      :     0.005700
      py      :     0.003169

 23 H s       :     0.794379  s :     0.794379
      pz      :     0.005807  p :     0.020634
      px      :     0.003816
      py      :     0.011011

 24 H s       :     0.832801  s :     0.832801
      pz      :     0.010786  p :     0.019697
      px      :     0.005707
      py      :     0.003204

 25 H s       :     0.824227  s :     0.824227
      pz      :     0.010304  p :     0.019920
      px      :     0.006305
      py      :     0.003312

 26 H s       :     0.832462  s :     0.832462
      pz      :     0.003661  p :     0.019687
      px      :     0.008564
      py      :     0.007463

 27 H s       :     0.832669  s :     0.832669
      pz      :     0.006417  p :     0.019657
      px      :     0.003430
      py      :     0.009810

 28 H s       :     0.831810  s :     0.831810
      pz      :     0.010021  p :     0.019681
      px      :     0.006439
      py      :     0.003222

 29 H s       :     0.796722  s :     0.796722
      pz      :     0.003627  p :     0.020542
      px      :     0.008824
      py      :     0.008091

 30 H s       :     0.819697  s :     0.819697
      pz      :     0.008367  p :     0.020050
      px      :     0.002734
      py      :     0.008949

 31 H s       :     0.810258  s :     0.810258
      pz      :     0.004489  p :     0.020155
      px      :     0.010955
      py      :     0.004710

 32 H s       :     0.810061  s :     0.810061
      pz      :     0.008298  p :     0.020153
      px      :     0.002656
      py      :     0.009199

 33 H s       :     0.791263  s :     0.791263
      pz      :     0.004472  p :     0.020777
      px      :     0.011552
      py      :     0.004753



                     *******************************
                     * LOEWDIN POPULATION ANALYSIS *
                     *******************************

----------------------
LOEWDIN ATOMIC CHARGES
----------------------
   0 C :   -0.139691
   1 C :   -0.142676
   2 C :   -0.142813
   3 C :   -0.278026
   4 C :   -0.136824
   5 C :   -0.141664
   6 P :    0.701804
   7 C :   -0.277568
   8 C :   -0.142104
   9 C :   -0.142342
  10 C :   -0.139754
  11 C :   -0.141567
  12 C :   -0.137998
  13 C :   -0.275489
  14 C :   -0.134012
  15 C :   -0.145252
  16 C :   -0.378374
  17 C :   -0.144361
  18 C :   -0.128661
  19 Br:    0.337895
  20 H :    0.147728
  21 H :    0.148487
  22 H :    0.151008
  23 H :    0.158247
  24 H :    0.148453
  25 H :    0.151005
  26 H :    0.148421
  27 H :    0.147699
  28 H :    0.148615
  29 H :    0.157326
  30 H :    0.154266
  31 H :    0.153440
  32 H :    0.153396
  33 H :    0.161384

-------------------------------
LOEWDIN REDUCED ORBITAL CHARGES
-------------------------------
  0 C s       :     2.778958  s :     2.778958
      pz      :     1.014493  p :     2.946016
      px      :     0.936635
      py      :     0.994888
      dz2     :     0.093419  d :     0.374177
      dxz     :     0.063024
      dyz     :     0.101240
      dx2y2   :     0.040048
      dxy     :     0.076447
      f0      :     0.005649  f :     0.040540
      f+1     :     0.005031
      f-1     :     0.009453
      f+2     :     0.006343
      f-2     :     0.005746
      f+3     :     0.004775
      f-3     :     0.003542

  1 C s       :     2.778231  s :     2.778231
      pz      :     1.004015  p :     2.948580
      px      :     0.967591
      py      :     0.976974
      dz2     :     0.075178  d :     0.375284
      dxz     :     0.075900
      dyz     :     0.101328
      dx2y2   :     0.073469
      dxy     :     0.049410
      f0      :     0.006442  f :     0.040581
      f+1     :     0.006257
      f-1     :     0.006995
      f+2     :     0.004898
      f-2     :     0.006127
      f+3     :     0.005252
      f-3     :     0.004610

  2 C s       :     2.777538  s :     2.777538
      pz      :     0.970301  p :     2.941819
      px      :     0.948519
      py      :     1.022999
      dz2     :     0.076957  d :     0.382788
      dxz     :     0.062891
      dyz     :     0.075269
      dx2y2   :     0.083732
      dxy     :     0.083938
      f0      :     0.002706  f :     0.040668
      f+1     :     0.004308
      f-1     :     0.009104
      f+2     :     0.005937
      f-2     :     0.006396
      f+3     :     0.007597
      f-3     :     0.004620

  3 C s       :     2.779847  s :     2.779847
      pz      :     1.034836  p :     2.997787
      px      :     0.956381
      py      :     1.006570
      dz2     :     0.103957  d :     0.455640
      dxz     :     0.084623
      dyz     :     0.123637
      dx2y2   :     0.058473
      dxy     :     0.084949
      f0      :     0.005969  f :     0.044751
      f+1     :     0.005854
      f-1     :     0.010474
      f+2     :     0.006613
      f-2     :     0.006558
      f+3     :     0.005290
      f-3     :     0.003994

  4 C s       :     2.776717  s :     2.776717
      pz      :     0.993354  p :     2.938664
      px      :     0.964771
      py      :     0.980539
      dz2     :     0.075010  d :     0.380856
      dxz     :     0.078709
      dyz     :     0.101863
      dx2y2   :     0.074740
      dxy     :     0.050535
      f0      :     0.006481  f :     0.040587
      f+1     :     0.006301
      f-1     :     0.006877
      f+2     :     0.004929
      f-2     :     0.006038
      f+3     :     0.005309
      f-3     :     0.004652

  5 C s       :     2.778466  s :     2.778466
      pz      :     0.967857  p :     2.947091
      px      :     0.953476
      py      :     1.025759
      dz2     :     0.073871  d :     0.375616
      dxz     :     0.061505
      dyz     :     0.074595
      dx2y2   :     0.084892
      dxy     :     0.080753
      f0      :     0.002696  f :     0.040490
      f+1     :     0.004213
      f-1     :     0.009040
      f+2     :     0.005920
      f-2     :     0.006324
      f+3     :     0.007689
      f-3     :     0.004608

  6 P s       :     4.929009  s :     4.929009
      pz      :     3.292970  p :     8.781791
      px      :     2.735494
      py      :     2.753328
      dz2     :     0.071502  d :     0.492132
      dxz     :     0.077042
      dyz     :     0.098236
      dx2y2   :     0.114629
      dxy     :     0.130723
      f0      :     0.007590  f :     0.095264
      f+1     :     0.007919
      f-1     :     0.011932
      f+2     :     0.016912
      f-2     :     0.020247
      f+3     :     0.014977
      f-3     :     0.015688

  7 C s       :     2.779951  s :     2.779951
      pz      :     1.022306  p :     2.997371
      px      :     0.980871
      py      :     0.994194
      dz2     :     0.095301  d :     0.455493
      dxz     :     0.082175
      dyz     :     0.117724
      dx2y2   :     0.089574
      dxy     :     0.070719
      f0      :     0.006846  f :     0.044752
      f+1     :     0.005584
      f-1     :     0.008223
      f+2     :     0.004981
      f-2     :     0.007482
      f+3     :     0.006386
      f-3     :     0.005251

  8 C s       :     2.777476  s :     2.777476
      pz      :     0.970398  p :     2.941315
      px      :     0.959717
      py      :     1.011200
      dz2     :     0.067422  d :     0.382637
      dxz     :     0.075287
      dyz     :     0.070323
      dx2y2   :     0.087893
      dxy     :     0.081712
      f0      :     0.003559  f :     0.040676
      f+1     :     0.003894
      f-1     :     0.008283
      f+2     :     0.005438
      f-2     :     0.006771
      f+3     :     0.007955
      f-3     :     0.004776

  9 C s       :     2.778250  s :     2.778250
      pz      :     1.010661  p :     2.948232
      px      :     0.950802
      py      :     0.986769
      dz2     :     0.098063  d :     0.375271
      dxz     :     0.062888
      dyz     :     0.090236
      dx2y2   :     0.042027
      dxy     :     0.082056
      f0      :     0.005306  f :     0.040589
      f+1     :     0.005064
      f-1     :     0.008619
      f+2     :     0.006766
      f-2     :     0.006549
      f+3     :     0.004588
      f-3     :     0.003696

 10 C s       :     2.778990  s :     2.778990
      pz      :     0.989030  p :     2.946156
      px      :     0.986440
      py      :     0.970686
      dz2     :     0.066133  d :     0.374072
      dxz     :     0.077112
      dyz     :     0.093344
      dx2y2   :     0.080928
      dxy     :     0.056554
      f0      :     0.006776  f :     0.040536
      f+1     :     0.005607
      f-1     :     0.005618
      f+2     :     0.004864
      f-2     :     0.006681
      f+3     :     0.005935
      f-3     :     0.005055

 11 C s       :     2.778510  s :     2.778510
      pz      :     0.963811  p :     2.946969
      px      :     0.966271
      py      :     1.016887
      dz2     :     0.064448  d :     0.375592
      dxz     :     0.074676
      dyz     :     0.068279
      dx2y2   :     0.086272
      dxy     :     0.081917
      f0      :     0.003491  f :     0.040495
      f+1     :     0.003885
      f-1     :     0.008047
      f+2     :     0.005498
      f-2     :     0.006752
      f+3     :     0.008055
      f-3     :     0.004769

 12 C s       :     2.776729  s :     2.776729
      pz      :     0.998331  p :     2.939716
      px      :     0.952055
      py      :     0.989330
      dz2     :     0.097328  d :     0.380975
      dxz     :     0.062809
      dyz     :     0.094319
      dx2y2   :     0.043100
      dxy     :     0.083419
      f0      :     0.005301  f :     0.040578
      f+1     :     0.005004
      f-1     :     0.008642
      f+2     :     0.006633
      f-2     :     0.006607
      f+3     :     0.004663
      f-3     :     0.003728

 13 C s       :     2.779862  s :     2.779862
      pz      :     0.973645  p :     2.996928
      px      :     1.042444
      py      :     0.980839
      dz2     :     0.075117  d :     0.453828
      dxz     :     0.113184
      dyz     :     0.063270
      dx2y2   :     0.096474
      dxy     :     0.105783
      f0      :     0.004844  f :     0.044870
      f+1     :     0.006355
      f-1     :     0.004687
      f+2     :     0.005402
      f-2     :     0.009262
      f+3     :     0.008939
      f-3     :     0.005381

 14 C s       :     2.776847  s :     2.776847
      pz      :     0.933473  p :     2.931840
      px      :     1.061825
      py      :     0.936542
      dz2     :     0.040811  d :     0.384509
      dxz     :     0.088748
      dyz     :     0.051293
      dx2y2   :     0.113456
      dxy     :     0.090202
      f0      :     0.002905  f :     0.040815
      f+1     :     0.008643
      f-1     :     0.001709
      f+2     :     0.004383
      f-2     :     0.007272
      f+3     :     0.010527
      f-3     :     0.005376

 15 C s       :     2.778698  s :     2.778698
      pz      :     0.958297  p :     2.952258
      px      :     1.024523
      py      :     0.969438
      dz2     :     0.064939  d :     0.373469
      dxz     :     0.080142
      dyz     :     0.053579
      dx2y2   :     0.085786
      dxy     :     0.089023
      f0      :     0.005013  f :     0.040827
      f+1     :     0.004884
      f-1     :     0.004990
      f+2     :     0.005319
      f-2     :     0.007646
      f+3     :     0.007407
      f-3     :     0.005568

 16 C s       :     2.798106  s :     2.798106
      pz      :     0.985870  p :     2.985453
      px      :     0.998506
      py      :     1.001077
      dz2     :     0.088924  d :     0.542632
      dxz     :     0.125621
      dyz     :     0.063767
      dx2y2   :     0.128696
      dxy     :     0.135624
      f0      :     0.005423  f :     0.052184
      f+1     :     0.007750
      f-1     :     0.004809
      f+2     :     0.005830
      f-2     :     0.010316
      f+3     :     0.011348
      f-3     :     0.006708

 17 C s       :     2.778906  s :     2.778906
      pz      :     0.939710  p :     2.950934
      px      :     1.061915
      py      :     0.949309
      dz2     :     0.038974  d :     0.373797
      dxz     :     0.086859
      dyz     :     0.048854
      dx2y2   :     0.107925
      dxy     :     0.091186
      f0      :     0.003069  f :     0.040724
      f+1     :     0.008396
      f-1     :     0.001750
      f+2     :     0.004390
      f-2     :     0.007193
      f+3     :     0.010323
      f-3     :     0.005602

 18 C s       :     2.776105  s :     2.776105
      pz      :     0.946570  p :     2.929054
      px      :     1.014268
      py      :     0.968217
      dz2     :     0.063150  d :     0.382763
      dxz     :     0.087344
      dyz     :     0.051636
      dx2y2   :     0.082306
      dxy     :     0.098326
      f0      :     0.004814  f :     0.040739
      f+1     :     0.004947
      f-1     :     0.004558
      f+2     :     0.004999
      f-2     :     0.008096
      f+3     :     0.007839
      f-3     :     0.005485

 19 Brs       :     7.580849  s :     7.580849
      pz      :     5.802972  p :    16.950675
      px      :     5.355316
      py      :     5.792387
      dz2     :     2.015496  d :    10.116281
      dxz     :     2.031592
      dyz     :     2.007376
      dx2y2   :     2.029404
      dxy     :     2.032413
      f0      :     0.001423  f :     0.014300
      f+1     :     0.002194
      f-1     :     0.000465
      f+2     :     0.002225
      f-2     :     0.001920
      f+3     :     0.002636
      f-3     :     0.003437

 20 H s       :     0.796429  s :     0.796429
      pz      :     0.013154  p :     0.055843
      px      :     0.021568
      py      :     0.021121

 21 H s       :     0.795677  s :     0.795677
      pz      :     0.017103  p :     0.055835
      px      :     0.011764
      py      :     0.026969

 22 H s       :     0.792766  s :     0.792766
      pz      :     0.028885  p :     0.056226
      px      :     0.016661
      py      :     0.010680

 23 H s       :     0.783263  s :     0.783263
      pz      :     0.017070  p :     0.058489
      px      :     0.012325
      py      :     0.029094

 24 H s       :     0.795738  s :     0.795738
      pz      :     0.028349  p :     0.055809
      px      :     0.016463
      py      :     0.010997

 25 H s       :     0.792772  s :     0.792772
      pz      :     0.027148  p :     0.056223
      px      :     0.018124
      py      :     0.010951

 26 H s       :     0.795754  s :     0.795754
      pz      :     0.012021  p :     0.055825
      px      :     0.023148
      py      :     0.020656

 27 H s       :     0.796438  s :     0.796438
      pz      :     0.018336  p :     0.055863
      px      :     0.011386
      py      :     0.026141

 28 H s       :     0.795554  s :     0.795554
      pz      :     0.026590  p :     0.055831
      px      :     0.018290
      py      :     0.010951

 29 H s       :     0.784340  s :     0.784340
      pz      :     0.011823  p :     0.058333
      px      :     0.023979
      py      :     0.022530

 30 H s       :     0.789451  s :     0.789451
      pz      :     0.022450  p :     0.056282
      px      :     0.009542
      py      :     0.024291

 31 H s       :     0.789635  s :     0.789635
      pz      :     0.013901  p :     0.056925
      px      :     0.028721
      py      :     0.014303

 32 H s       :     0.789679  s :     0.789679
      pz      :     0.022713  p :     0.056925
      px      :     0.009416
      py      :     0.024796

 33 H s       :     0.780025  s :     0.780025
      pz      :     0.013861  p :     0.058591
      px      :     0.030384
      py      :     0.014347



                      *****************************
                      * MAYER POPULATION ANALYSIS *
                      *****************************

  NA   - Mulliken gross atomic population
  ZA   - Total nuclear charge
  QA   - Mulliken gross atomic charge
  VA   - Mayer's total valence
  BVA  - Mayer's bonded valence
  FA   - Mayer's free valence

  ATOM       NA         ZA         QA         VA         BVA        FA
  0 C      6.1346     6.0000    -0.1346     3.9202     3.9202    -0.0000
  1 C      6.1451     6.0000    -0.1451     3.9496     3.9496    -0.0000
  2 C      6.1469     6.0000    -0.1469     3.9325     3.9325    -0.0000
  3 C      6.0965     6.0000    -0.0965     3.8251     3.8251     0.0000
  4 C      6.1363     6.0000    -0.1363     3.8307     3.8307    -0.0000
  5 C      6.1597     6.0000    -0.1597     3.9785     3.9785    -0.0000
  6 P     14.8705    15.0000     0.1295     3.0839     3.0839     0.0000
  7 C      6.0964     6.0000    -0.0964     3.8222     3.8222     0.0000
  8 C      6.1458     6.0000    -0.1458     3.9372     3.9372    -0.0000
  9 C      6.1450     6.0000    -0.1450     3.9503     3.9503    -0.0000
 10 C      6.1360     6.0000    -0.1360     3.9187     3.9187     0.0000
 11 C      6.1611     6.0000    -0.1611     3.9791     3.9791     0.0000
 12 C      6.1355     6.0000    -0.1355     3.8225     3.8225    -0.0000
 13 C      6.1146     6.0000    -0.1146     3.8603     3.8603    -0.0000
 14 C      6.1362     6.0000    -0.1362     3.9324     3.9324    -0.0000
 15 C      6.1533     6.0000    -0.1533     3.8944     3.8944    -0.0000
 16 C      5.9465     6.0000     0.0535     3.9382     3.9382     0.0000
 17 C      6.1770     6.0000    -0.1770     3.9352     3.9352    -0.0000
 18 C      6.1176     6.0000    -0.1176     3.8291     3.8291    -0.0000
 19 Br    35.1002    35.0000    -0.1002     1.1668     1.1668    -0.0000
 20 H      0.8523     1.0000     0.1477     0.9636     0.9636    -0.0000
 21 H      0.8522     1.0000     0.1478     0.9643     0.9643    -0.0000
 22 H      0.8436     1.0000     0.1564     0.9683     0.9683    -0.0000
 23 H      0.8150     1.0000     0.1850     0.9490     0.9490    -0.0000
 24 H      0.8525     1.0000     0.1475     0.9655     0.9655    -0.0000
 25 H      0.8441     1.0000     0.1559     0.9681     0.9681    -0.0000
 26 H      0.8521     1.0000     0.1479     0.9643     0.9643    -0.0000
 27 H      0.8523     1.0000     0.1477     0.9637     0.9637    -0.0000
 28 H      0.8515     1.0000     0.1485     0.9653     0.9653     0.0000
 29 H      0.8173     1.0000     0.1827     0.9503     0.9503    -0.0000
 30 H      0.8397     1.0000     0.1603     0.9682     0.9682    -0.0000
 31 H      0.8304     1.0000     0.1696     0.9579     0.9579    -0.0000
 32 H      0.8302     1.0000     0.1698     0.9595     0.9595     0.0000
 33 H      0.8120     1.0000     0.1880     0.9501     0.9501    -0.0000

  Mayer bond orders larger than 0.100000
B(  0-C ,  1-C ) :   1.4269 B(  0-C ,  5-C ) :   1.4384 B(  0-C , 20-H ) :   0.9464 
B(  1-C ,  2-C ) :   1.4599 B(  1-C , 21-H ) :   0.9472 B(  2-C ,  3-C ) :   1.3956 
B(  2-C , 22-H ) :   0.9361 B(  3-C ,  4-C ) :   1.3409 B(  3-C ,  6-P ) :   0.9336 
B(  4-C ,  5-C ) :   1.4596 B(  4-C , 23-H ) :   0.9268 B(  5-C , 24-H ) :   0.9442 
B(  6-P ,  7-C ) :   0.9349 B(  6-P , 13-C ) :   0.9324 B(  7-C ,  8-C ) :   1.3993 
B(  7-C , 12-C ) :   1.3332 B(  8-C ,  9-C ) :   1.4610 B(  8-C , 25-H ) :   0.9358 
B(  9-C , 10-C ) :   1.4261 B(  9-C , 26-H ) :   0.9467 B( 10-C , 11-C ) :   1.4373 
B( 10-C , 27-H ) :   0.9467 B( 11-C , 12-C ) :   1.4604 B( 11-C , 28-H ) :   0.9436 
B( 12-C , 29-H ) :   0.9273 B( 13-C , 14-C ) :   1.3964 B( 13-C , 18-C ) :   1.3383 
B( 14-C , 15-C ) :   1.4569 B( 14-C , 30-H ) :   0.9322 B( 15-C , 16-C ) :   1.3726 
B( 15-C , 31-H ) :   0.9288 B( 16-C , 17-C ) :   1.3886 B( 16-C , 19-Br) :   1.0696 
B( 17-C , 18-C ) :   1.4621 B( 17-C , 32-H ) :   0.9220 B( 18-C , 33-H ) :   0.9220 


-------
TIMINGS
-------

Total SCF time: 0 days 0 hours 2 min 9 sec 

Total time                  ....     129.600 sec
Sum of individual times     ....     129.660 sec  (100.0%)

SCF preparation             ....       0.293 sec  (  0.2%)
Fock matrix formation       ....     125.728 sec  ( 97.0%)
  Startup                   ....       0.127 sec  (  0.1% of F)
  Split-RI-J                ....       8.416 sec  (  6.7% of F)
  Chain of spheres X        ....      92.806 sec  ( 73.8% of F)
  XC integration            ....      24.053 sec  ( 19.1% of F)
    Basis function eval.    ....       3.421 sec  ( 14.2% of XC)
    Density eval.           ....       9.869 sec  ( 41.0% of XC)
    XC-Functional eval.     ....       0.408 sec  (  1.7% of XC)
    XC-Potential eval.      ....       8.830 sec  ( 36.7% of XC)
Diagonalization             ....       0.000 sec  (  0.0%)
Density matrix formation    ....       0.332 sec  (  0.3%)
Total Energy calculation    ....       0.112 sec  (  0.1%)
Population analysis         ....       0.196 sec  (  0.2%)
Orbital Transformation      ....       0.453 sec  (  0.3%)
Orbital Orthonormalization  ....       0.000 sec  (  0.0%)
DIIS solution               ....       1.589 sec  (  1.2%)
SOSCF solution              ....       0.957 sec  (  0.7%)
Finished LeanSCF after 129.7 sec

Maximum memory used throughout the entire LEANSCF-calculation: 101.7 MB


-------------------------------------------------------------------------------
                          DFT DISPERSION CORRECTION                            
                                                                               
                              DFTD3 V3.1  Rev 1                                
                              USING zero damping                               
-------------------------------------------------------------------------------
The M062X functional is recognized
Active option DFTDOPT                   ...         3   

molecular C6(AA) [au] = 19608.050066 


            DFT-D V3
 parameters
 s6 scaling factor         :     1.0000 
 rs6 scaling factor        :     1.6190 
 s8 scaling factor         :     0.0000 
 rs8 scaling factor        :     1.0000 
 Damping factor alpha6     :    14.0000 
 Damping factor alpha8     :    16.0000 
 ad hoc parameters k1-k3   :    16.0000     1.3333    -4.0000 

 Edisp/kcal,au: -1.348174914130  -0.002148453252 
 E6   /kcal   :  -1.348174914 
 E8   /kcal   :  -0.000000000 
 % E8         :   0.000000000 

-------------------------   ----------------
Dispersion correction           -0.002148453
-------------------------   ----------------


-------------------------   --------------------
FINAL SINGLE POINT ENERGY     -3609.839331198073
-------------------------   --------------------



           ************************************************************
           *        Program running with 6 parallel MPI-processes     *
           *              working on a common directory               *
           ************************************************************

------------------------------------------------------------------------------
                              ORCA PROPERTY CALCULATIONS
------------------------------------------------------------------------------

GBWName                                 ... data/single_point_P_M06-2x/69773/69773.gbw
Number of atoms                         ...     34
Number of basis functions               ...    727
Max core memory                         ...   1024 MB

Electric properties:
Dipole moment                           ... YES
Quadrupole moment                       ...  NO
Static polarizability (Dipole/Dipole)   ...  NO
Static polarizability (Dipole/Quad.)    ...  NO
Static polarizability (Quad./Quad.)     ...  NO
Static polarizability (Velocity)        ...  NO

Atomic electric properties:
Dipole moment                           ...  NO
Quadrupole moment                       ...  NO
Static polarizability                   ...  NO

Choice of electric origin               ... Center of mass
Position of electric origin             ...     2.414242    -0.872296     0.021465

General magnetic properties:
Magnetizability                         ...  NO

EPR properties:
g-Tensor (aka g-matrix)                 ...  NO
Zero-Field splitting spin-orbit         ...  NO
Zero-field splitting spin-spin          ...  NO
Hyperfine couplings                     ...  NO (   0 nuclei)
Quadrupole couplings                    ...  NO (   0 nuclei)
Contact density                         ...  NO (   0 nuclei)

NMR properties:
Chemical shifts                         ...  NO (   0 nuclei)
Spin-rotation constants                 ...  NO (   0 nuclei)
Spin-spin couplings                     ...  NO (   0 nuclei,    0 pairs)

Choice of magnetic origin               ... GIAO
Position of magnetic origin             ...     0.000000     0.000000     0.000000

Properties with geometric perturbations:
SCF Hessian                             ...  NO
IR spectrum                             ...  NO
VCD spectrum                            ...  NO
X-ray spectroscopy properties:
SCF XES/XAS/RIXS spectra                ...  NO


-------------
DIPOLE MOMENT
-------------

Method             : SCF
Type of density    : Electron Density
Multiplicity       :   1
Irrep              :   0
Energy             : -3609.8371827448204385 Eh
Relativity type    : 
Basis              : AO
                                X                 Y                 Z
Electronic contribution:     59.919231157     -22.268362108       4.399400734
Nuclear contribution   :    -60.637768046      22.464829261      -4.056233478
                        -----------------------------------------
Total Dipole Moment    :     -0.718536889       0.196467153       0.343167256
                        -----------------------------------------
Magnitude (a.u.)       :      0.820157527
Magnitude (Debye)      :      2.084674762



--------------------
Rotational spectrum 
--------------------
 
Rotational constants in cm-1:             0.011494             0.004554             0.003643 
Rotational constants in MHz :           344.573277           136.512008           109.208584 

Dipole components along the rotational axes: 
x,y,z [a.u.] :    -0.710205     0.009181     0.410101 
x,y,z [Debye]:    -1.805199     0.023336     1.042393 

 

Dipole moment calculation done in   0.0 sec 

Maximum memory used throughout the entire PROP-calculation: 54.7 MB

--------------------------------
SUGGESTED CITATIONS FOR THIS RUN
--------------------------------

Below you find a list of papers that are relevant to this ORCA run
We neither can nor want to force you to cite these papers, but we appreciate if you do
You receive ORCA, which is the product of decades of hard work by many enthusiastic individuals, for free
The only thing we kindly ask in return is that you cite our papers,
We deeply appreciate it, if you show your appreciation for ORCA by not just citing the generic ORCA reference.

Please note that relegating all ORCA citations to the supporting information does *not* help us.
SI sections are not indexed - citations you put there will not count into any citation statistics
But we need these citations in order to attract the funding resources that allow us to do what we are doing

Therefore, if you are a happy ORCA user, please consider citing a few of the papers listed below in the main body of your paper

In addition to the list printed below, the program has created the file data/single_point_P_M06-2x/69773/69773.bibtex that contains the list in bibtex format
You can import this file easily into all common literature databanks and citation aid programs


List of essential papers. We consider these as the minimum necessary citations

  1. Neese,F.
     Software update: the ORCA program system, version 5.0
     WIRES Comput. Molec. Sci., 2022 12(1)e1606
     doi.org/10.1002/wcms.1606

List of papers to cite with high priority. The work reported in these papers was absolutely
necessary for this run to complete.
Our perspective: the developers of density functionals and basis sets usually get cited in chemistry papers
Good! But without the algorithms to do something with them, the functionals or basis sets would not do anything.
Hence, in our opinion, the algorithm design and method developments papers are equally worthy of getting cited

  1. Neese,F.
     An improvement of the resolution of the identity approximation for the formation of the Coulomb matrix
     J. Comp. Chem., 2003 24(14)1740-1747
     doi.org/10.1002/jcc.10318
  2. Neese,F.; Wennmohs,F.; Hansen,A.; Becker,U.
     Efficient, approximate and parallel Hartree-Fock and hybrid DFT calculations. A 'chain-of-spheres' algorithm for the Hartree-Fock exchange
     Chem. Phys., 2009 356(1-3)98-109
     doi.org/10.1016/j.chemphys.2008.10.036
  3. Helmich-Paris,B.; de Souza,B.; Neese,F.; Izsák,R.
     An improved chain of spheres for exchange algorithm
     J. Chem. Phys., 2021 155 104109
     doi.org/doi: 10.1063/5.0058766.
  4. Neese,F.
     The SHARK Integral Generation and Digestion System
     J. Comp. Chem., 2022  1-16
     doi.org/10.1002/jcc.26942
  5. Grimme,S.; Antony,J.; Ehrlich,S.; Krieg,H.
     A consistent and accurate ab initio parametrization of density functional dispersion correction (DFT-D) for the 94 elements H-Pu
     J. Chem. Phys., 2010 132 154104-XXXX
     doi.org/10.1063/1.3382344

List of suggested additional citations. These are papers that are important in the 'surrounding' of 
of this run, or papers that preceded the highly important papers. If you like your results we are grateful for a citation.

  1. Izsak,R.; Neese,F.
     An overlap fitted chain of spheres exchange method
     J. Chem. Phys., 2011 135 144105
     doi.org/10.1063/1.3646921
  2. Izsak,R.; Hansen,A.; Neese,F.
     The resolution of identity and chain of spheres approximations for the LPNO-CCSD singles Fock term
     Molec. Phys., 2012 110 2413-2417
     doi.org/10.1080/00268976.2012.687466
  3. Neese,F.
     The ORCA program system
     WIRES Comput. Molec. Sci., 2012 2(1)73-78
     doi.org/10.1002/wcms.81
  4. Izsak,R.; Neese,F.; Klopper,W.
     Robust fitting techniques in the chain of spheres approximation to the Fock exchange: The role of the complementary space
     J. Chem. Phys., 2013 139 
     doi.org/10.1063/1.4819264
  5. Neese,F.
     Software update: the ORCA program system, version 4.0
     WIRES Comput. Molec. Sci., 2018 8(1)1-6
     doi.org/10.1002/wcms.1327
  6. Neese,F.; Wennmohs,F.; Becker,U.; Riplinger,C.
     The ORCA quantum chemistry program package
     J. Chem. Phys., 2020 152 Art. No. L224108
     doi.org/10.1063/5.0004608

List of optional additional citations

  1. Neese,F.
     Approximate second-order SCF convergence for spin unrestricted wavefunctions
     Chem. Phys. Lett., 2000 325(1-3)93-98
     doi.org/10.1016/s0009-2614(00)00662-x

Timings for individual modules:

Sum of individual times          ...      135.946 sec (=   2.266 min)
Startup calculation              ...        4.114 sec (=   0.069 min)   3.0 %
SCF iterations                   ...      131.542 sec (=   2.192 min)  96.8 %
Property calculations            ...        0.290 sec (=   0.005 min)   0.2 %
                             ****ORCA TERMINATED NORMALLY****
TOTAL RUN TIME: 0 days 0 hours 2 minutes 16 seconds 182 msec
