
                                 *****************
                                 * O   R   C   A *
                                 *****************

                                            #,                                       
                                            ###                                      
                                            ####                                     
                                            #####                                    
                                            ######                                   
                                           ########,                                 
                                     ,,################,,,,,                         
                               ,,#################################,,                 
                          ,,##########################################,,             
                       ,#########################################, ''#####,          
                    ,#############################################,,   '####,        
                  ,##################################################,,,,####,       
                ,###########''''           ''''###############################       
              ,#####''   ,,,,##########,,,,          '''####'''          '####       
            ,##' ,,,,###########################,,,                        '##       
           ' ,,###''''                  '''############,,,                           
         ,,##''                                '''############,,,,        ,,,,,,###''
      ,#''                                            '''#######################'''  
     '                                                          ''''####''''         
             ,#######,   #######,   ,#######,      ##                                
            ,#'     '#,  ##    ##  ,#'     '#,    #''#        ,####,   ,####,        
            ##       ##  ##   ,#'  ##            #'  '#       #'       #'  '#        
            ##       ##  #######   ##           ,######,      #####,   #    #        
            '#,     ,#'  ##    ##  '#,     ,#' ,#      #,     #,   #   #,  ,#        
             '#######'   ##     ##  '#######'  #'      '#     '####' # '####'        



                #########################################################
                #                        -***-                          #
                #          Department of theory and spectroscopy        #
                #                                                       #
                #                      Frank Neese                      #
                #                                                       #
                #     Directorship, Architecture, Infrastructure        #
                #                    SHARK, DRIVERS                     #
                #        Core code/Algorithms in most modules           #
                #                                                       #
                #        Max Planck Institute fuer Kohlenforschung      #
                #                Kaiser Wilhelm Platz 1                 #
                #                 D-45470 Muelheim/Ruhr                 #
                #                      Germany                          #
                #                                                       #
                #                  All rights reserved                  #
                #                        -***-                          #
                #########################################################


                         Program Version 6.0.0  -   RELEASE   -


 With contributions from (in alphabetic order):
   Daniel Aravena         : Magnetic Suceptibility
   Michael Atanasov       : Ab Initio Ligand Field Theory (pilot matlab implementation)
   Alexander A. Auer      : GIAO ZORA, VPT2 properties, NMR spectrum
   Ute Becker             : All parallelization in ORCA, NUMFREQ, NUMCALC
   Giovanni Bistoni       : ED, misc. LED, open-shell LED, HFLD
   Martin Brehm           : Molecular dynamics
   Dmytro Bykov           : pre 5.0 version of the SCF Hessian
   Marcos Casanova-Páez   : Triplet and SCS-CIS(D). UHF-(DLPNO)-IP/EA/STEOM-CCSD. UHF-CVS-IP/STEOM-CCSD
   Vijay G. Chilkuri      : MRCI spin determinant printing, contributions to CSF-ICE
   Pauline Colinet        : FMM embedding
   Dipayan Datta          : RHF DLPNO-CCSD density
   Achintya Kumar Dutta   : EOM-CC, STEOM-CC
   Nicolas Foglia         : Exact transition moments, OPA infrastructure, MCD improvements
   Dmitry Ganyushin       : Spin-Orbit,Spin-Spin,Magnetic field MRCI
   Miquel Garcia          : C-PCM and meta-GGA Hessian, CCSD/C-PCM, Gaussian charge scheme
   Tiago L. C. Gouveia    : GS-ROHF, GS-ROCIS
   Yang Guo               : DLPNO-NEVPT2, F12-NEVPT2, CIM, IAO-localization
   Andreas Hansen         : Spin unrestricted coupled pair/coupled cluster methods
   Ingolf Harden          : AUTO-CI MPn and infrastructure 
   Benjamin Helmich-Paris : MC-RPA, TRAH-(SCF,CASSCF), AVAS, COSX integrals, SCF dyn. polar.
   Lee Huntington         : MR-EOM, pCC
   Robert Izsak           : Overlap fitted RIJCOSX, COSX-SCS-MP3, EOM
   Riya Kayal             : Wick's Theorem for AUTO-CI, AUTO-CI UHF-CCSDT
   Emily Kempfer          : AUTO-CI, RHF CISDT and CCSDT
   Christian Kollmar      : KDIIS, OOCD, Brueckner-CCSD(T), CCSD density, CASPT2, CASPT2-K, improved NEVPT2
   Axel Koslowski         : Symmetry handling
   Simone Kossmann        : Meta GGA functionals, TD-DFT gradient, OOMP2, (MP2 Hessian; deprecated post 5.0)
   Lucas Lang             : DCDCAS
   Marvin Lechner         : AUTO-CI (C++ implementation), FIC-MRCC
   Spencer Leger          : CASSCF response
   Dagmar Lenk            : GEPOL surface, SMD, ORCA-2-JSON
   Dimitrios Liakos       : Extrapolation schemes; Compound Job, initial MDCI parallelization
   Dimitrios Manganas     : Further ROCIS development; embedding schemes. LFT, Crystal Embedding
   Dimitrios Pantazis     : SARC Basis sets
   Anastasios Papadopoulos: AUTO-CI, single reference methods and gradients
   Taras Petrenko         : pre 6.0 DFT Hessian and TD-DFT gradient, (ASA, deprecated), ECA, 1-Electron XAS/XES, NRVS
   Peter Pinski           : DLPNO-MP2, DLPNO-MP2 Gradient
   Christoph Reimann      : Effective Core Potentials
   Marius Retegan         : Local ZFS, SOC
   Christoph Riplinger    : Optimizer, TS searches, QM/MM, DLPNO-CCSD(T), (RO)-DLPNO pert. Triples
   Michael Roemelt        : Original ROCIS implementation
   Masaaki Saitow         : Open-shell DLPNO-CCSD energy and density
   Barbara Sandhoefer     : DKH picture change effects
   Kantharuban Sivalingam : CASSCF convergence/infrastructure, NEVPT2 and variants, FIC-MRCI
   Bernardo de Souza      : ESD, SOC TD-DFT
   Georgi Stoychev        : AutoAux, RI-MP2 NMR, DLPNO-MP2 response, X2C
   Van Anh Tran           : RI-MP2 g-tensors
   Willem Van den Heuvel  : Paramagnetic NMR
   Zikuan Wang            : NOTCH, Electric field optimization 
   Frank Wennmohs         : Technical directorship and infrastructure
   Hang Xu                : AUTO-CI-Response properties 


 We gratefully acknowledge several colleagues who have allowed us to
 interface, adapt or use parts of their codes:
   Stefan Grimme, W. Hujo, H. Kruse, P. Pracht,  : VdW corrections, initial TS optimization,
                  C. Bannwarth, S. Ehlert,         DFT functionals, gCP, sTDA/sTD-DF
                  L. Wittmann, M. Mueller
   Ed Valeev, F. Pavosevic, A. Kumar             : LibInt (2-el integral package), F12 methods
   Garnet Chan, S. Sharma, J. Yang, R. Olivares  : DMRG
   Ulf Ekstrom                                   : XCFun DFT Library
   Mihaly Kallay                                 : mrcc  (arbitrary order and MRCC methods)
   Frank Weinhold                                : gennbo (NPA and NBO analysis)
   Simon Mueller                                 : openCOSMO-RS
   Christopher J. Cramer and Donald G. Truhlar   : smd solvation model
   Lars Goerigk                                  : TD-DFT with DH, B97 family of functionals
   V. Asgeirsson, H. Jonsson                     : NEB implementation
   FAccTs GmbH                                   : IRC, NEB, NEB-TS, DLPNO-Multilevel, CI-OPT
                                                   MM, QMMM, 2- and 3-layer-ONIOM, Crystal-QMMM,
                                                   LR-CPCM, SF, NACMEs, symmetry and pop. for TD-DFT,
                                                   nearIR, NL-DFT gradient (VV10), updates on ESD,
                                                   ML-optimized integration grids, MBIS, APM,
                                                   GOAT, DOCKER, SOLVATOR, interface openCOSMO-RS
   S Lehtola, MJT Oliveira, MAL Marques          : LibXC Library
   Liviu Ungur et al                             : ANISO software


 Your calculation uses the libint2 library for the computation of 2-el integrals
 For citations please refer to: http://libint.valeyev.net

 Your ORCA version has been built with support for libXC version: 6.2.2
 For citations please refer to: https://libxc.gitlab.io

 This ORCA versions uses:
   CBLAS   interface :  Fast vector & matrix operations
   LAPACKE interface :  Fast linear algebra routines
   Shared memory     :  Shared parallel matrices


Your calculation utilizes the atom-pairwise dispersion correction
with the Becke-Johnson damping scheme (D3BJ)


Warning: RI is on but no J-basis has been assigned. Assigning Def2/J (nothing to worry about!)
================================================================================

----- Orbital basis set information -----
Your calculation utilizes the basis: def2-SVP
   F. Weigend and R. Ahlrichs, Phys. Chem. Chem. Phys. 7, 3297 (2005).

----- AuxJ basis set information -----
Your calculation utilizes the auxiliary basis: def2/J
   F. Weigend, Phys. Chem. Chem. Phys. 8, 1057 (2006).

================================================================================
                                        WARNINGS
                       Please study these warnings very carefully!
================================================================================


WARNING: Geometry Optimization
  ===> : Switching off AutoStart
         For restart on a previous wavefunction, please use MOREAD

================================================================================
                                       INPUT FILE
================================================================================
NAME = data/geom_opt_P_BP86/70071/70071.inp
|  1> ! RI BP86 def2-SVP D3BJ TIGHTSCF Opt
|  2> %pal
|  3> nprocs 6
|  4> end
|  5> 
|  6> * xyz 0 1
|  7> C      4.892537   -3.607543   -0.995109
|  8> O      3.976134   -3.931013    0.042970
|  9> C      3.093354   -2.955299    0.413077
| 10> C      2.237990   -3.304647    1.456809
| 11> C      1.285429   -2.397799    1.933079
| 12> C      1.161046   -1.116490    1.371974
| 13> C      2.028661   -0.778122    0.324110
| 14> C      2.984952   -1.687151   -0.152143
| 15> P     -0.108401   -0.003061    2.056364
| 16> C     -1.642613   -0.508507    1.213556
| 17> C     -1.691982   -1.373650    0.111577
| 18> C     -2.911772   -1.721291   -0.487504
| 19> C     -4.109372   -1.210139    0.006361
| 20> C     -4.075218   -0.349894    1.102661
| 21> C     -2.859161   -0.004386    1.701335
| 22> O     -5.359306   -1.466358   -0.483858
| 23> C     -5.446538   -2.366793   -1.580964
| 24> C      0.284673    1.619420    1.326530
| 25> C      1.282319    2.393860    1.940537
| 26> C      1.635722    3.648761    1.433671
| 27> C      1.000279    4.164988    0.305494
| 28> C      0.006452    3.410755   -0.313267
| 29> C     -0.346991    2.151541    0.193783
| 30> O      1.438601    5.398940   -0.086342
| 31> C      0.794787    5.981163   -1.212648
| 32> H      4.367848   -3.398418   -1.933199
| 33> H      5.537325   -2.770687   -0.706855
| 34> H      5.532818   -4.479597   -1.159441
| 35> H      2.312400   -4.291229    1.907719
| 36> H      0.637075   -2.709573    2.750260
| 37> H      1.980330    0.198096   -0.152017
| 38> H      3.626490   -1.366249   -0.966060
| 39> H     -0.784028   -1.795376   -0.312458
| 40> H     -2.883863   -2.394328   -1.337948
| 41> H     -5.002937    0.055767    1.498864
| 42> H     -2.876071    0.669811    2.556041
| 43> H     -6.503962   -2.475838   -1.840588
| 44> H     -5.066210   -3.357483   -1.310683
| 45> H     -4.927460   -1.969385   -2.459405
| 46> H      1.802331    2.027275    2.824026
| 47> H      2.412839    4.227473    1.927010
| 48> H     -0.518368    3.767038   -1.193403
| 49> H     -1.125898    1.599393   -0.326290
| 50> H     -0.272844    6.133770   -1.022781
| 51> H      0.954822    5.379042   -2.113136
| 52> H      1.245783    6.963214   -1.384756
| 53> **                         ****END OF INPUT****
================================================================================

                       *****************************
                       * Geometry Optimization Run *
                       *****************************

Geometry optimization settings:
Update method            Update   .... BFGS
Choice of coordinates    CoordSys .... (2022) Redundant Internals
Initial Hessian          InHess   .... Almloef's Model
Max. no of cycles        MaxIter  .... 138

Convergence Tolerances:
Energy Change            TolE     ....  5.0000e-06 Eh
Max. Gradient            TolMAXG  ....  3.0000e-04 Eh/bohr
RMS Gradient             TolRMSG  ....  1.0000e-04 Eh/bohr
Max. Displacement        TolMAXD  ....  4.0000e-03 bohr
RMS Displacement         TolRMSD  ....  2.0000e-03 bohr
Strict Convergence                .... False

------------------------------------------------------------------------------
                        ORCA OPTIMIZATION COORDINATE SETUP
------------------------------------------------------------------------------

The optimization will be done in redundant internal coordinates (2022)
Making redundant internal coordinates   ...  (2022 redundants) done
Evaluating the initial hessian          ...  (Almloef) done
Evaluating the coordinates              ...  done
Calculating the B-matrix                .... done
Calculating the G-matrix                .... done
Diagonalizing the G-matrix              .... done
Small eigenvalue found = 1.975e-03
Small eigenvalue found = 1.975e-03
Small eigenvalue found = 3.593e-03
Small eigenvalue found = 1.579e-02
Small eigenvalue found = 1.579e-02
Small eigenvalue found = 1.948e-02
Small eigenvalue found = 2.505e-02
Small eigenvalue found = 2.506e-02
Small eigenvalue found = 2.739e-02
The first mode is                       ....   93
The number of degrees of freedom        ....  132

    -----------------------------------------------------------------
                    Redundant Internal Coordinates


    -----------------------------------------------------------------
         Definition                    Initial Value    Approx d2E/dq
    -----------------------------------------------------------------
      1. B(O   1,C   0)                  1.4220         0.497564   
      2. B(C   2,O   1)                  1.3669         0.609255   
      3. B(C   3,C   2)                  1.3939         0.615819   
      4. B(C   4,C   3)                  1.3988         0.604971   
      5. B(C   5,C   4)                  1.4043         0.592818   
      6. B(C   6,C   5)                  1.4019         0.598115   
      7. B(C   7,C   2)                  1.3926         0.618784   
      8. B(C   7,C   6)                  1.4027         0.596257   
      9. B(P   8,C   5)                  1.8220         0.429573   
     10. B(C   9,P   8)                  1.8220         0.429574   
     11. B(C  10,C   9)                  1.4019         0.598115   
     12. B(C  11,C  10)                  1.4027         0.596259   
     13. B(C  12,C  11)                  1.3926         0.618784   
     14. B(C  13,C  12)                  1.3939         0.615824   
     15. B(C  14,C   9)                  1.4043         0.592824   
     16. B(C  14,C  13)                  1.3988         0.604969   
     17. B(O  15,C  12)                  1.3669         0.609255   
     18. B(C  16,O  15)                  1.4220         0.497565   
     19. B(C  17,P   8)                  1.8220         0.429573   
     20. B(C  18,C  17)                  1.4043         0.592821   
     21. B(C  19,C  18)                  1.3988         0.604967   
     22. B(C  20,C  19)                  1.3939         0.615824   
     23. B(C  21,C  20)                  1.3926         0.618784   
     24. B(C  22,C  21)                  1.4027         0.596258   
     25. B(C  22,C  17)                  1.4019         0.598115   
     26. B(O  23,C  20)                  1.3669         0.609253   
     27. B(C  24,O  23)                  1.4220         0.497557   
     28. B(H  25,C   0)                  1.0950         0.353534   
     29. B(H  26,C   0)                  1.0951         0.353460   
     30. B(H  27,C   0)                  1.0943         0.354486   
     31. B(H  28,C   3)                  1.0873         0.363702   
     32. B(H  29,C   4)                  1.0887         0.361773   
     33. B(H  30,C   6)                  1.0872         0.363804   
     34. B(H  31,C   7)                  1.0849         0.366909   
     35. B(H  32,C  10)                  1.0872         0.363802   
     36. B(H  33,C  11)                  1.0849         0.366907   
     37. B(H  34,C  13)                  1.0873         0.363702   
     38. B(H  35,C  14)                  1.0887         0.361774   
     39. B(H  36,C  16)                  1.0943         0.354487   
     40. B(H  37,C  16)                  1.0951         0.353461   
     41. B(H  38,C  16)                  1.0950         0.353541   
     42. B(H  39,C  18)                  1.0887         0.361774   
     43. B(H  40,C  19)                  1.0873         0.363702   
     44. B(H  41,C  21)                  1.0849         0.366907   
     45. B(H  42,C  22)                  1.0872         0.363801   
     46. B(H  43,C  24)                  1.0951         0.353457   
     47. B(H  44,C  24)                  1.0950         0.353537   
     48. B(H  45,C  24)                  1.0943         0.354486   
     49. A(H  25,C   0,H  27)          107.6926         0.289287   
     50. A(O   1,C   0,H  26)          111.1702         0.336977   
     51. A(O   1,C   0,H  27)          107.7840         0.337140   
     52. A(O   1,C   0,H  25)          111.1034         0.336989   
     53. A(H  25,C   0,H  26)          111.2045         0.289156   
     54. A(H  26,C   0,H  27)          107.6991         0.289277   
     55. A(C   0,O   1,C   2)          116.8404         0.410649   
     56. A(C   3,C   2,C   7)          118.9698         0.433385   
     57. A(O   1,C   2,C   3)          114.8443         0.429353   
     58. A(O   1,C   2,C   7)          126.1858         0.429724   
     59. A(C   4,C   3,H  28)          119.5818         0.352039   
     60. A(C   2,C   3,C   4)          120.6869         0.431630   
     61. A(C   2,C   3,H  28)          119.7312         0.353099   
     62. A(C   5,C   4,H  29)          120.5598         0.350519   
     63. A(C   3,C   4,C   5)          121.0512         0.428690   
     64. A(C   3,C   4,H  29)          118.3886         0.351723   
     65. A(C   4,C   5,C   6)          117.6501         0.427815   
     66. A(C   4,C   5,P   8)          117.9832         0.430069   
     67. A(C   6,C   5,P   8)          124.3661         0.430756   
     68. A(C   5,C   6,H  30)          121.1015         0.351378   
     69. A(C   7,C   6,H  30)          117.6134         0.351193   
     70. A(C   5,C   6,C   7)          121.2844         0.428259   
     71. A(C   2,C   7,H  31)          121.8575         0.353913   
     72. A(C   6,C   7,H  31)          117.7856         0.351698   
     73. A(C   2,C   7,C   6)          120.3569         0.430878   
     74. A(C   9,P   8,C  17)          104.0879         0.433030   
     75. A(C   5,P   8,C   9)          104.0877         0.433030   
     76. A(C   5,P   8,C  17)          104.0881         0.433030   
     77. A(P   8,C   9,C  10)          124.3659         0.430756   
     78. A(C  10,C   9,C  14)          117.6502         0.427816   
     79. A(P   8,C   9,C  14)          117.9833         0.430070   
     80. A(C  11,C  10,H  32)          117.6134         0.351193   
     81. A(C   9,C  10,H  32)          121.1015         0.351378   
     82. A(C   9,C  10,C  11)          121.2844         0.428259   
     83. A(C  12,C  11,H  33)          121.8576         0.353912   
     84. A(C  10,C  11,H  33)          117.7855         0.351698   
     85. A(C  10,C  11,C  12)          120.3568         0.430878   
     86. A(C  13,C  12,O  15)          114.8444         0.429354   
     87. A(C  11,C  12,O  15)          126.1857         0.429724   
     88. A(C  11,C  12,C  13)          118.9698         0.433385   
     89. A(C  14,C  13,H  34)          119.5817         0.352039   
     90. A(C  12,C  13,H  34)          119.7311         0.353100   
     91. A(C  12,C  13,C  14)          120.6870         0.431630   
     92. A(C  13,C  14,H  35)          118.3888         0.351723   
     93. A(C   9,C  14,H  35)          120.5598         0.350519   
     94. A(C   9,C  14,C  13)          121.0511         0.428691   
     95. A(C  12,O  15,C  16)          116.8402         0.410649   
     96. A(O  15,C  16,H  38)          111.1032         0.336990   
     97. A(O  15,C  16,H  37)          111.1700         0.336977   
     98. A(O  15,C  16,H  36)          107.7841         0.337140   
     99. A(H  36,C  16,H  37)          107.6993         0.289278   
    100. A(H  37,C  16,H  38)          111.2046         0.289157   
    101. A(H  36,C  16,H  38)          107.6926         0.289288   
    102. A(C  18,C  17,C  22)          117.6500         0.427816   
    103. A(P   8,C  17,C  22)          124.3659         0.430756   
    104. A(P   8,C  17,C  18)          117.9834         0.430069   
    105. A(C  17,C  18,C  19)          121.0512         0.428690   
    106. A(C  19,C  18,H  39)          118.3887         0.351722   
    107. A(C  17,C  18,H  39)          120.5598         0.350519   
    108. A(C  18,C  19,C  20)          120.6870         0.431630   
    109. A(C  20,C  19,H  40)          119.7311         0.353100   
    110. A(C  18,C  19,H  40)          119.5817         0.352039   
    111. A(C  19,C  20,C  21)          118.9698         0.433386   
    112. A(C  21,C  20,O  23)          126.1857         0.429723   
    113. A(C  19,C  20,O  23)          114.8445         0.429354   
    114. A(C  22,C  21,H  41)          117.7855         0.351698   
    115. A(C  20,C  21,H  41)          121.8577         0.353912   
    116. A(C  20,C  21,C  22)          120.3569         0.430878   
    117. A(C  21,C  22,H  42)          117.6132         0.351193   
    118. A(C  17,C  22,H  42)          121.1016         0.351378   
    119. A(C  17,C  22,C  21)          121.2845         0.428259   
    120. A(C  20,O  23,C  24)          116.8401         0.410648   
    121. A(H  44,C  24,H  45)          107.6926         0.289287   
    122. A(H  43,C  24,H  45)          107.6991         0.289277   
    123. A(O  23,C  24,H  45)          107.7840         0.337139   
    124. A(H  43,C  24,H  44)          111.2047         0.289156   
    125. A(O  23,C  24,H  44)          111.1031         0.336989   
    126. A(O  23,C  24,H  43)          111.1703         0.336976   
    127. D(C   2,O   1,C   0,H  25)    -63.1175         0.019566   
    128. D(C   2,O   1,C   0,H  26)     61.3001         0.019566   
    129. D(C   2,O   1,C   0,H  27)    179.1142         0.019566   
    130. D(C   7,C   2,O   1,C   0)      1.6919         0.027166   
    131. D(C   3,C   2,O   1,C   0)   -178.4102         0.027166   
    132. D(C   4,C   3,C   2,O   1)   -179.9891         0.026221   
    133. D(H  28,C   3,C   2,O   1)      0.1435         0.026221   
    134. D(H  28,C   3,C   2,C   7)   -179.9506         0.026221   
    135. D(C   4,C   3,C   2,C   7)     -0.0833         0.026221   
    136. D(H  29,C   4,C   3,C   2)   -179.9534         0.025253   
    137. D(C   5,C   4,C   3,H  28)   -179.8919         0.025253   
    138. D(H  29,C   4,C   3,H  28)     -0.0859         0.025253   
    139. D(C   5,C   4,C   3,C   2)      0.2406         0.025253   
    140. D(C   6,C   5,C   4,C   3)     -0.3039         0.024196   
    141. D(C   6,C   5,C   4,H  29)    179.8943         0.024196   
    142. D(P   8,C   5,C   4,C   3)    179.9697         0.024196   
    143. D(P   8,C   5,C   4,H  29)      0.1680         0.024196   
    144. D(H  30,C   6,C   5,P   8)     -0.3836         0.024654   
    145. D(C   7,C   6,C   5,C   4)      0.2223         0.024654   
    146. D(C   7,C   6,C   5,P   8)    179.9295         0.024654   
    147. D(H  30,C   6,C   5,C   4)    179.9092         0.024654   
    148. D(H  31,C   7,C   6,H  30)      0.2368         0.024493   
    149. D(H  31,C   7,C   6,C   5)    179.9342         0.024493   
    150. D(C   2,C   7,C   6,H  30)   -179.7723         0.024493   
    151. D(C   2,C   7,C   6,C   5)     -0.0749         0.024493   
    152. D(H  31,C   7,C   2,C   3)    179.9920         0.026489   
    153. D(H  31,C   7,C   2,O   1)     -0.1139         0.026489   
    154. D(C   6,C   7,C   2,C   3)      0.0015         0.026489   
    155. D(C   6,C   7,C   2,O   1)    179.8956         0.026489   
    156. D(C   9,P   8,C   5,C   6)     97.5318         0.003798   
    157. D(C   9,P   8,C   5,C   4)    -82.7619         0.003798   
    158. D(C  17,P   8,C   5,C   6)    -11.2352         0.003798   
    159. D(C  17,P   8,C   5,C   4)    168.4711         0.003798   
    160. D(C  14,C   9,P   8,C  17)    -82.7660         0.003798   
    161. D(C  14,C   9,P   8,C   5)    168.4668         0.003798   
    162. D(C  10,C   9,P   8,C  17)     97.5271         0.003798   
    163. D(C  10,C   9,P   8,C   5)    -11.2401         0.003798   
    164. D(H  32,C  10,C   9,C  14)    179.9096         0.024654   
    165. D(H  32,C  10,C   9,P   8)     -0.3826         0.024654   
    166. D(C  11,C  10,C   9,C  14)      0.2229         0.024654   
    167. D(C  11,C  10,C   9,P   8)    179.9306         0.024654   
    168. D(H  33,C  11,C  10,H  32)      0.2364         0.024493   
    169. D(H  33,C  11,C  10,C   9)    179.9337         0.024493   
    170. D(C  12,C  11,C  10,H  32)   -179.7724         0.024493   
    171. D(C  12,C  11,C  10,C   9)     -0.0750         0.024493   
    172. D(O  15,C  12,C  11,H  33)     -0.1142         0.026489   
    173. D(O  15,C  12,C  11,C  10)    179.8949         0.026489   
    174. D(C  13,C  12,C  11,C  10)      0.0011         0.026489   
    175. D(C  13,C  12,C  11,H  33)    179.9919         0.026489   
    176. D(H  34,C  13,C  12,O  15)      0.1439         0.026221   
    177. D(H  34,C  13,C  12,C  11)   -179.9505         0.026221   
    178. D(C  14,C  13,C  12,O  15)   -179.9884         0.026221   
    179. D(C  14,C  13,C  12,C  11)     -0.0829         0.026221   
    180. D(H  35,C  14,C  13,H  34)     -0.0857         0.025253   
    181. D(H  35,C  14,C  13,C  12)   -179.9535         0.025253   
    182. D(C   9,C  14,C  13,H  34)   -179.8916         0.025253   
    183. D(C   9,C  14,C  13,C  12)      0.2406         0.025253   
    184. D(H  35,C  14,C   9,C  10)    179.8939         0.024197   
    185. D(H  35,C  14,C   9,P   8)      0.1671         0.024197   
    186. D(C  13,C  14,C   9,C  10)     -0.3044         0.024197   
    187. D(C  13,C  14,C   9,P   8)    179.9688         0.024197   
    188. D(C  16,O  15,C  12,C  13)   -178.4062         0.027166   
    189. D(C  16,O  15,C  12,C  11)      1.6962         0.027166   
    190. D(H  38,C  16,O  15,C  12)    -63.1192         0.019566   
    191. D(H  37,C  16,O  15,C  12)     61.2984         0.019566   
    192. D(H  36,C  16,O  15,C  12)    179.1126         0.019566   
    193. D(C  22,C  17,P   8,C   9)    -11.2320         0.003798   
    194. D(C  22,C  17,P   8,C   5)     97.5348         0.003798   
    195. D(C  18,C  17,P   8,C   9)    168.4731         0.003798   
    196. D(C  18,C  17,P   8,C   5)    -82.7601         0.003798   
    197. D(H  39,C  18,C  17,C  22)    179.8936         0.024197   
    198. D(H  39,C  18,C  17,P   8)      0.1685         0.024197   
    199. D(C  19,C  18,C  17,C  22)     -0.3040         0.024197   
    200. D(C  19,C  18,C  17,P   8)    179.9709         0.024197   
    201. D(H  40,C  19,C  18,H  39)     -0.0853         0.025253   
    202. D(H  40,C  19,C  18,C  17)   -179.8919         0.025253   
    203. D(C  20,C  19,C  18,H  39)   -179.9529         0.025253   
    204. D(C  20,C  19,C  18,C  17)      0.2405         0.025253   
    205. D(O  23,C  20,C  19,H  40)      0.1433         0.026221   
    206. D(O  23,C  20,C  19,C  18)   -179.9892         0.026221   
    207. D(C  21,C  20,C  19,H  40)   -179.9507         0.026221   
    208. D(C  21,C  20,C  19,C  18)     -0.0832         0.026221   
    209. D(H  41,C  21,C  20,O  23)     -0.1140         0.026489   
    210. D(H  41,C  21,C  20,C  19)    179.9917         0.026489   
    211. D(C  22,C  21,C  20,O  23)    179.8959         0.026489   
    212. D(C  22,C  21,C  20,C  19)      0.0016         0.026489   
    213. D(H  42,C  22,C  21,H  41)      0.2361         0.024493   
    214. D(H  42,C  22,C  21,C  20)   -179.7733         0.024493   
    215. D(C  17,C  22,C  21,H  41)    179.9342         0.024493   
    216. D(C  17,C  22,C  21,C  20)     -0.0752         0.024493   
    217. D(H  42,C  22,C  17,C  18)    179.9102         0.024654   
    218. D(H  42,C  22,C  17,P   8)     -0.3838         0.024654   
    219. D(C  21,C  22,C  17,C  18)      0.2226         0.024654   
    220. D(C  21,C  22,C  17,P   8)    179.9286         0.024654   
    221. D(C  24,O  23,C  20,C  21)      1.6932         0.027166   
    222. D(C  24,O  23,C  20,C  19)   -178.4087         0.027166   
    223. D(H  45,C  24,O  23,C  20)    179.1120         0.019566   
    224. D(H  44,C  24,O  23,C  20)    -63.1199         0.019566   
    225. D(H  43,C  24,O  23,C  20)     61.2980         0.019566   
    -----------------------------------------------------------------

Number of atoms                         .... 46
Number of degrees of freedom            .... 225


         *************************************************************
         *                GEOMETRY OPTIMIZATION CYCLE   1            *
         *************************************************************
---------------------------------
CARTESIAN COORDINATES (ANGSTROEM)
---------------------------------
  C      4.892537   -3.607543   -0.995109
  O      3.976134   -3.931013    0.042970
  C      3.093354   -2.955299    0.413077
  C      2.237990   -3.304647    1.456809
  C      1.285429   -2.397799    1.933079
  C      1.161046   -1.116490    1.371974
  C      2.028661   -0.778122    0.324110
  C      2.984952   -1.687151   -0.152143
  P     -0.108401   -0.003061    2.056364
  C     -1.642613   -0.508507    1.213556
  C     -1.691982   -1.373650    0.111577
  C     -2.911772   -1.721291   -0.487504
  C     -4.109372   -1.210139    0.006361
  C     -4.075218   -0.349894    1.102661
  C     -2.859161   -0.004386    1.701335
  O     -5.359306   -1.466358   -0.483858
  C     -5.446538   -2.366793   -1.580964
  C      0.284673    1.619420    1.326530
  C      1.282319    2.393860    1.940537
  C      1.635722    3.648761    1.433671
  C      1.000279    4.164988    0.305494
  C      0.006452    3.410755   -0.313267
  C     -0.346991    2.151541    0.193783
  O      1.438601    5.398940   -0.086342
  C      0.794787    5.981163   -1.212648
  H      4.367848   -3.398418   -1.933199
  H      5.537325   -2.770687   -0.706855
  H      5.532818   -4.479597   -1.159441
  H      2.312400   -4.291229    1.907719
  H      0.637075   -2.709573    2.750260
  H      1.980330    0.198096   -0.152017
  H      3.626490   -1.366249   -0.966060
  H     -0.784028   -1.795376   -0.312458
  H     -2.883863   -2.394328   -1.337948
  H     -5.002937    0.055767    1.498864
  H     -2.876071    0.669811    2.556041
  H     -6.503962   -2.475838   -1.840588
  H     -5.066210   -3.357483   -1.310683
  H     -4.927460   -1.969385   -2.459405
  H      1.802331    2.027275    2.824026
  H      2.412839    4.227473    1.927010
  H     -0.518368    3.767038   -1.193403
  H     -1.125898    1.599393   -0.326290
  H     -0.272844    6.133770   -1.022781
  H      0.954822    5.379042   -2.113136
  H      1.245783    6.963214   -1.384756

----------------------------
CARTESIAN COORDINATES (A.U.)
----------------------------
  NO LB      ZA    FRAG     MASS         X           Y           Z
   0 C     6.0000    0    12.011    9.245555   -6.817268   -1.880483
   1 O     8.0000    0    15.999    7.513804   -7.428538    0.081202
   2 C     6.0000    0    12.011    5.845592   -5.584706    0.780602
   3 C     6.0000    0    12.011    4.229188   -6.244878    2.752970
   4 C     6.0000    0    12.011    2.429109   -4.531183    3.652990
   5 C     6.0000    0    12.011    2.194059   -2.109860    2.592655
   6 C     6.0000    0    12.011    3.833614   -1.470437    0.612479
   7 C     6.0000    0    12.011    5.640742   -3.188253   -0.287509
   8 P    15.0000    0    30.974   -0.204848   -0.005784    3.885965
   9 C     6.0000    0    12.011   -3.104089   -0.960939    2.293288
  10 C     6.0000    0    12.011   -3.197383   -2.595822    0.210850
  11 C     6.0000    0    12.011   -5.502452   -3.252769   -0.921249
  12 C     6.0000    0    12.011   -7.765588   -2.286831    0.012021
  13 C     6.0000    0    12.011   -7.701046   -0.661204    2.083727
  14 C     6.0000    0    12.011   -5.403031   -0.008288    3.215057
  15 O     8.0000    0    15.999  -10.127621   -2.771015   -0.914359
  16 C     6.0000    0    12.011  -10.292465   -4.472591   -2.987589
  17 C     6.0000    0    12.011    0.537954    3.060260    2.506778
  18 C     6.0000    0    12.011    2.423232    4.523740    3.667083
  19 C     6.0000    0    12.011    3.091067    6.895159    2.709246
  20 C     6.0000    0    12.011    1.890253    7.870687    0.577300
  21 C     6.0000    0    12.011    0.012193    6.445393   -0.591989
  22 C     6.0000    0    12.011   -0.655718    4.065823    0.366197
  23 O     8.0000    0    15.999    2.718562   10.202518   -0.163163
  24 C     6.0000    0    12.011    1.501930   11.302760   -2.291573
  25 H     1.0000    0     1.008    8.254037   -6.422079   -3.653217
  26 H     1.0000    0     1.008   10.464028   -5.235840   -1.335762
  27 H     1.0000    0     1.008   10.455511   -8.465212   -2.191026
  28 H     1.0000    0     1.008    4.369803   -8.109248    3.605066
  29 H     1.0000    0     1.008    1.203897   -5.120351    5.197238
  30 H     1.0000    0     1.008    3.742281    0.374347   -0.287270
  31 H     1.0000    0     1.008    6.853073   -2.581836   -1.825589
  32 H     1.0000    0     1.008   -1.481598   -3.392769   -0.590460
  33 H     1.0000    0     1.008   -5.449711   -4.524624   -2.528355
  34 H     1.0000    0     1.008   -9.454181    0.105384    2.832442
  35 H     1.0000    0     1.008   -5.434987    1.265759    4.830217
  36 H     1.0000    0     1.008  -12.290707   -4.678656   -3.478207
  37 H     1.0000    0     1.008   -9.573749   -6.344723   -2.476832
  38 H     1.0000    0     1.008   -9.311550   -3.721598   -4.647602
  39 H     1.0000    0     1.008    3.405912    3.830995    5.336636
  40 H     1.0000    0     1.008    4.559605    7.988766    3.641521
  41 H     1.0000    0     1.008   -0.979574    7.118670   -2.255205
  42 H     1.0000    0     1.008   -2.127639    3.022415   -0.616599
  43 H     1.0000    0     1.008   -0.515600   11.591145   -1.932776
  44 H     1.0000    0     1.008    1.804352   10.164916   -3.993248
  45 H     1.0000    0     1.008    2.354189   13.158567   -2.616810

--------------------------------
INTERNAL COORDINATES (ANGSTROEM)
--------------------------------
 C      0   0   0     0.000000000000     0.00000000     0.00000000
 O      1   0   0     1.421982879486     0.00000000     0.00000000
 C      2   1   0     1.366856806562   116.84035062     0.00000000
 C      3   2   1     1.393939771089   114.84433874   181.58983889
 C      4   3   2     1.398777633051   120.68689483   180.01085512
 C      5   4   3     1.404301500816   121.05123688     0.24060821
 C      6   5   4     1.401880042709   117.65011791   359.69606836
 C      3   2   1     1.392632037513   126.18576117     1.69192285
 P      6   5   4     1.821979554207   117.98315042   179.96974865
 C      9   6   5     1.821978991296   104.08766351   277.23809116
 C     10   9   6     1.401879960999   124.36591304   348.75994476
 C     11  10   9     1.402725901073   121.28443770   179.93063875
 C     12  11  10     1.392632315196   120.35683694   359.92496135
 C     13  12  11     1.393937461202   118.96977982     0.00000000
 C     14  13  12     1.398778382586   120.68699975   359.91714195
 O     13  12  11     1.366856923119   126.18571571   179.89488732
 C     16  13  12     1.421982484521   116.84024608     1.69615523
 C      9   6   5     1.821979536766   104.08813036   168.47112995
 C     18   9   6     1.404300342151   117.98343272   277.23991379
 C     19  18   9     1.398779232819   121.05122341   179.97085252
 C     20  19  18     1.393937396409   120.68697495     0.24047701
 C     21  20  19     1.392632291504   118.96976763   359.91677347
 C     18   9   6     1.401880142361   124.36590964    97.53484337
 O     21  20  19     1.366857404737   114.84450616   180.01078502
 C     24  21  20     1.421986390217   116.84014397   181.59127126
 H      1   2   3     1.095008977336   111.10336605   296.88247941
 H      1   2   3     1.095066161561   111.17015894    61.30014001
 H      1   2   3     1.094277361596   107.78400856   179.11417805
 H      4   3   2     1.087290540253   119.73117307     0.14353165
 H      5   4   3     1.088738133415   118.38864857   180.04660280
 H      7   6   5     1.087214049401   121.10147367   179.90916367
 H      8   3   2     1.084900908810   121.85752763   359.88609951
 H     11  10   9     1.087216154413   121.10147930   359.61740456
 H     12  11  10     1.084902167380   117.78554219   179.93373013
 H     14  13  12     1.087290304882   119.73114173   180.04949005
 H     15  14  13     1.088737750491   118.38878365   180.04645732
 H     17  16  13     1.094276450070   107.78412461   179.11256174
 H     17  16  13     1.095065241273   111.16999544    61.29837945
 H     17  16  13     1.095003963020   111.10315744   296.88081594
 H     19  18   9     1.088737734944   120.55983574     0.16845132
 H     20  19  18     1.087291027993   119.58174447   180.10811850
 H     22  21  20     1.084902293750   121.85766891   179.99174383
 H     23  18   9     1.087216378594   121.10159567   359.61615940
 H     25  24  21     1.095068183402   111.17028829    61.29801652
 H     25  24  21     1.095006638341   111.10308061   296.88010887
 H     25  24  21     1.094277260241   107.78395304   179.11203156

---------------------------
INTERNAL COORDINATES (A.U.)
---------------------------
 C      0   0   0     0.000000000000     0.00000000     0.00000000
 O      1   0   0     2.687158209352     0.00000000     0.00000000
 C      2   1   0     2.582985028688   116.84035062     0.00000000
 C      3   2   1     2.634164414539   114.84433874   181.58983889
 C      4   3   2     2.643306648722   120.68689483   180.01085512
 C      5   4   3     2.653745245997   121.05123688     0.24060821
 C      6   5   4     2.649169353329   117.65011791   359.69606836
 C      3   2   1     2.631693156225   126.18576117     1.69192285
 P      6   5   4     3.443042379056   117.98315042   179.96974865
 C      9   6   5     3.443041315308   104.08766351   277.23809116
 C     10   9   6     2.649169198921   124.36591304   348.75994476
 C     11  10   9     2.650767793987   121.28443770   179.93063875
 C     12  11  10     2.631693680970   120.35683694   359.92496135
 C     13  12  11     2.634160049484   118.96977982     0.00000000
 C     14  13  12     2.643308065136   120.68699975   359.91714195
 O     13  12  11     2.582985248949   126.18571571   179.89488732
 C     16  13  12     2.687157462978   116.84024608     1.69615523
 C      9   6   5     3.443042346096   104.08813036   168.47112995
 C     18   9   6     2.653743056437   117.98343272   277.23991379
 C     19  18   9     2.643309671845   121.05122341   179.97085252
 C     20  19  18     2.634159927044   120.68697495     0.24047701
 C     21  20  19     2.631693636197   118.96976763   359.91677347
 C     18   9   6     2.649169541645   124.36590964    97.53484337
 O     21  20  19     2.582986159075   114.84450616   180.01078502
 C     24  21  20     2.687164843672   116.84014397   181.59127126
 H      1   2   3     2.069267081350   111.10336605   296.88247941
 H      1   2   3     2.069375143875   111.17015894    61.30014001
 H      1   2   3     2.067884527966   107.78400856   179.11417805
 H      4   3   2     2.054681349082   119.73117307     0.14353165
 H      5   4   3     2.057416903712   118.38864857   180.04660280
 H      7   6   5     2.054536802319   121.10147367   179.90916367
 H      8   3   2     2.050165600093   121.85752763   359.88609951
 H     11  10   9     2.054540780216   121.10147930   359.61740456
 H     12  11  10     2.050167978446   117.78554219   179.93373013
 H     14  13  12     2.054680904295   119.73114173   180.04949005
 H     15  14  13     2.057416180090   118.38878365   180.04645732
 H     17  16  13     2.067882805431   107.78412461   179.11256174
 H     17  16  13     2.069373404783   111.16999544    61.29837945
 H     17  16  13     2.069257605666   111.10315744   296.88081594
 H     19  18   9     2.057416150709   120.55983574     0.16845132
 H     20  19  18     2.054682270776   119.58174447   180.10811850
 H     22  21  20     2.050168217251   121.85766891   179.99174383
 H     23  18   9     2.054541203855   121.10159567   359.61615940
 H     25  24  21     2.069378964600   111.17028829    61.29801652
 H     25  24  21     2.069262661290   111.10308061   296.88010887
 H     25  24  21     2.067884336434   107.78395304   179.11203156

---------------------
BASIS SET INFORMATION
---------------------
There are 4 groups of distinct atoms

 Group   1 Type C   : 7s4p1d contracted to 3s2p1d pattern {511/31/1}
 Group   2 Type O   : 7s4p1d contracted to 3s2p1d pattern {511/31/1}
 Group   3 Type P   : 10s7p1d contracted to 4s3p1d pattern {5311/511/1}
 Group   4 Type H   : 4s1p contracted to 2s1p pattern {31/1}

Atom   0C    basis set group =>   1
Atom   1O    basis set group =>   2
Atom   2C    basis set group =>   1
Atom   3C    basis set group =>   1
Atom   4C    basis set group =>   1
Atom   5C    basis set group =>   1
Atom   6C    basis set group =>   1
Atom   7C    basis set group =>   1
Atom   8P    basis set group =>   3
Atom   9C    basis set group =>   1
Atom  10C    basis set group =>   1
Atom  11C    basis set group =>   1
Atom  12C    basis set group =>   1
Atom  13C    basis set group =>   1
Atom  14C    basis set group =>   1
Atom  15O    basis set group =>   2
Atom  16C    basis set group =>   1
Atom  17C    basis set group =>   1
Atom  18C    basis set group =>   1
Atom  19C    basis set group =>   1
Atom  20C    basis set group =>   1
Atom  21C    basis set group =>   1
Atom  22C    basis set group =>   1
Atom  23O    basis set group =>   2
Atom  24C    basis set group =>   1
Atom  25H    basis set group =>   4
Atom  26H    basis set group =>   4
Atom  27H    basis set group =>   4
Atom  28H    basis set group =>   4
Atom  29H    basis set group =>   4
Atom  30H    basis set group =>   4
Atom  31H    basis set group =>   4
Atom  32H    basis set group =>   4
Atom  33H    basis set group =>   4
Atom  34H    basis set group =>   4
Atom  35H    basis set group =>   4
Atom  36H    basis set group =>   4
Atom  37H    basis set group =>   4
Atom  38H    basis set group =>   4
Atom  39H    basis set group =>   4
Atom  40H    basis set group =>   4
Atom  41H    basis set group =>   4
Atom  42H    basis set group =>   4
Atom  43H    basis set group =>   4
Atom  44H    basis set group =>   4
Atom  45H    basis set group =>   4
---------------------------------
AUXILIARY/J BASIS SET INFORMATION
---------------------------------
There are 4 groups of distinct atoms

 Group   1 Type C   : 12s5p4d2f1g contracted to 6s4p3d1f1g pattern {711111/2111/211/2/1}
 Group   2 Type O   : 12s5p4d2f1g contracted to 6s4p3d1f1g pattern {711111/2111/211/2/1}
 Group   3 Type P   : 14s5p5d2f1g contracted to 8s4p3d1f1g pattern {71111111/2111/311/2/1}
 Group   4 Type H   : 5s2p1d contracted to 3s1p1d pattern {311/2/1}

Atom   0C    basis set group =>   1
Atom   1O    basis set group =>   2
Atom   2C    basis set group =>   1
Atom   3C    basis set group =>   1
Atom   4C    basis set group =>   1
Atom   5C    basis set group =>   1
Atom   6C    basis set group =>   1
Atom   7C    basis set group =>   1
Atom   8P    basis set group =>   3
Atom   9C    basis set group =>   1
Atom  10C    basis set group =>   1
Atom  11C    basis set group =>   1
Atom  12C    basis set group =>   1
Atom  13C    basis set group =>   1
Atom  14C    basis set group =>   1
Atom  15O    basis set group =>   2
Atom  16C    basis set group =>   1
Atom  17C    basis set group =>   1
Atom  18C    basis set group =>   1
Atom  19C    basis set group =>   1
Atom  20C    basis set group =>   1
Atom  21C    basis set group =>   1
Atom  22C    basis set group =>   1
Atom  23O    basis set group =>   2
Atom  24C    basis set group =>   1
Atom  25H    basis set group =>   4
Atom  26H    basis set group =>   4
Atom  27H    basis set group =>   4
Atom  28H    basis set group =>   4
Atom  29H    basis set group =>   4
Atom  30H    basis set group =>   4
Atom  31H    basis set group =>   4
Atom  32H    basis set group =>   4
Atom  33H    basis set group =>   4
Atom  34H    basis set group =>   4
Atom  35H    basis set group =>   4
Atom  36H    basis set group =>   4
Atom  37H    basis set group =>   4
Atom  38H    basis set group =>   4
Atom  39H    basis set group =>   4
Atom  40H    basis set group =>   4
Atom  41H    basis set group =>   4
Atom  42H    basis set group =>   4
Atom  43H    basis set group =>   4
Atom  44H    basis set group =>   4
Atom  45H    basis set group =>   4


           ************************************************************
           *        Program running with 6 parallel MPI-processes     *
           *              working on a common directory               *
           ************************************************************
------------------------------------------------------------------------------
                             ORCA STARTUP CALCULATIONS
                           -- RI-GTO INTEGRALS CHOSEN --
------------------------------------------------------------------------------
------------------------------------------------------------------------------
                   ___                                                        
                  /   \      - P O W E R E D   B Y -                         
                 /     \                                                     
                 |  |  |   _    _      __       _____    __    __             
                 |  |  |  | |  | |    /  \     |  _  \  |  |  /  |          
                  \  \/   | |  | |   /    \    | | | |  |  | /  /          
                 / \  \   | |__| |  /  /\  \   | |_| |  |  |/  /          
                |  |  |   |  __  | /  /__\  \  |    /   |      \           
                |  |  |   | |  | | |   __   |  |    \   |  |\   \          
                \     /   | |  | | |  |  |  |  | |\  \  |  | \   \       
                 \___/    |_|  |_| |__|  |__|  |_| \__\ |__|  \__/        
                                                                              
                      - O R C A' S   B I G   F R I E N D -                    
                                      &                                       
                       - I N T E G R A L  F E E D E R -                       
                                                                              
 v1 FN, 2020, v2 2021, v3 2022-2024                                           
------------------------------------------------------------------------------


----------------------
SHARK INTEGRAL PACKAGE
----------------------

Number of atoms                             ...     46
Number of basis functions                   ...    459
Number of shells                            ...    215
Maximum angular momentum                    ...      2
Integral batch strategy                     ... SHARK/LIBINT Hybrid
RI-J (if used) integral strategy            ... SPLIT-RIJ (Revised 2003 algorithm where possible)
Printlevel                                  ...      1
Contraction scheme used                     ... SEGMENTED contraction
Prescreening option                         ... SCHWARTZ
   Thresh                                   ... 2.500e-11
   Tcut                                     ... 2.500e-12
   Tpresel                                  ... 2.500e-12 
Coulomb Range Separation                    ... NOT USED
Exchange Range Separation                   ... NOT USED
Multipole approximations                    ... NOT USED
Finite Nucleus Model                        ... NOT USED
CABS basis                                  ... NOT available
Auxiliary Coulomb fitting basis             ... AVAILABLE
   # of basis functions in Aux-J            ...   1458
   # of shells in Aux-J                     ...    482
   Maximum angular momentum in Aux-J        ...      4
Auxiliary J/K fitting basis                 ... NOT available
Auxiliary Correlation fitting basis         ... NOT available
Auxiliary 'external' fitting basis          ... NOT available

Checking pre-screening integrals            ... done (  0.0 sec) Dimension = 215
Check shell pair data                       ... done (  0.0 sec)
Shell pair information
Shell pair cut-off parameter TPreSel        ...   2.5e-12
Total number of shell pairs                 ...     23220
Shell pairs after pre-screening             ...     14801
Total number of primitive shell pairs       ...     85064
Primitive shell pairs kept                  ...     33886
          la=0 lb=0:   4633 shell pairs
          la=1 lb=0:   5533 shell pairs
          la=1 lb=1:   1719 shell pairs
          la=2 lb=0:   1718 shell pairs
          la=2 lb=1:   1038 shell pairs
          la=2 lb=2:    160 shell pairs

Calculating one electron integrals          ... done (  0.0 sec)
Calculating RI/J V-Matrix + Cholesky decomp.... done (  0.1 sec)
Calculating Nuclear repulsion               ... done (  0.0 sec) ENN=   2184.285925492964 Eh

Diagonalization of the overlap matrix:
Smallest eigenvalue                        ... 2.376e-04
Time for diagonalization                   ...    0.030 sec
Threshold for overlap eigenvalues          ... 1.000e-07
Number of eigenvalues below threshold      ... 0
Time for construction of square roots      ...    0.018 sec
Total time needed                          ...    0.050 sec

-------------------
DFT GRID GENERATION
-------------------

General Integration Accuracy     IntAcc      ... 4.388
Radial Grid Type                 RadialGrid  ... OptM3 with GC (2021)
Angular Grid (max. ang.)         AngularGrid ... 4 (Lebedev-302)
Angular grid pruning method      GridPruning ... 4 (adaptive)
Weight generation scheme         WeightScheme... mBecke (2022)
Basis function cutoff            BFCut       ... 1.0000e-11
Integration weight cutoff        WCut        ... 1.0000e-14
Partially contracted basis set               ... off
Rotationally invariant grid construction     ... off
Angular grids for H and He will be reduced by one unit

Total number of grid points                  ...   217905
Total number of batches                      ...     3429
Average number of points per batch           ...       63
Average number of grid points per atom       ...     4737
Initializing property integral containers    ... done (  0.0 sec)

SHARK setup successfully completed in   1.7 seconds

Maximum memory used throughout the entire STARTUP-calculation: 59.0 MB


           ************************************************************
           *        Program running with 6 parallel MPI-processes     *
           *              working on a common directory               *
           ************************************************************
-------------------------------------------------------------------------------
                                 ORCA GUESS
                   Start orbitals & Density for SCF / CASSCF
-------------------------------------------------------------------------------

------------
SCF SETTINGS
------------
Hamiltonian:
 Density Functional     Method          .... DFT(GTOs)
 Exchange Functional    Exchange        .... B88
   X-Alpha parameter    XAlpha          ....  0.666667
   Becke's b parameter  XBeta           ....  0.004200
 Correlation Functional Correlation     .... P86
 LDA part of GGA corr.  LDAOpt          .... PW91-LDA
 Gradients option       PostSCFGGA      .... off
   NL short-range parameter             ....  4.400000
 RI-approximation to the Coulomb term is turned on
   Number of AuxJ basis functions       .... 1458


General Settings:
 Integral files         IntName         .... data/geom_opt_P_BP86/70071/70071
 Hartree-Fock type      HFTyp           .... RHF
 Total Charge           Charge          ....    0
 Multiplicity           Mult            ....    1
 Number of Electrons    NEL             ....  186
 Basis Dimension        Dim             ....  459
 Nuclear Repulsion      ENuc            ....   2184.2859254930 Eh

Convergence Acceleration:
 AO-DIIS                CNVDIIS         .... on
   Start iteration      DIISMaxIt       ....    12
   Startup error        DIISStart       ....  0.200000
   # of expansion vecs  DIISMaxEq       ....     5
   Bias factor          DIISBfac        ....   1.050
   Max. coefficient     DIISMaxC        ....  10.000
 MO-DIIS                CNVKDIIS        .... off
 Trust-Rad. Augm. Hess. CNVTRAH         .... auto
   Auto Start mean grad. ratio tolernc. ....  1.125000
   Auto Start start iteration           ....    50
   Auto Start num. interpolation iter.  ....    10
   Max. Number of Micro iterations      ....    24
   Max. Number of Macro iterations      .... Maxiter - #DIIS iter
   Number of Davidson start vectors     ....     2
   Converg. threshold    (grad. norm)   ....   1.000e-05
   Grad. Scal. Fac. for Micro threshold ....   0.100
   Minimum threshold for Micro iter.    ....   1.000e-02
   NR start threshold (gradient norm)   ....   1.000e-04
   Initial trust radius                 ....   0.400
   Minimum AH scaling param. (alpha)    ....   1.000
   Maximum AH scaling param. (alpha)    .... 1000.000
   Quad. conv. algorithm                .... NR
   White noise on init. David. guess    .... on
   Maximum white noise                  ....   0.010
   Pseudo random numbers                .... off
   Inactive MOs                         .... canonical
   Orbital update algorithm             .... Taylor
   Preconditioner                       .... Diag
   Full preconditioner red. dimension   ....   250
 SOSCF                  CNVSOSCF        .... on
   Start iteration      SOSCFMaxIt      ....   150
   Startup grad/error   SOSCFStart      ....  0.003300
   Hessian update       SOSCFHessUp     .... L-BFGS
 Level Shifting         CNVShift        .... on
   Level shift para.    LevelShift      ....    0.2500
   Turn off err/grad.   ShiftErr        ....    0.0010
 Zerner damping         CNVZerner       .... off
 Static damping         CNVDamp         .... on
   Fraction old density DampFac         ....    0.7000
   Max. Damping (<1)    DampMax         ....    0.9800
   Min. Damping (>=0)   DampMin         ....    0.0000
   Turn off err/grad.   DampErr         ....    0.1000

SCF Procedure:
 Maximum # iterations   MaxIter         ....   125
 SCF integral mode      SCFMode         .... Direct
   Integral package                     .... SHARK and LIBINT hybrid scheme
 Reset frequency        DirectResetFreq ....    20
 Integral Threshold     Thresh          ....  2.500e-11 Eh
 Primitive CutOff       TCut            ....  2.500e-12 Eh

Convergence Tolerance:
 Convergence Check Mode ConvCheckMode   .... Total+1el-Energy
 Convergence forced     ConvForced      .... 0
 Energy Change          TolE            ....  1.000e-08 Eh
 1-El. energy change                    ....  1.000e-05 Eh
 Orbital Gradient       TolG            ....  1.000e-05
 Orbital Rotation angle TolX            ....  1.000e-05
 DIIS Error             TolErr          ....  5.000e-07

------------------------------
INITIAL GUESS: MODEL POTENTIAL
------------------------------
Loading Hartree-Fock densities                     ... done
Calculating cut-offs                               ... done
Initializing the effective Hamiltonian             ... done
Setting up the integral package (SHARK)            ... done
Starting the Coulomb interaction                   ... done (   0.2 sec)
Making the grid                                    ... done (   0.3 sec)
Mapping shells                                     ... done
Starting the XC term evaluation                    ... done (   0.2 sec)
  promolecular density results
     # of electrons  =    185.998547594
     EX              =   -161.474276550
     EC              =     -6.904559417
     EX+EC           =   -168.378835967
Transforming the Hamiltonian                       ... done (   0.0 sec)
Diagonalizing the Hamiltonian                      ... done (   0.0 sec)
Back transforming the eigenvectors                 ... done (   0.0 sec)
Now organizing SCF variables                       ... done
                      ------------------
                      INITIAL GUESS DONE (   0.8 sec)
                      ------------------
             **** ENERGY FILE WAS UPDATED (data/geom_opt_P_BP86/70071/70071.en.tmp) ****
Finished Guess after   0.9 sec
Maximum memory used throughout the entire GUESS-calculation: 33.2 MB


           ************************************************************
           *        Program running with 6 parallel MPI-processes     *
           *              working on a common directory               *
           ************************************************************

-------------------------------------------------------------------------------------------
                                      ORCA LEAN-SCF
                              memory conserving SCF solver
-------------------------------------------------------------------------------------------

----------------------------------------D-I-I-S--------------------------------------------
Iteration    Energy (Eh)           Delta-E    RMSDP     MaxDP     DIISErr   Damp  Time(sec)
-------------------------------------------------------------------------------------------
               ***  Starting incremental Fock matrix formation  ***
    1    -1378.6546085634304291     0.00e+00  1.79e-03  6.15e-02  1.21e-01  0.700   1.4
    2    -1378.8414273545627111    -1.87e-01  1.29e-03  6.07e-02  5.35e-02  0.700   1.3
                               ***Turning on AO-DIIS***
    3    -1378.9135206574169388    -7.21e-02  5.60e-04  3.55e-02  2.17e-02  0.700   1.3
    4    -1378.9556008101794760    -4.21e-02  1.01e-03  6.02e-02  1.02e-02  0.000   1.2
    5    -1379.0476582985329514    -9.21e-02  2.12e-04  1.40e-02  5.48e-03  0.000   1.2
                              *** Initializing SOSCF ***
---------------------------------------S-O-S-C-F--------------------------------------
Iteration    Energy (Eh)           Delta-E    RMSDP     MaxDP     MaxGrad    Time(sec)
--------------------------------------------------------------------------------------
    6    -1379.0482678520652371    -6.10e-04  7.19e-05  3.94e-03  2.46e-03     1.2
               *** Restarting incremental Fock matrix formation ***
    7    -1379.0483375042308580    -6.97e-05  6.09e-05  1.90e-03  2.60e-04     1.2
    8    -1379.0483187406853176     1.88e-05  2.92e-05  1.26e-03  5.89e-04     1.2
    9    -1379.0483450154301863    -2.63e-05  2.01e-05  5.45e-04  1.37e-04     1.1
   10    -1379.0483401425694865     4.87e-06  1.28e-05  3.92e-04  3.16e-04     1.0
   11    -1379.0483461504963998    -6.01e-06  5.62e-06  2.63e-04  3.48e-05     1.1
   12    -1379.0483459799261254     1.71e-07  3.34e-06  1.76e-04  5.73e-05     1.0
   13    -1379.0483462488468831    -2.69e-07  1.32e-06  3.62e-05  9.24e-06     1.0
   14    -1379.0483462328388669     1.60e-08  8.70e-07  2.88e-05  2.04e-05     1.0
   15    -1379.0483462608108312    -2.80e-08  3.00e-07  1.24e-05  1.25e-06     0.9
                  *** Gradient check signals convergence ***

               *****************************************************
               *                     SUCCESS                       *
               *           SCF CONVERGED AFTER  15 CYCLES          *
               *****************************************************

             **** ENERGY FILE WAS UPDATED (data/geom_opt_P_BP86/70071/70071.en.tmp) ****

----------------
TOTAL SCF ENERGY
----------------

Total Energy       :      -1379.04834626081083 Eh          -37525.81328 eV

Components:
Nuclear Repulsion  :       2184.28592549296400 Eh           59437.44177 eV
Electronic Energy  :      -3563.33427175377483 Eh          -96963.25505 eV
One Electron Energy:      -6223.53277179722681 Eh         -169350.93636 eV
Two Electron Energy:       2660.19850004345199 Eh           72387.68130 eV

Virial components:
Potential Energy   :      -2745.93352019972872 Eh          -74720.64981 eV
Kinetic Energy     :       1366.88517393891789 Eh           37194.83653 eV
Virial Ratio       :          2.00889845947106

DFT components:
N(Alpha)           :       93.000101854183 electrons
N(Beta)            :       93.000101854183 electrons
N(Total)           :      186.000203708366 electrons
E(X)               :     -163.817594524770 Eh       
E(C)               :       -6.903602731158 Eh       
E(XC)              :     -170.721197255928 Eh       

---------------
SCF CONVERGENCE
---------------

  Last Energy change         ...    2.7972e-08  Tolerance :   1.0000e-08
  Last MAX-Density change    ...    1.2390e-05  Tolerance :   1.0000e-07
  Last RMS-Density change    ...    2.9965e-07  Tolerance :   5.0000e-09
  Last DIIS Error            ...    2.4627e-03  Tolerance :   5.0000e-07
  Last Orbital Gradient      ...    1.2519e-06  Tolerance :   1.0000e-05
  Last Orbital Rotation      ...    5.5616e-06  Tolerance :   1.0000e-05


----------------
ORBITAL ENERGIES
----------------

  NO   OCC          E(Eh)            E(eV) 
   0   2.0000     -76.330336     -2077.0540 
   1   2.0000     -18.811942      -511.8990 
   2   2.0000     -18.811939      -511.8989 
   3   2.0000     -18.811939      -511.8989 
   4   2.0000      -9.968991      -271.2700 
   5   2.0000      -9.968986      -271.2699 
   6   2.0000      -9.968984      -271.2698 
   7   2.0000      -9.968169      -271.2477 
   8   2.0000      -9.968168      -271.2476 
   9   2.0000      -9.968167      -271.2476 
  10   2.0000      -9.915090      -269.8033 
  11   2.0000      -9.915069      -269.8027 
  12   2.0000      -9.915062      -269.8025 
  13   2.0000      -9.914865      -269.7972 
  14   2.0000      -9.914852      -269.7968 
  15   2.0000      -9.914845      -269.7967 
  16   2.0000      -9.912363      -269.7291 
  17   2.0000      -9.912358      -269.7290 
  18   2.0000      -9.912353      -269.7288 
  19   2.0000      -9.910418      -269.6762 
  20   2.0000      -9.910409      -269.6759 
  21   2.0000      -9.910332      -269.6738 
  22   2.0000      -9.908053      -269.6118 
  23   2.0000      -9.908047      -269.6117 
  24   2.0000      -9.908045      -269.6116 
  25   2.0000      -6.299401      -171.4154 
  26   2.0000      -4.520788      -123.0169 
  27   2.0000      -4.520784      -123.0168 
  28   2.0000      -4.517063      -122.9155 
  29   2.0000      -0.970989       -26.4220 
  30   2.0000      -0.970986       -26.4219 
  31   2.0000      -0.970985       -26.4219 
  32   2.0000      -0.775346       -21.0982 
  33   2.0000      -0.768340       -20.9076 
  34   2.0000      -0.768338       -20.9075 
  35   2.0000      -0.699927       -19.0460 
  36   2.0000      -0.681980       -18.5576 
  37   2.0000      -0.681977       -18.5575 
  38   2.0000      -0.670692       -18.2505 
  39   2.0000      -0.668628       -18.1943 
  40   2.0000      -0.668622       -18.1941 
  41   2.0000      -0.640803       -17.4371 
  42   2.0000      -0.623167       -16.9572 
  43   2.0000      -0.623164       -16.9571 
  44   2.0000      -0.566756       -15.4222 
  45   2.0000      -0.548046       -14.9131 
  46   2.0000      -0.548041       -14.9130 
  47   2.0000      -0.545027       -14.8310 
  48   2.0000      -0.525757       -14.3066 
  49   2.0000      -0.525754       -14.3065 
  50   2.0000      -0.499367       -13.5885 
  51   2.0000      -0.485747       -13.2179 
  52   2.0000      -0.485746       -13.2178 
  53   2.0000      -0.479390       -13.0449 
  54   2.0000      -0.435115       -11.8401 
  55   2.0000      -0.435110       -11.8399 
  56   2.0000      -0.434176       -11.8145 
  57   2.0000      -0.424308       -11.5460 
  58   2.0000      -0.424307       -11.5460 
  59   2.0000      -0.424273       -11.5451 
  60   2.0000      -0.414631       -11.2827 
  61   2.0000      -0.414628       -11.2826 
  62   2.0000      -0.395665       -10.7666 
  63   2.0000      -0.394929       -10.7466 
  64   2.0000      -0.394923       -10.7464 
  65   2.0000      -0.378108       -10.2888 
  66   2.0000      -0.377160       -10.2631 
  67   2.0000      -0.377157       -10.2630 
  68   2.0000      -0.369852       -10.0642 
  69   2.0000      -0.366540        -9.9741 
  70   2.0000      -0.366534        -9.9739 
  71   2.0000      -0.356595        -9.7034 
  72   2.0000      -0.341690        -9.2979 
  73   2.0000      -0.341686        -9.2977 
  74   2.0000      -0.340470        -9.2647 
  75   2.0000      -0.317353        -8.6356 
  76   2.0000      -0.317350        -8.6355 
  77   2.0000      -0.316917        -8.6237 
  78   2.0000      -0.299308        -8.1446 
  79   2.0000      -0.299306        -8.1445 
  80   2.0000      -0.287705        -7.8289 
  81   2.0000      -0.284771        -7.7490 
  82   2.0000      -0.284769        -7.7490 
  83   2.0000      -0.284662        -7.7460 
  84   2.0000      -0.279034        -7.5929 
  85   2.0000      -0.279031        -7.5928 
  86   2.0000      -0.231814        -6.3080 
  87   2.0000      -0.226932        -6.1751 
  88   2.0000      -0.226928        -6.1750 
  89   2.0000      -0.218552        -5.9471 
  90   2.0000      -0.200931        -5.4676 
  91   2.0000      -0.200928        -5.4675 
  92   2.0000      -0.167413        -4.5556 
  93   0.0000      -0.048285        -1.3139 
  94   0.0000      -0.040422        -1.0999 
  95   0.0000      -0.040418        -1.0998 
  96   0.0000      -0.033035        -0.8989 
  97   0.0000      -0.033030        -0.8988 
  98   0.0000      -0.021751        -0.5919 
  99   0.0000       0.041525         1.1300 
 100   0.0000       0.041531         1.1301 
 101   0.0000       0.045164         1.2290 
 102   0.0000       0.054427         1.4810 
 103   0.0000       0.054440         1.4814 
*Only the first 10 virtual orbitals were printed.

                    ********************************
                    * MULLIKEN POPULATION ANALYSIS *
                    ********************************

-----------------------
MULLIKEN ATOMIC CHARGES
-----------------------
   0 C :    0.124466
   1 O :   -0.277493
   2 C :    0.214695
   3 C :   -0.026440
   4 C :    0.002189
   5 C :   -0.117662
   6 C :   -0.007241
   7 C :   -0.085908
   8 P :    0.273904
   9 C :   -0.117475
  10 C :   -0.007206
  11 C :   -0.086038
  12 C :    0.214685
  13 C :   -0.026394
  14 C :    0.002109
  15 O :   -0.277500
  16 C :    0.124525
  17 C :   -0.117576
  18 C :    0.002158
  19 C :   -0.026434
  20 C :    0.214739
  21 C :   -0.086128
  22 C :   -0.007204
  23 O :   -0.277504
  24 C :    0.124588
  25 H :    0.035543
  26 H :    0.037402
  27 H :    0.046399
  28 H :   -0.010455
  29 H :   -0.004368
  30 H :    0.003465
  31 H :   -0.025907
  32 H :    0.003413
  33 H :   -0.025866
  34 H :   -0.010447
  35 H :   -0.004346
  36 H :    0.046394
  37 H :    0.037368
  38 H :    0.035519
  39 H :   -0.004382
  40 H :   -0.010420
  41 H :   -0.025881
  42 H :    0.003488
  43 H :    0.037343
  44 H :    0.035485
  45 H :    0.046399
Sum of atomic charges:   -0.0000000

--------------------------------
MULLIKEN REDUCED ORBITAL CHARGES
--------------------------------
  0 C s       :     3.025391  s :     3.025391
      pz      :     0.864467  p :     2.800585
      px      :     0.903848
      py      :     1.032270
      dz2     :     0.013300  d :     0.049558
      dxz     :     0.014337
      dyz     :     0.005736
      dx2y2   :     0.004378
      dxy     :     0.011807

  1 O s       :     3.743673  s :     3.743673
      pz      :     1.524908  p :     4.517364
      px      :     1.424003
      py      :     1.568453
      dz2     :     0.003066  d :     0.016457
      dxz     :     0.002793
      dyz     :     0.003149
      dx2y2   :     0.002936
      dxy     :     0.004513

  2 C s       :     2.936771  s :     2.936771
      pz      :     0.972993  p :     2.777199
      px      :     0.904581
      py      :     0.899625
      dz2     :     0.011917  d :     0.071336
      dxz     :     0.009591
      dyz     :     0.014827
      dx2y2   :     0.016499
      dxy     :     0.018502

  3 C s       :     3.249809  s :     3.249809
      pz      :     0.967130  p :     2.746294
      px      :     0.971916
      py      :     0.807248
      dz2     :     0.006097  d :     0.030337
      dxz     :     0.005788
      dyz     :     0.005617
      dx2y2   :     0.007411
      dxy     :     0.005425

  4 C s       :     3.230420  s :     3.230420
      pz      :     0.900992  p :     2.734135
      px      :     0.901688
      py      :     0.931455
      dz2     :     0.004556  d :     0.033255
      dxz     :     0.005203
      dyz     :     0.007538
      dx2y2   :     0.007921
      dxy     :     0.008039

  5 C s       :     3.058831  s :     3.058831
      pz      :     0.999689  p :     3.024056
      px      :     1.014472
      py      :     1.009895
      dz2     :     0.007101  d :     0.034775
      dxz     :     0.005831
      dyz     :     0.008015
      dx2y2   :     0.006246
      dxy     :     0.007582

  6 C s       :     3.241987  s :     3.241987
      pz      :     0.940622  p :     2.731918
      px      :     0.947741
      py      :     0.843555
      dz2     :     0.006300  d :     0.033336
      dxz     :     0.005602
      dyz     :     0.007290
      dx2y2   :     0.008201
      dxy     :     0.005943

  7 C s       :     3.250166  s :     3.250166
      pz      :     0.903448  p :     2.804944
      px      :     0.947274
      py      :     0.954222
      dz2     :     0.004320  d :     0.030798
      dxz     :     0.005141
      dyz     :     0.006631
      dx2y2   :     0.008137
      dxy     :     0.006569

  8 P s       :     5.665612  s :     5.665612
      pz      :     3.341839  p :     8.882100
      px      :     2.771060
      py      :     2.769201
      dz2     :     0.016238  d :     0.178385
      dxz     :     0.036487
      dyz     :     0.033582
      dx2y2   :     0.044569
      dxy     :     0.047509

  9 C s       :     3.058755  s :     3.058755
      pz      :     0.994967  p :     3.023945
      px      :     0.993431
      py      :     1.035547
      dz2     :     0.007483  d :     0.034775
      dxz     :     0.009307
      dyz     :     0.004688
      dx2y2   :     0.006869
      dxy     :     0.006429

 10 C s       :     3.241890  s :     3.241890
      pz      :     0.940092  p :     2.731981
      px      :     0.826635
      py      :     0.965254
      dz2     :     0.007006  d :     0.033336
      dxz     :     0.008670
      dyz     :     0.004562
      dx2y2   :     0.006030
      dxy     :     0.007069

 11 C s       :     3.250121  s :     3.250121
      pz      :     0.888278  p :     2.805118
      px      :     0.955570
      py      :     0.961269
      dz2     :     0.004851  d :     0.030799
      dxz     :     0.007585
      dyz     :     0.004063
      dx2y2   :     0.006946
      dxy     :     0.007354

 12 C s       :     2.936740  s :     2.936740
      pz      :     0.961766  p :     2.777238
      px      :     0.830259
      py      :     0.985212
      dz2     :     0.012586  d :     0.071337
      dxz     :     0.019018
      dyz     :     0.006488
      dx2y2   :     0.016571
      dxy     :     0.016675

 13 C s       :     3.249736  s :     3.249736
      pz      :     0.967107  p :     2.746321
      px      :     0.792801
      py      :     0.986413
      dz2     :     0.006871  d :     0.030337
      dxz     :     0.006592
      dyz     :     0.004871
      dx2y2   :     0.006379
      dxy     :     0.005624

 14 C s       :     3.230424  s :     3.230424
      pz      :     0.891221  p :     2.734211
      px      :     0.919871
      py      :     0.923119
      dz2     :     0.005017  d :     0.033256
      dxz     :     0.008498
      dyz     :     0.004314
      dx2y2   :     0.007550
      dxy     :     0.007877

 15 O s       :     3.743683  s :     3.743683
      pz      :     1.474134  p :     4.517360
      px      :     1.448428
      py      :     1.594798
      dz2     :     0.003142  d :     0.016457
      dxz     :     0.003136
      dyz     :     0.003066
      dx2y2   :     0.004392
      dxy     :     0.002722

 16 C s       :     3.025368  s :     3.025368
      pz      :     0.844752  p :     2.800550
      px      :     1.048970
      py      :     0.906828
      dz2     :     0.012935  d :     0.049558
      dxz     :     0.007804
      dyz     :     0.013848
      dx2y2   :     0.010046
      dxy     :     0.004924

 17 C s       :     3.058794  s :     3.058794
      pz      :     0.995586  p :     3.024007
      px      :     1.032949
      py      :     0.995472
      dz2     :     0.007693  d :     0.034775
      dxz     :     0.006120
      dyz     :     0.008413
      dx2y2   :     0.006661
      dxy     :     0.005888

 18 C s       :     3.230440  s :     3.230440
      pz      :     0.889337  p :     2.734147
      px      :     0.938802
      py      :     0.906008
      dz2     :     0.005373  d :     0.033255
      dxz     :     0.005415
      dyz     :     0.007378
      dx2y2   :     0.007784
      dxy     :     0.007305

 19 C s       :     3.249715  s :     3.249715
      pz      :     0.957062  p :     2.746382
      px      :     0.909451
      py      :     0.879870
      dz2     :     0.006671  d :     0.030337
      dxz     :     0.004863
      dyz     :     0.007137
      dx2y2   :     0.004664
      dxy     :     0.007002

 20 C s       :     2.936723  s :     2.936723
      pz      :     0.971842  p :     2.777201
      px      :     0.978024
      py      :     0.827335
      dz2     :     0.012766  d :     0.071337
      dxz     :     0.009101
      dyz     :     0.015885
      dx2y2   :     0.017563
      dxy     :     0.016021

 21 C s       :     3.250158  s :     3.250158
      pz      :     0.875906  p :     2.805172
      px      :     0.970626
      py      :     0.958640
      dz2     :     0.005003  d :     0.030798
      dxz     :     0.004685
      dyz     :     0.007239
      dx2y2   :     0.006591
      dxy     :     0.007281

 22 C s       :     3.241560  s :     3.241560
      pz      :     0.938099  p :     2.732308
      px      :     0.914366
      py      :     0.879844
      dz2     :     0.006755  d :     0.033336
      dxz     :     0.005659
      dyz     :     0.008158
      dx2y2   :     0.005827
      dxy     :     0.006937

 23 O s       :     3.743696  s :     3.743696
      pz      :     1.482751  p :     4.517352
      px      :     1.662630
      py      :     1.371971
      dz2     :     0.003411  d :     0.016457
      dxz     :     0.003275
      dyz     :     0.002661
      dx2y2   :     0.003337
      dxy     :     0.003772

 24 C s       :     3.025355  s :     3.025355
      pz      :     0.834954  p :     2.800501
      px      :     0.975283
      py      :     0.990264
      dz2     :     0.014232  d :     0.049556
      dxz     :     0.008952
      dyz     :     0.011589
      dx2y2   :     0.008612
      dxy     :     0.006171

 25 H s       :     0.942146  s :     0.942146
      pz      :     0.010648  p :     0.022311
      px      :     0.005777
      py      :     0.005886

 26 H s       :     0.940278  s :     0.940278
      pz      :     0.004294  p :     0.022320
      px      :     0.007616
      py      :     0.010411

 27 H s       :     0.932242  s :     0.932242
      pz      :     0.003985  p :     0.021359
      px      :     0.007031
      py      :     0.010343

 28 H s       :     0.987929  s :     0.987929
      pz      :     0.005976  p :     0.022526
      px      :     0.004383
      py      :     0.012166

 29 H s       :     0.981909  s :     0.981909
      pz      :     0.009936  p :     0.022459
      px      :     0.007961
      py      :     0.004562

 30 H s       :     0.973289  s :     0.973289
      pz      :     0.006047  p :     0.023246
      px      :     0.004436
      py      :     0.012763

 31 H s       :     1.002734  s :     1.002734
      pz      :     0.010167  p :     0.023173
      px      :     0.008202
      py      :     0.004805

[...]
      py      :     1.447292
      dz2     :     0.006761  d :     0.031349
      dxz     :     0.005936
      dyz     :     0.006268
      dx2y2   :     0.006083
      dxy     :     0.006302

 24 C s       :     2.861771  s :     2.861771
      pz      :     0.889620  p :     2.965676
      px      :     1.035532
      py      :     1.040524
      dz2     :     0.034223  d :     0.116141
      dxz     :     0.019911
      dyz     :     0.027586
      dx2y2   :     0.021236
      dxy     :     0.013184

 25 H s       :     0.917326  s :     0.917326
      pz      :     0.032355  p :     0.063948
      px      :     0.018150
      py      :     0.013443

 26 H s       :     0.916203  s :     0.916203
      pz      :     0.010395  p :     0.064059
      px      :     0.022586
      py      :     0.031078

 27 H s       :     0.905410  s :     0.905410
      pz      :     0.010250  p :     0.062005
      px      :     0.020379
      py      :     0.031376

 28 H s       :     0.895464  s :     0.895464
      pz      :     0.016958  p :     0.067693
      px      :     0.013131
      py      :     0.037605

 29 H s       :     0.901698  s :     0.901698
      pz      :     0.030963  p :     0.066237
      px      :     0.022032
      py      :     0.013243

 30 H s       :     0.895609  s :     0.895609
      pz      :     0.016777  p :     0.068949
      px      :     0.013016
      py      :     0.039155

 31 H s       :     0.899659  s :     0.899659
      pz      :     0.031694  p :     0.069800
      px      :     0.023418
      py      :     0.014688

 32 H s       :     0.895591  s :     0.895591
      pz      :     0.015228  p :     0.069002
      px      :     0.037171
      py      :     0.016604

 33 H s       :     0.899670  s :     0.899670
      pz      :     0.032656  p :     0.069793
      px      :     0.011506
      py      :     0.025631

 34 H s       :     0.895482  s :     0.895482
      pz      :     0.015364  p :     0.067692
      px      :     0.035186
      py      :     0.017143

 35 H s       :     0.901673  s :     0.901673
      pz      :     0.032197  p :     0.066238
      px      :     0.010663
      py      :     0.023378

 36 H s       :     0.905411  s :     0.905411
      pz      :     0.011207  p :     0.062003
      px      :     0.040095
      py      :     0.010702

 37 H s       :     0.916234  s :     0.916234
      pz      :     0.010044  p :     0.064050
      px      :     0.016034
      py      :     0.037972

 38 H s       :     0.917322  s :     0.917322
      pz      :     0.029164  p :     0.063951
      px      :     0.020319
      py      :     0.014469

 39 H s       :     0.901710  s :     0.901710
      pz      :     0.033245  p :     0.066232
      px      :     0.018521
      py      :     0.014466

 40 H s       :     0.895488  s :     0.895488
      pz      :     0.017278  p :     0.067693
      px      :     0.028627
      py      :     0.021788

 41 H s       :     0.899699  s :     0.899699
      pz      :     0.033667  p :     0.069794
      px      :     0.020802
      py      :     0.015325

 42 H s       :     0.895560  s :     0.895560
      pz      :     0.017254  p :     0.069003
      px      :     0.028914
      py      :     0.022835

 43 H s       :     0.916262  s :     0.916262
      pz      :     0.009408  p :     0.064049
      px      :     0.042254
      py      :     0.012387

 44 H s       :     0.917365  s :     0.917365
      pz      :     0.030431  p :     0.063946
      px      :     0.011686
      py      :     0.021829

 45 H s       :     0.905425  s :     0.905425
      pz      :     0.009944  p :     0.062000
      px      :     0.016857
      py      :     0.035199



                      *****************************
                      * MAYER POPULATION ANALYSIS *
                      *****************************

  NA   - Mulliken gross atomic population
  ZA   - Total nuclear charge
  QA   - Mulliken gross atomic charge
  VA   - Mayer's total valence
  BVA  - Mayer's bonded valence
  FA   - Mayer's free valence

  ATOM       NA         ZA         QA         VA         BVA        FA
  0 C      5.8941     6.0000     0.1059     3.9340     3.9340    -0.0000
  1 O      8.2709     8.0000    -0.2709     2.2730     2.2730    -0.0000
  2 C      5.8127     6.0000     0.1873     3.8989     3.8989    -0.0000
  3 C      6.0215     6.0000    -0.0215     3.8346     3.8346    -0.0000
  4 C      5.9962     6.0000     0.0038     3.8566     3.8566    -0.0000
  5 C      6.1471     6.0000    -0.1471     3.7928     3.7928    -0.0000
  6 C      6.0055     6.0000    -0.0055     3.8919     3.8919    -0.0000
  7 C      6.0812     6.0000    -0.0812     3.7893     3.7893    -0.0000
  8 P     14.7046    15.0000     0.2954     2.9796     2.9796    -0.0000
  9 C      6.1471     6.0000    -0.1471     3.7928     3.7928    -0.0000
 10 C      6.0052     6.0000    -0.0052     3.8922     3.8922    -0.0000
 11 C      6.0812     6.0000    -0.0812     3.7892     3.7892    -0.0000
 12 C      5.8127     6.0000     0.1873     3.8989     3.8989    -0.0000
 13 C      6.0214     6.0000    -0.0214     3.8345     3.8345    -0.0000
 14 C      5.9968     6.0000     0.0032     3.8570     3.8570    -0.0000
 15 O      8.2710     8.0000    -0.2710     2.2729     2.2729    -0.0000
 16 C      5.8941     6.0000     0.1059     3.9340     3.9340    -0.0000
 17 C      6.1468     6.0000    -0.1468     3.7927     3.7927    -0.0000
 18 C      5.9964     6.0000     0.0036     3.8569     3.8569    -0.0000
 19 C      6.0215     6.0000    -0.0215     3.8348     3.8348    -0.0000
 20 C      5.8127     6.0000     0.1873     3.8989     3.8989    -0.0000
 21 C      6.0814     6.0000    -0.0814     3.7896     3.7896    -0.0000
 22 C      6.0058     6.0000    -0.0058     3.8927     3.8927    -0.0000
 23 O      8.2710     8.0000    -0.2710     2.2728     2.2728    -0.0000
 24 C      5.8940     6.0000     0.1060     3.9340     3.9340    -0.0000
 25 H      0.9610     1.0000     0.0390     0.9840     0.9840    -0.0000
 26 H      0.9586     1.0000     0.0414     0.9845     0.9845    -0.0000
 27 H      0.9465     1.0000     0.0535     0.9861     0.9861    -0.0000
 28 H      1.0027     1.0000    -0.0027     0.9956     0.9956    -0.0000
 29 H      0.9967     1.0000     0.0033     0.9906     0.9906    -0.0000
 30 H      0.9860     1.0000     0.0140     0.9914     0.9914    -0.0000
 31 H      1.0174     1.0000    -0.0174     0.9975     0.9975    -0.0000
 32 H      0.9861     1.0000     0.0139     0.9915     0.9915    -0.0000
 33 H      1.0175     1.0000    -0.0175     0.9975     0.9975    -0.0000
 34 H      1.0028     1.0000    -0.0028     0.9956     0.9956    -0.0000
 35 H      0.9967     1.0000     0.0033     0.9906     0.9906    -0.0000
 36 H      0.9465     1.0000     0.0535     0.9861     0.9861    -0.0000
 37 H      0.9587     1.0000     0.0413     0.9844     0.9844    -0.0000
 38 H      0.9610     1.0000     0.0390     0.9840     0.9840    -0.0000
 39 H      0.9968     1.0000     0.0032     0.9906     0.9906    -0.0000
 40 H      1.0028     1.0000    -0.0028     0.9956     0.9956    -0.0000
 41 H      1.0176     1.0000    -0.0176     0.9975     0.9975    -0.0000
 42 H      0.9857     1.0000     0.0143     0.9912     0.9912    -0.0000
 43 H      0.9587     1.0000     0.0413     0.9845     0.9845    -0.0000
 44 H      0.9611     1.0000     0.0389     0.9840     0.9840    -0.0000
 45 H      0.9465     1.0000     0.0535     0.9861     0.9861    -0.0000

  Mayer bond orders larger than 0.100000
B(  0-C ,  1-O ) :   0.9814 B(  0-C , 25-H ) :   0.9576 B(  0-C , 26-H ) :   0.9575 
B(  0-C , 27-H ) :   0.9715 B(  1-O ,  2-C ) :   1.1451 B(  2-C ,  3-C ) :   1.3322 
B(  2-C ,  7-C ) :   1.2919 B(  3-C ,  4-C ) :   1.4148 B(  3-C , 28-H ) :   0.9786 
B(  4-C ,  5-C ) :   1.3266 B(  4-C , 29-H ) :   0.9709 B(  5-C ,  6-C ) :   1.3873 
B(  5-C ,  8-P ) :   0.9327 B(  6-C ,  7-C ) :   1.3500 B(  6-C , 30-H ) :   0.9636 
B(  7-C , 31-H ) :   0.9773 B(  8-P ,  9-C ) :   0.9324 B(  8-P , 17-C ) :   0.9319 
B(  9-C , 10-C ) :   1.3880 B(  9-C , 14-C ) :   1.3264 B( 10-C , 11-C ) :   1.3499 
B( 10-C , 32-H ) :   0.9634 B( 11-C , 12-C ) :   1.2922 B( 11-C , 33-H ) :   0.9773 
B( 12-C , 13-C ) :   1.3320 B( 12-C , 15-O ) :   1.1451 B( 13-C , 14-C ) :   1.4150 
B( 13-C , 34-H ) :   0.9785 B( 14-C , 35-H ) :   0.9709 B( 15-O , 16-C ) :   0.9815 
B( 16-C , 36-H ) :   0.9715 B( 16-C , 37-H ) :   0.9575 B( 16-C , 38-H ) :   0.9576 
B( 17-C , 18-C ) :   1.3260 B( 17-C , 22-C ) :   1.3886 B( 18-C , 19-C ) :   1.4155 
B( 18-C , 39-H ) :   0.9708 B( 19-C , 20-C ) :   1.3319 B( 19-C , 40-H ) :   0.9785 
B( 20-C , 21-C ) :   1.2925 B( 20-C , 23-O ) :   1.1449 B( 21-C , 22-C ) :   1.3498 
B( 21-C , 41-H ) :   0.9772 B( 22-C , 42-H ) :   0.9633 B( 23-O , 24-C ) :   0.9816 
B( 24-C , 43-H ) :   0.9575 B( 24-C , 44-H ) :   0.9576 B( 24-C , 45-H ) :   0.9715 


-------
TIMINGS
-------

Total SCF time: 0 days 0 hours 0 min 8 sec 

Total time                  ....       8.158 sec
Sum of individual times     ....       8.029 sec  ( 98.4%)

SCF preparation             ....       0.150 sec  (  1.8%)
Fock matrix formation       ....       7.077 sec  ( 86.7%)
  Startup                   ....       0.036 sec  (  0.5% of F)
  Split-RI-J                ....       2.727 sec  ( 38.5% of F)
  XC integration            ....       4.187 sec  ( 59.2% of F)
    Basis function eval.    ....       1.251 sec  ( 29.9% of XC)
    Density eval.           ....       1.275 sec  ( 30.5% of XC)
    XC-Functional eval.     ....       0.111 sec  (  2.7% of XC)
    XC-Potential eval.      ....       0.896 sec  ( 21.4% of XC)
Diagonalization             ....       0.000 sec  (  0.0%)
Density matrix formation    ....       0.096 sec  (  1.2%)
Total Energy calculation    ....       0.032 sec  (  0.4%)
Population analysis         ....       0.117 sec  (  1.4%)
Orbital Transformation      ....       0.069 sec  (  0.8%)
Orbital Orthonormalization  ....       0.000 sec  (  0.0%)
DIIS solution               ....       0.090 sec  (  1.1%)
SOSCF solution              ....       0.398 sec  (  4.9%)
Finished LeanSCF after   8.2 sec

Maximum memory used throughout the entire LEANSCF-calculation: 49.1 MB


-------------------------------------------------------------------------------
                          DFT DISPERSION CORRECTION                            
                                                                               
                              DFTD3 V3.1  Rev 1                                
                          USING Becke-Johnson damping                          
-------------------------------------------------------------------------------
The BP86 functional is recognized
Active option DFTDOPT                   ...         4   

molecular C6(AA) [au] = 26055.959266 


            DFT-D V3
 parameters
 s6 scaling factor         :     1.0000 
 a1 scaling factor         :     0.3946 
 s8 scaling factor         :     3.2822 
 a2 scaling factor         :     4.8516 
 ad hoc parameters k1-k3   :    16.0000     1.3333    -4.0000 

 Edisp/kcal,au: -63.235255863138  -0.100771783904 
 E6   /kcal   : -23.281578933 
 E8   /kcal   : -39.953676930 
 % E8         :  63.182597088 

-------------------------   ----------------
Dispersion correction           -0.100771784
-------------------------   ----------------


-------------------------   --------------------
FINAL SINGLE POINT ENERGY     -1379.157479383983
-------------------------   --------------------

                                *** OPTIMIZATION RUN DONE ***



           ************************************************************
           *        Program running with 6 parallel MPI-processes     *
           *              working on a common directory               *
           ************************************************************

------------------------------------------------------------------------------
                              ORCA PROPERTY CALCULATIONS
------------------------------------------------------------------------------

GBWName                                 ... data/geom_opt_P_BP86/70071/70071.gbw
Number of atoms                         ...     46
Number of basis functions               ...    459
Max core memory                         ...   1024 MB

Electric properties:
Dipole moment                           ... YES
Quadrupole moment                       ...  NO
Static polarizability (Dipole/Dipole)   ...  NO
Static polarizability (Dipole/Quad.)    ...  NO
Static polarizability (Quad./Quad.)     ...  NO
Static polarizability (Velocity)        ...  NO

Atomic electric properties:
Dipole moment                           ...  NO
Quadrupole moment                       ...  NO
Static polarizability                   ...  NO

Choice of electric origin               ... Center of mass
Position of electric origin             ...    -0.038172    -0.001405     0.972483

General magnetic properties:
Magnetizability                         ...  NO

EPR properties:
g-Tensor (aka g-matrix)                 ...  NO
Zero-Field splitting spin-orbit         ...  NO
Zero-field splitting spin-spin          ...  NO
Hyperfine couplings                     ...  NO (   0 nuclei)
Quadrupole couplings                    ...  NO (   0 nuclei)
Contact density                         ...  NO (   0 nuclei)

NMR properties:
Chemical shifts                         ...  NO (   0 nuclei)
Spin-rotation constants                 ...  NO (   0 nuclei)
Spin-spin couplings                     ...  NO (   0 nuclei,    0 pairs)

Choice of magnetic origin               ... GIAO
Position of magnetic origin             ...     0.000000     0.000000     0.000000

Properties with geometric perturbations:
SCF Hessian                             ...  NO
IR spectrum                             ...  NO
VCD spectrum                            ...  NO
X-ray spectroscopy properties:
SCF XES/XAS/RIXS spectra                ...  NO


-------------
DIPOLE MOMENT
-------------

Method             : SCF
Type of density    : Electron Density
Multiplicity       :   1
Irrep              :   0
Energy             : -1379.0567076000797897 Eh
Relativity type    : 
Basis              : AO
                                X                 Y                 Z
Electronic contribution:     -0.825442978      -0.034296082      14.919803695
Nuclear contribution   :      0.927692702       0.034192798     -16.773164620
                        -----------------------------------------
Total Dipole Moment    :      0.102249724      -0.000103284      -1.853360926
                        -----------------------------------------
Magnitude (a.u.)       :      1.856179339
Magnitude (Debye)      :      4.718032931



--------------------
Rotational spectrum 
--------------------
 
Rotational constants in cm-1:             0.005344             0.005335             0.003167 
Rotational constants in MHz :           160.221416           159.941805            94.929997 

Dipole components along the rotational axes: 
x,y,z [a.u.] :    -0.000811    -0.006052    -1.856169 
x,y,z [Debye]:    -0.002061    -0.015382    -4.718007 

 

Dipole moment calculation done in   0.0 sec 

Maximum memory used throughout the entire PROP-calculation: 25.5 MB

--------------------------------
SUGGESTED CITATIONS FOR THIS RUN
--------------------------------

Below you find a list of papers that are relevant to this ORCA run
We neither can nor want to force you to cite these papers, but we appreciate if you do
You receive ORCA, which is the product of decades of hard work by many enthusiastic individuals, for free
The only thing we kindly ask in return is that you cite our papers,
We deeply appreciate it, if you show your appreciation for ORCA by not just citing the generic ORCA reference.

Please note that relegating all ORCA citations to the supporting information does *not* help us.
SI sections are not indexed - citations you put there will not count into any citation statistics
But we need these citations in order to attract the funding resources that allow us to do what we are doing

Therefore, if you are a happy ORCA user, please consider citing a few of the papers listed below in the main body of your paper

In addition to the list printed below, the program has created the file data/geom_opt_P_BP86/70071/70071.bibtex that contains the list in bibtex format
You can import this file easily into all common literature databanks and citation aid programs


List of essential papers. We consider these as the minimum necessary citations

  1. Neese,F.
     Software update: the ORCA program system, version 5.0
     WIRES Comput. Molec. Sci., 2022 12(1)e1606
     doi.org/10.1002/wcms.1606

List of papers to cite with high priority. The work reported in these papers was absolutely
necessary for this run to complete.
Our perspective: the developers of density functionals and basis sets usually get cited in chemistry papers
Good! But without the algorithms to do something with them, the functionals or basis sets would not do anything.
Hence, in our opinion, the algorithm design and method developments papers are equally worthy of getting cited

  1. Neese,F.
     An improvement of the resolution of the identity approximation for the formation of the Coulomb matrix
     J. Comp. Chem., 2003 24(14)1740-1747
     doi.org/10.1002/jcc.10318
  2. Neese,F.
     The SHARK Integral Generation and Digestion System
     J. Comp. Chem., 2022  1-16
     doi.org/10.1002/jcc.26942
  3. Grimme,S.; Antony,J.; Ehrlich,S.; Krieg,H.
     A consistent and accurate ab initio parametrization of density functional dispersion correction (DFT-D) for the 94 elements H-Pu
     J. Chem. Phys., 2010 132 154104-XXXX
     doi.org/10.1063/1.3382344
  4. Grimme,S.; Ehrlich,S.; Goerigk,L.
     Effect of the damping function in dispersion corrected density functional theory
     J. Comput. Chem., 2011 32(7)1456-1465
     doi.org/10.1002/jcc.21759

List of suggested additional citations. These are papers that are important in the 'surrounding' of 
of this run, or papers that preceded the highly important papers. If you like your results we are grateful for a citation.

  1. Neese,F.
     The ORCA program system
     WIRES Comput. Molec. Sci., 2012 2(1)73-78
     doi.org/10.1002/wcms.81
  2. Neese,F.
     Software update: the ORCA program system, version 4.0
     WIRES Comput. Molec. Sci., 2018 8(1)1-6
     doi.org/10.1002/wcms.1327
  3. Neese,F.; Wennmohs,F.; Becker,U.; Riplinger,C.
     The ORCA quantum chemistry program package
     J. Chem. Phys., 2020 152 Art. No. L224108
     doi.org/10.1063/5.0004608

List of optional additional citations

  1. Neese,F.
     Approximate second-order SCF convergence for spin unrestricted wavefunctions
     Chem. Phys. Lett., 2000 325(1-3)93-98
     doi.org/10.1016/s0009-2614(00)00662-x

Timings for individual modules:

Sum of individual times          ...      171.943 sec (=   2.866 min)
Startup calculation              ...       14.325 sec (=   0.239 min)   8.3 %
SCF iterations                   ...      104.789 sec (=   1.746 min)  60.9 %
Property calculations            ...        0.207 sec (=   0.003 min)   0.1 %
SCF Gradient evaluation          ...       52.447 sec (=   0.874 min)  30.5 %
Geometry relaxation              ...        0.175 sec (=   0.003 min)   0.1 %
                             ****ORCA TERMINATED NORMALLY****
TOTAL RUN TIME: 0 days 0 hours 2 minutes 53 seconds 497 msec
