
                                 *****************
                                 * O   R   C   A *
                                 *****************

                                            #,                                       
                                            ###                                      
                                            ####                                     
                                            #####                                    
                                            ######                                   
                                           ########,                                 
                                     ,,################,,,,,                         
                               ,,#################################,,                 
                          ,,##########################################,,             
                       ,#########################################, ''#####,          
                    ,#############################################,,   '####,        
                  ,##################################################,,,,####,       
                ,###########''''           ''''###############################       
              ,#####''   ,,,,##########,,,,          '''####'''          '####       
            ,##' ,,,,###########################,,,                        '##       
           ' ,,###''''                  '''############,,,                           
         ,,##''                                '''############,,,,        ,,,,,,###''
      ,#''                                            '''#######################'''  
     '                                                          ''''####''''         
             ,#######,   #######,   ,#######,      ##                                
            ,#'     '#,  ##    ##  ,#'     '#,    #''#        ,####,   ,####,        
            ##       ##  ##   ,#'  ##            #'  '#       #'       #'  '#        
            ##       ##  #######   ##           ,######,      #####,   #    #        
            '#,     ,#'  ##    ##  '#,     ,#' ,#      #,     #,   #   #,  ,#        
             '#######'   ##     ##  '#######'  #'      '#     '####' # '####'        



                #########################################################
                #                        -***-                          #
                #          Department of theory and spectroscopy        #
                #                                                       #
                #                      Frank Neese                      #
                #                                                       #
                #     Directorship, Architecture, Infrastructure        #
                #                    SHARK, DRIVERS                     #
                #        Core code/Algorithms in most modules           #
                #                                                       #
                #        Max Planck Institute fuer Kohlenforschung      #
                #                Kaiser Wilhelm Platz 1                 #
                #                 D-45470 Muelheim/Ruhr                 #
                #                      Germany                          #
                #                                                       #
                #                  All rights reserved                  #
                #                        -***-                          #
                #########################################################


                         Program Version 6.0.0  -   RELEASE   -


 With contributions from (in alphabetic order):
   Daniel Aravena         : Magnetic Suceptibility
   Michael Atanasov       : Ab Initio Ligand Field Theory (pilot matlab implementation)
   Alexander A. Auer      : GIAO ZORA, VPT2 properties, NMR spectrum
   Ute Becker             : All parallelization in ORCA, NUMFREQ, NUMCALC
   Giovanni Bistoni       : ED, misc. LED, open-shell LED, HFLD
   Martin Brehm           : Molecular dynamics
   Dmytro Bykov           : pre 5.0 version of the SCF Hessian
   Marcos Casanova-Páez   : Triplet and SCS-CIS(D). UHF-(DLPNO)-IP/EA/STEOM-CCSD. UHF-CVS-IP/STEOM-CCSD
   Vijay G. Chilkuri      : MRCI spin determinant printing, contributions to CSF-ICE
   Pauline Colinet        : FMM embedding
   Dipayan Datta          : RHF DLPNO-CCSD density
   Achintya Kumar Dutta   : EOM-CC, STEOM-CC
   Nicolas Foglia         : Exact transition moments, OPA infrastructure, MCD improvements
   Dmitry Ganyushin       : Spin-Orbit,Spin-Spin,Magnetic field MRCI
   Miquel Garcia          : C-PCM and meta-GGA Hessian, CCSD/C-PCM, Gaussian charge scheme
   Tiago L. C. Gouveia    : GS-ROHF, GS-ROCIS
   Yang Guo               : DLPNO-NEVPT2, F12-NEVPT2, CIM, IAO-localization
   Andreas Hansen         : Spin unrestricted coupled pair/coupled cluster methods
   Ingolf Harden          : AUTO-CI MPn and infrastructure 
   Benjamin Helmich-Paris : MC-RPA, TRAH-(SCF,CASSCF), AVAS, COSX integrals, SCF dyn. polar.
   Lee Huntington         : MR-EOM, pCC
   Robert Izsak           : Overlap fitted RIJCOSX, COSX-SCS-MP3, EOM
   Riya Kayal             : Wick's Theorem for AUTO-CI, AUTO-CI UHF-CCSDT
   Emily Kempfer          : AUTO-CI, RHF CISDT and CCSDT
   Christian Kollmar      : KDIIS, OOCD, Brueckner-CCSD(T), CCSD density, CASPT2, CASPT2-K, improved NEVPT2
   Axel Koslowski         : Symmetry handling
   Simone Kossmann        : Meta GGA functionals, TD-DFT gradient, OOMP2, (MP2 Hessian; deprecated post 5.0)
   Lucas Lang             : DCDCAS
   Marvin Lechner         : AUTO-CI (C++ implementation), FIC-MRCC
   Spencer Leger          : CASSCF response
   Dagmar Lenk            : GEPOL surface, SMD, ORCA-2-JSON
   Dimitrios Liakos       : Extrapolation schemes; Compound Job, initial MDCI parallelization
   Dimitrios Manganas     : Further ROCIS development; embedding schemes. LFT, Crystal Embedding
   Dimitrios Pantazis     : SARC Basis sets
   Anastasios Papadopoulos: AUTO-CI, single reference methods and gradients
   Taras Petrenko         : pre 6.0 DFT Hessian and TD-DFT gradient, (ASA, deprecated), ECA, 1-Electron XAS/XES, NRVS
   Peter Pinski           : DLPNO-MP2, DLPNO-MP2 Gradient
   Christoph Reimann      : Effective Core Potentials
   Marius Retegan         : Local ZFS, SOC
   Christoph Riplinger    : Optimizer, TS searches, QM/MM, DLPNO-CCSD(T), (RO)-DLPNO pert. Triples
   Michael Roemelt        : Original ROCIS implementation
   Masaaki Saitow         : Open-shell DLPNO-CCSD energy and density
   Barbara Sandhoefer     : DKH picture change effects
   Kantharuban Sivalingam : CASSCF convergence/infrastructure, NEVPT2 and variants, FIC-MRCI
   Bernardo de Souza      : ESD, SOC TD-DFT
   Georgi Stoychev        : AutoAux, RI-MP2 NMR, DLPNO-MP2 response, X2C
   Van Anh Tran           : RI-MP2 g-tensors
   Willem Van den Heuvel  : Paramagnetic NMR
   Zikuan Wang            : NOTCH, Electric field optimization 
   Frank Wennmohs         : Technical directorship and infrastructure
   Hang Xu                : AUTO-CI-Response properties 


 We gratefully acknowledge several colleagues who have allowed us to
 interface, adapt or use parts of their codes:
   Stefan Grimme, W. Hujo, H. Kruse, P. Pracht,  : VdW corrections, initial TS optimization,
                  C. Bannwarth, S. Ehlert,         DFT functionals, gCP, sTDA/sTD-DF
                  L. Wittmann, M. Mueller
   Ed Valeev, F. Pavosevic, A. Kumar             : LibInt (2-el integral package), F12 methods
   Garnet Chan, S. Sharma, J. Yang, R. Olivares  : DMRG
   Ulf Ekstrom                                   : XCFun DFT Library
   Mihaly Kallay                                 : mrcc  (arbitrary order and MRCC methods)
   Frank Weinhold                                : gennbo (NPA and NBO analysis)
   Simon Mueller                                 : openCOSMO-RS
   Christopher J. Cramer and Donald G. Truhlar   : smd solvation model
   Lars Goerigk                                  : TD-DFT with DH, B97 family of functionals
   V. Asgeirsson, H. Jonsson                     : NEB implementation
   FAccTs GmbH                                   : IRC, NEB, NEB-TS, DLPNO-Multilevel, CI-OPT
                                                   MM, QMMM, 2- and 3-layer-ONIOM, Crystal-QMMM,
                                                   LR-CPCM, SF, NACMEs, symmetry and pop. for TD-DFT,
                                                   nearIR, NL-DFT gradient (VV10), updates on ESD,
                                                   ML-optimized integration grids, MBIS, APM,
                                                   GOAT, DOCKER, SOLVATOR, interface openCOSMO-RS
   S Lehtola, MJT Oliveira, MAL Marques          : LibXC Library
   Liviu Ungur et al                             : ANISO software


 Your calculation uses the libint2 library for the computation of 2-el integrals
 For citations please refer to: http://libint.valeyev.net

 Your ORCA version has been built with support for libXC version: 6.2.2
 For citations please refer to: https://libxc.gitlab.io

 This ORCA versions uses:
   CBLAS   interface :  Fast vector & matrix operations
   LAPACKE interface :  Fast linear algebra routines
   Shared memory     :  Shared parallel matrices


Your calculation utilizes the atom-pairwise dispersion correction
with the Becke-Johnson damping scheme (D3BJ)


Warning: RI is on but no J-basis has been assigned. Assigning Def2/J (nothing to worry about!)
================================================================================

----- Orbital basis set information -----
Your calculation utilizes the basis: def2-SVP
   F. Weigend and R. Ahlrichs, Phys. Chem. Chem. Phys. 7, 3297 (2005).

----- AuxJ basis set information -----
Your calculation utilizes the auxiliary basis: def2/J
   F. Weigend, Phys. Chem. Chem. Phys. 8, 1057 (2006).

================================================================================
                                        WARNINGS
                       Please study these warnings very carefully!
================================================================================


WARNING: Geometry Optimization
  ===> : Switching off AutoStart
         For restart on a previous wavefunction, please use MOREAD

================================================================================
                                       INPUT FILE
================================================================================
NAME = data/geom_opt_P_BP86/342156/342156.inp
|  1> ! RI BP86 def2-SVP D3BJ TIGHTSCF Opt
|  2> %pal
|  3> nprocs 6
|  4> end
|  5> 
|  6> * xyz 0 1
|  7> C      3.229864   -1.206882   -0.699023
|  8> C      3.025283   -1.089084    0.672654
|  9> C      1.801058   -0.624707    1.160035
| 10> C      0.764748   -0.271789    0.282921
| 11> C      0.986304   -0.396013   -1.095072
| 12> C      2.211133   -0.860614   -1.582529
| 13> P     -0.798797    0.324134    0.996285
| 14> C     -2.053101   -0.750605    0.152697
| 15> C     -1.985436   -2.203158    0.622394
| 16> C     -3.025597   -3.002306   -0.037763
| 17> N     -3.850956   -3.623938   -0.565420
| 18> C     -1.078164    1.906468    0.069916
| 19> C     -0.078424    2.994167    0.460470
| 20> C     -0.368821    4.238408   -0.263349
| 21> N     -0.607394    5.215990   -0.840828
| 22> H      4.182102   -1.568121   -1.079188
| 23> H      3.818314   -1.358468    1.365805
| 24> H      1.668821   -0.542619    2.237491
| 25> H      0.216303   -0.135967   -1.816759
| 26> H      2.369389   -0.952077   -2.654497
| 27> H     -1.939672   -0.696988   -0.936173
| 28> H     -3.045019   -0.339575    0.379150
| 29> H     -1.004089   -2.638344    0.400130
| 30> H     -2.119087   -2.260248    1.709548
| 31> H     -1.048201    1.732610   -1.011866
| 32> H     -2.095941    2.247018    0.298566
| 33> H      0.946985    2.679065    0.234465
| 34> H     -0.121603    3.183642    1.539942
| 35> **                         ****END OF INPUT****
================================================================================

                       *****************************
                       * Geometry Optimization Run *
                       *****************************

Geometry optimization settings:
Update method            Update   .... BFGS
Choice of coordinates    CoordSys .... (2022) Redundant Internals
Initial Hessian          InHess   .... Almloef's Model
Max. no of cycles        MaxIter  .... 84

Convergence Tolerances:
Energy Change            TolE     ....  5.0000e-06 Eh
Max. Gradient            TolMAXG  ....  3.0000e-04 Eh/bohr
RMS Gradient             TolRMSG  ....  1.0000e-04 Eh/bohr
Max. Displacement        TolMAXD  ....  4.0000e-03 bohr
RMS Displacement         TolRMSD  ....  2.0000e-03 bohr
Strict Convergence                .... False

------------------------------------------------------------------------------
                        ORCA OPTIMIZATION COORDINATE SETUP
------------------------------------------------------------------------------

The optimization will be done in redundant internal coordinates (2022)
Making redundant internal coordinates   ...  (2022 redundants) done
Evaluating the initial hessian          ...  (Almloef) done
Evaluating the coordinates              ...  done
Calculating the B-matrix                .... done
Calculating the G-matrix                .... done
Diagonalizing the G-matrix              .... done
Small eigenvalue found = 9.107e-03
Small eigenvalue found = 9.689e-03
Small eigenvalue found = 1.781e-02
Small eigenvalue found = 2.708e-02
The first mode is                       ....   51
The number of degrees of freedom        ....   78

    -----------------------------------------------------------------
                    Redundant Internal Coordinates


    -----------------------------------------------------------------
         Definition                    Initial Value    Approx d2E/dq
    -----------------------------------------------------------------
      1. B(C   1,C   0)                  1.3918         0.620580   
      2. B(C   2,C   1)                  1.3971         0.608691   
      3. B(C   3,C   2)                  1.4028         0.596120   
      4. B(C   4,C   3)                  1.4012         0.599594   
      5. B(C   5,C   4)                  1.3977         0.607283   
      6. B(C   5,C   0)                  1.3922         0.619705   
      7. B(P   6,C   3)                  1.8190         0.434334   
      8. B(C   7,P   6)                  1.8547         0.380893   
      9. B(C   8,C   7)                  1.5281         0.376185   
     10. B(C   9,C   8)                  1.4685         0.468336   
     11. B(N  10,C   9)                  1.1602         1.301684   
     12. B(C  11,P   6)                  1.8547         0.380892   
     13. B(C  12,C  11)                  1.5281         0.376186   
     14. B(C  13,C  12)                  1.4685         0.468336   
     15. B(N  14,C  13)                  1.1602         1.301684   
     16. B(H  15,C   0)                  1.0871         0.363963   
     17. B(H  16,C   1)                  1.0872         0.363872   
     18. B(H  17,C   2)                  1.0886         0.361904   
     19. B(H  18,C   4)                  1.0869         0.364221   
     20. B(H  19,C   5)                  1.0874         0.363502   
     21. B(H  20,C   7)                  1.0961         0.352154   
     22. B(H  21,C   7)                  1.0973         0.350536   
     23. B(H  22,C   8)                  1.0963         0.351887   
     24. B(H  23,C   8)                  1.0968         0.351183   
     25. B(H  24,C  11)                  1.0961         0.352155   
     26. B(H  25,C  11)                  1.0973         0.350537   
     27. B(H  26,C  12)                  1.0963         0.351887   
     28. B(H  27,C  12)                  1.0968         0.351184   
     29. A(C   5,C   0,H  15)          120.1111         0.353519   
     30. A(C   1,C   0,C   5)          119.7886         0.434102   
     31. A(C   1,C   0,H  15)          120.1003         0.353603   
     32. A(C   2,C   1,H  16)          119.9422         0.352432   
     33. A(C   0,C   1,C   2)          120.0479         0.432704   
     34. A(C   0,C   1,H  16)          120.0099         0.353588   
     35. A(C   1,C   2,C   3)          120.8527         0.429590   
     36. A(C   1,C   2,H  17)          118.4745         0.352109   
     37. A(C   3,C   2,H  17)          120.6728         0.350869   
     38. A(C   2,C   3,P   6)          118.1782         0.431351   
     39. A(C   4,C   3,P   6)          123.4109         0.431801   
     40. A(C   2,C   3,C   4)          118.4109         0.428431   
     41. A(C   3,C   4,H  18)          121.3159         0.351593   
     42. A(C   3,C   4,C   5)          120.7301         0.429859   
     43. A(C   5,C   4,H  18)          117.9539         0.352351   
     44. A(C   0,C   5,C   4)          120.1698         0.432414   
     45. A(C   4,C   5,H  19)          119.9517         0.352234   
     46. A(C   0,C   5,H  19)          119.8785         0.353443   
     47. A(C   7,P   6,C  11)           99.5160         0.414799   
     48. A(C   3,P   6,C  11)          102.3037         0.424627   
     49. A(C   3,P   6,C   7)          102.3037         0.424627   
     50. A(C   8,C   7,H  20)          110.3203         0.323503   
     51. A(P   6,C   7,H  20)          110.7023         0.344144   
     52. A(P   6,C   7,C   8)          112.3996         0.388442   
     53. A(H  20,C   7,H  21)          106.2742         0.288603   
     54. A(C   8,C   7,H  21)          109.4297         0.323258   
     55. A(P   6,C   7,H  21)          107.4816         0.343878   
     56. A(C   7,C   8,C   9)          110.3500         0.378210   
     57. A(H  22,C   8,H  23)          106.8203         0.288652   
     58. A(C   9,C   8,H  23)          109.3267         0.335271   
     59. A(C   7,C   8,H  23)          110.4105         0.323356   
     60. A(C   9,C   8,H  22)          109.0805         0.335383   
     61. A(C   7,C   8,H  22)          110.7726         0.323462   
     62. L(C   8,C   9,N  10,C   7, 2) 179.9822         0.468878   
     63. L(C   8,C   9,N  10,C   7, 1) 179.4058         0.468878   
     64. A(C  12,C  11,H  25)          109.4297         0.323259   
     65. A(H  24,C  11,H  25)          106.2742         0.288603   
     66. A(P   6,C  11,H  25)          107.4816         0.343878   
     67. A(C  12,C  11,H  24)          110.3203         0.323503   
     68. A(P   6,C  11,H  24)          110.7023         0.344144   
     69. A(P   6,C  11,C  12)          112.3996         0.388442   
     70. A(H  26,C  12,H  27)          106.8202         0.288652   
     71. A(C  13,C  12,H  27)          109.3267         0.335271   
     72. A(C  11,C  12,H  27)          110.4105         0.323356   
     73. A(C  13,C  12,H  26)          109.0805         0.335383   
     74. A(C  11,C  12,H  26)          110.7727         0.323462   
     75. A(C  11,C  12,C  13)          110.3500         0.378210   
     76. L(C  12,C  13,N  14,C  11, 2) 180.0177         0.468878   
     77. L(C  12,C  13,N  14,C  11, 1) 179.4059         0.468878   
     78. D(C   2,C   1,C   0,C   5)     -0.0000         0.026652   
     79. D(C   2,C   1,C   0,H  15)    180.0000         0.026652   
     80. D(H  16,C   1,C   0,H  15)      0.0000         0.026652   
     81. D(H  16,C   1,C   0,C   5)   -180.0000         0.026652   
     82. D(C   3,C   2,C   1,C   0)     -0.0000         0.025582   
     83. D(C   3,C   2,C   1,H  16)    179.9999         0.025582   
     84. D(H  17,C   2,C   1,C   0)   -180.0000         0.025582   
     85. D(H  17,C   2,C   1,H  16)     -0.0000         0.025582   
     86. D(P   6,C   3,C   2,C   1)   -179.9999         0.024481   
     87. D(P   6,C   3,C   2,H  17)      0.0000         0.024481   
     88. D(C   4,C   3,C   2,H  17)    180.0000         0.024481   
     89. D(C   4,C   3,C   2,C   1)      0.0000         0.024481   
     90. D(H  18,C   4,C   3,C   2)   -180.0000         0.024782   
     91. D(C   5,C   4,C   3,P   6)    179.9999         0.024782   
     92. D(C   5,C   4,C   3,C   2)     -0.0000         0.024782   
     93. D(H  18,C   4,C   3,P   6)     -0.0000         0.024782   
     94. D(H  19,C   5,C   4,H  18)      0.0000         0.025458   
     95. D(C   0,C   5,C   4,H  18)    180.0000         0.025458   
     96. D(C   0,C   5,C   4,C   3)      0.0000         0.025458   
     97. D(H  19,C   5,C   0,H  15)     -0.0000         0.026573   
     98. D(H  19,C   5,C   0,C   1)    180.0000         0.026573   
     99. D(H  19,C   5,C   4,C   3)   -179.9999         0.025458   
    100. D(C   4,C   5,C   0,H  15)   -180.0000         0.026573   
    101. D(C   4,C   5,C   0,C   1)      0.0000         0.026573   
    102. D(C  11,P   6,C   3,C   4)    -51.3767         0.003850   
    103. D(C  11,P   6,C   3,C   2)    128.6232         0.003850   
    104. D(C   7,P   6,C   3,C   4)     51.3768         0.003850   
    105. D(C   7,P   6,C   3,C   2)   -128.6233         0.003850   
    106. D(H  20,C   7,P   6,C   3)    -53.9491         0.003458   
    107. D(C   8,C   7,P   6,C  11)    174.8541         0.003458   
    108. D(C   8,C   7,P   6,C   3)     69.9200         0.003458   
    109. D(H  21,C   7,P   6,C   3)   -169.6140         0.003458   
    110. D(H  20,C   7,P   6,C  11)     50.9850         0.003458   
    111. D(H  23,C   8,C   7,P   6)     57.0617         0.011291   
    112. D(H  22,C   8,C   7,H  21)    179.6033         0.011291   
    113. D(H  22,C   8,C   7,H  20)     63.0198         0.011291   
    114. D(H  22,C   8,C   7,P   6)    -61.0614         0.011291   
    115. D(C   9,C   8,C   7,H  21)     58.7002         0.011291   
    116. D(C   9,C   8,C   7,H  20)    -57.8833         0.011291   
    117. D(C   9,C   8,C   7,P   6)    178.0356         0.011291   
    118. D(H  25,C  11,P   6,C   3)    169.6141         0.003458   
    119. D(H  24,C  11,P   6,C   7)    -50.9849         0.003458   
    120. D(H  24,C  11,P   6,C   3)     53.9491         0.003458   
    121. D(C  12,C  11,P   6,C   7)   -174.8540         0.003458   
    122. D(C  12,C  11,P   6,C   3)    -69.9199         0.003458   
    123. D(H  27,C  12,C  11,P   6)    -57.0617         0.011291   
    124. D(H  26,C  12,C  11,H  25)   -179.6034         0.011291   
    125. D(H  26,C  12,C  11,H  24)    -63.0198         0.011291   
    126. D(H  26,C  12,C  11,P   6)     61.0613         0.011291   
    127. D(C  13,C  12,C  11,H  25)    -58.7002         0.011291   
    128. D(C  13,C  12,C  11,H  24)     57.8833         0.011291   
    129. D(C  13,C  12,C  11,P   6)   -178.0356         0.011291   
    -----------------------------------------------------------------

Number of atoms                         .... 28
Number of degrees of freedom            .... 129


         *************************************************************
         *                GEOMETRY OPTIMIZATION CYCLE   1            *
         *************************************************************
---------------------------------
CARTESIAN COORDINATES (ANGSTROEM)
---------------------------------
  C      3.229864   -1.206882   -0.699023
  C      3.025283   -1.089084    0.672654
  C      1.801058   -0.624707    1.160035
  C      0.764748   -0.271789    0.282921
  C      0.986304   -0.396013   -1.095072
  C      2.211133   -0.860614   -1.582529
  P     -0.798797    0.324134    0.996285
  C     -2.053101   -0.750605    0.152697
  C     -1.985436   -2.203158    0.622394
  C     -3.025597   -3.002306   -0.037763
  N     -3.850956   -3.623938   -0.565420
  C     -1.078164    1.906468    0.069916
  C     -0.078424    2.994167    0.460470
  C     -0.368821    4.238408   -0.263349
  N     -0.607394    5.215990   -0.840828
  H      4.182102   -1.568121   -1.079188
  H      3.818314   -1.358468    1.365805
  H      1.668821   -0.542619    2.237491
  H      0.216303   -0.135967   -1.816759
  H      2.369389   -0.952077   -2.654497
  H     -1.939672   -0.696988   -0.936173
  H     -3.045019   -0.339575    0.379150
  H     -1.004089   -2.638344    0.400130
  H     -2.119087   -2.260248    1.709548
  H     -1.048201    1.732610   -1.011866
  H     -2.095941    2.247018    0.298566
  H      0.946985    2.679065    0.234465
  H     -0.121603    3.183642    1.539942

----------------------------
CARTESIAN COORDINATES (A.U.)
----------------------------
  NO LB      ZA    FRAG     MASS         X           Y           Z
   0 C     6.0000    0    12.011    6.103558   -2.280676   -1.320962
   1 C     6.0000    0    12.011    5.716956   -2.058070    1.271132
   2 C     6.0000    0    12.011    3.403506   -1.180525    2.192148
   3 C     6.0000    0    12.011    1.445164   -0.513607    0.534643
   4 C     6.0000    0    12.011    1.863844   -0.748356   -2.069386
   5 C     6.0000    0    12.011    4.178436   -1.626325   -2.990546
   6 P    15.0000    0    30.974   -1.509508    0.612524    1.882706
   7 C     6.0000    0    12.011   -3.879799   -1.418438    0.288556
   8 C     6.0000    0    12.011   -3.751930   -4.163365    1.176154
   9 C     6.0000    0    12.011   -5.717550   -5.673536   -0.071362
  10 N     7.0000    0    14.007   -7.277252   -6.848250   -1.068489
  11 C     6.0000    0    12.011   -2.037435    3.602702    0.132122
  12 C     6.0000    0    12.011   -0.148200    5.658156    0.870162
  13 C     6.0000    0    12.011   -0.696971    8.009430   -0.497657
  14 N     7.0000    0    14.007   -1.147808    9.856793   -1.588935
  15 H     1.0000    0     1.008    7.903027   -2.963319   -2.039370
  16 H     1.0000    0     1.008    7.215568   -2.567132    2.580997
  17 H     1.0000    0     1.008    3.153615   -1.025401    4.228245
  18 H     1.0000    0     1.008    0.408753   -0.256940   -3.433177
  19 H     1.0000    0     1.008    4.477496   -1.799165   -5.016272
  20 H     1.0000    0     1.008   -3.665449   -1.317116   -1.769111
  21 H     1.0000    0     1.008   -5.754252   -0.641704    0.716490
  22 H     1.0000    0     1.008   -1.897453   -4.985748    0.756136
  23 H     1.0000    0     1.008   -4.004494   -4.271250    3.230578
  24 H     1.0000    0     1.008   -1.980813    3.274158   -1.912150
  25 H     1.0000    0     1.008   -3.960754    4.246249    0.564208
  26 H     1.0000    0     1.008    1.789542    5.062699    0.443075
  27 H     1.0000    0     1.008   -0.229796    6.016211    2.910069

--------------------------------
INTERNAL COORDINATES (ANGSTROEM)
--------------------------------
 C      0   0   0     0.000000000000     0.00000000     0.00000000
 C      1   0   0     1.391843219150     0.00000000     0.00000000
 C      2   1   0     1.397108831808   120.04787966     0.00000000
 C      3   2   1     1.402789542241   120.85269668     0.00000000
 C      4   3   2     1.401207825899   118.41088861     0.00000000
 C      1   2   3     1.392227434804   119.78857784     0.00000000
 P      4   3   2     1.818979215233   118.17824125   180.00007769
 C      7   4   3     1.854719158331   102.30372104   231.37674483
 C      8   7   4     1.528104722145   112.39957406    69.92002175
 C      9   8   7     1.468461676883   110.35003874   178.03555872
 N     10   9   8     1.160200729165   179.40574955     1.01525611
 C      7   4   3     1.854720014559   102.30371625   128.62324236
 C     12   7   4     1.528103926151   112.39956454   290.08008661
 C     13  12   7     1.468461789919   110.35002695   181.96440550
 N     14  13  12     1.160200688887   179.40579679   358.99214871
 H      1   2   3     1.087095327462   120.10033463   179.99998790
 H      2   1   3     1.087163380186   120.00991782   180.00005489
 H      3   2   1     1.088639745668   118.47451703   180.00003462
 H      5   4   3     1.086902750059   121.31593398   180.00000814
 H      6   1   2     1.087440037395   119.87846865   179.99998197
 H      8   7   4     1.096074266476   110.70230226   306.05092082
 H      8   7   4     1.097327636047   107.48160719   190.38604206
 H      9   8   7     1.096280107774   110.77258905   298.93864073
 H      9   8   7     1.096825272145   110.41045733    57.06172544
 H     12   7   4     1.096073300951   110.70225937    53.94913565
 H     12   7   4     1.097326362906   107.48159525   169.61405515
 H     13  12   7     1.096280597160   110.77267356    61.06128428
 H     13  12   7     1.096824963451   110.41048807   302.93827155

---------------------------
INTERNAL COORDINATES (A.U.)
---------------------------
 C      0   0   0     0.000000000000     0.00000000     0.00000000
 C      1   0   0     2.630202505549     0.00000000     0.00000000
 C      2   1   0     2.640153071399   120.04787966     0.00000000
 C      3   2   1     2.650888058364   120.85269668     0.00000000
 C      4   3   2     2.647899047657   118.41088861     0.00000000
 C      1   2   3     2.630928567911   119.78857784     0.00000000
 P      4   3   2     3.437372560086   118.17824125   180.00007769
 C      7   4   3     3.504911264583   102.30372104   231.37674483
 C      8   7   4     2.887699428807   112.39957406    69.92002175
 C      9   8   7     2.774990407468   110.35003874   178.03555872
 N     10   9   8     2.192461638497   179.40574955     1.01525611
 C      7   4   3     3.504912882619   102.30371625   128.62324236
 C     12   7   4     2.887697924595   112.39956454   290.08008661
 C     13  12   7     2.774990621074   110.35002695   181.96440550
 N     14  13  12     2.192461562383   179.40579679   358.99214871
 H      1   2   3     2.054312450369   120.10033463   179.99998790
 H      2   1   3     2.054441051380   120.00991782   180.00005489
 H      3   2   1     2.057230977815   118.47451703   180.00003462
 H      5   4   3     2.053948531818   121.31593398   180.00000814
 H      6   1   2     2.054963857737   119.87846865   179.99998197
 H      8   7   4     2.071280186077   110.70230226   306.05092082
 H      8   7   4     2.073648711312   107.48160719   190.38604206
 H      9   8   7     2.071669169759   110.77258905   298.93864073
 H      9   8   7     2.072699381119   110.41045733    57.06172544
 H     12   7   4     2.071278361500   110.70225937    53.94913565
 H     12   7   4     2.073646305425   107.48159525   169.61405515
 H     13  12   7     2.071670094564   110.77267356    61.06128428
 H     13  12   7     2.072698797771   110.41048807   302.93827155

---------------------
BASIS SET INFORMATION
---------------------
There are 4 groups of distinct atoms

 Group   1 Type C   : 7s4p1d contracted to 3s2p1d pattern {511/31/1}
 Group   2 Type P   : 10s7p1d contracted to 4s3p1d pattern {5311/511/1}
 Group   3 Type N   : 7s4p1d contracted to 3s2p1d pattern {511/31/1}
 Group   4 Type H   : 4s1p contracted to 2s1p pattern {31/1}

Atom   0C    basis set group =>   1
Atom   1C    basis set group =>   1
Atom   2C    basis set group =>   1
Atom   3C    basis set group =>   1
Atom   4C    basis set group =>   1
Atom   5C    basis set group =>   1
Atom   6P    basis set group =>   2
Atom   7C    basis set group =>   1
Atom   8C    basis set group =>   1
Atom   9C    basis set group =>   1
Atom  10N    basis set group =>   3
Atom  11C    basis set group =>   1
Atom  12C    basis set group =>   1
Atom  13C    basis set group =>   1
Atom  14N    basis set group =>   3
Atom  15H    basis set group =>   4
Atom  16H    basis set group =>   4
Atom  17H    basis set group =>   4
Atom  18H    basis set group =>   4
Atom  19H    basis set group =>   4
Atom  20H    basis set group =>   4
Atom  21H    basis set group =>   4
Atom  22H    basis set group =>   4
Atom  23H    basis set group =>   4
Atom  24H    basis set group =>   4
Atom  25H    basis set group =>   4
Atom  26H    basis set group =>   4
Atom  27H    basis set group =>   4
---------------------------------
AUXILIARY/J BASIS SET INFORMATION
---------------------------------
There are 4 groups of distinct atoms

 Group   1 Type C   : 12s5p4d2f1g contracted to 6s4p3d1f1g pattern {711111/2111/211/2/1}
 Group   2 Type P   : 14s5p5d2f1g contracted to 8s4p3d1f1g pattern {71111111/2111/311/2/1}
 Group   3 Type N   : 12s5p4d2f1g contracted to 6s4p3d1f1g pattern {711111/2111/211/2/1}
 Group   4 Type H   : 5s2p1d contracted to 3s1p1d pattern {311/2/1}

Atom   0C    basis set group =>   1
Atom   1C    basis set group =>   1
Atom   2C    basis set group =>   1
Atom   3C    basis set group =>   1
Atom   4C    basis set group =>   1
Atom   5C    basis set group =>   1
Atom   6P    basis set group =>   2
Atom   7C    basis set group =>   1
Atom   8C    basis set group =>   1
Atom   9C    basis set group =>   1
Atom  10N    basis set group =>   3
Atom  11C    basis set group =>   1
Atom  12C    basis set group =>   1
Atom  13C    basis set group =>   1
Atom  14N    basis set group =>   3
Atom  15H    basis set group =>   4
Atom  16H    basis set group =>   4
Atom  17H    basis set group =>   4
Atom  18H    basis set group =>   4
Atom  19H    basis set group =>   4
Atom  20H    basis set group =>   4
Atom  21H    basis set group =>   4
Atom  22H    basis set group =>   4
Atom  23H    basis set group =>   4
Atom  24H    basis set group =>   4
Atom  25H    basis set group =>   4
Atom  26H    basis set group =>   4
Atom  27H    basis set group =>   4


           ************************************************************
           *        Program running with 6 parallel MPI-processes     *
           *              working on a common directory               *
           ************************************************************
------------------------------------------------------------------------------
                             ORCA STARTUP CALCULATIONS
                           -- RI-GTO INTEGRALS CHOSEN --
------------------------------------------------------------------------------
------------------------------------------------------------------------------
                   ___                                                        
                  /   \      - P O W E R E D   B Y -                         
                 /     \                                                     
                 |  |  |   _    _      __       _____    __    __             
                 |  |  |  | |  | |    /  \     |  _  \  |  |  /  |          
                  \  \/   | |  | |   /    \    | | | |  |  | /  /          
                 / \  \   | |__| |  /  /\  \   | |_| |  |  |/  /          
                |  |  |   |  __  | /  /__\  \  |    /   |      \           
                |  |  |   | |  | | |   __   |  |    \   |  |\   \          
                \     /   | |  | | |  |  |  |  | |\  \  |  | \   \       
                 \___/    |_|  |_| |__|  |__|  |_| \__\ |__|  \__/        
                                                                              
                      - O R C A' S   B I G   F R I E N D -                    
                                      &                                       
                       - I N T E G R A L  F E E D E R -                       
                                                                              
 v1 FN, 2020, v2 2021, v3 2022-2024                                           
------------------------------------------------------------------------------


----------------------
SHARK INTEGRAL PACKAGE
----------------------

Number of atoms                             ...     28
Number of basis functions                   ...    279
Number of shells                            ...    131
Maximum angular momentum                    ...      2
Integral batch strategy                     ... SHARK/LIBINT Hybrid
RI-J (if used) integral strategy            ... SPLIT-RIJ (Revised 2003 algorithm where possible)
Printlevel                                  ...      1
Contraction scheme used                     ... SEGMENTED contraction
Prescreening option                         ... SCHWARTZ
   Thresh                                   ... 2.500e-11
   Tcut                                     ... 2.500e-12
   Tpresel                                  ... 2.500e-12 
Coulomb Range Separation                    ... NOT USED
Exchange Range Separation                   ... NOT USED
Multipole approximations                    ... NOT USED
Finite Nucleus Model                        ... NOT USED
CABS basis                                  ... NOT available
Auxiliary Coulomb fitting basis             ... AVAILABLE
   # of basis functions in Aux-J            ...    880
   # of shells in Aux-J                     ...    292
   Maximum angular momentum in Aux-J        ...      4
Auxiliary J/K fitting basis                 ... NOT available
Auxiliary Correlation fitting basis         ... NOT available
Auxiliary 'external' fitting basis          ... NOT available

Checking pre-screening integrals            ... done (  0.0 sec) Dimension = 131
Check shell pair data                       ... done (  0.0 sec)
Shell pair information
Shell pair cut-off parameter TPreSel        ...   2.5e-12
Total number of shell pairs                 ...      8646
Shell pairs after pre-screening             ...      7042
Total number of primitive shell pairs       ...     31870
Primitive shell pairs kept                  ...     17135
          la=0 lb=0:   2183 shell pairs
          la=1 lb=0:   2644 shell pairs
          la=1 lb=1:    824 shell pairs
          la=2 lb=0:    819 shell pairs
          la=2 lb=1:    497 shell pairs
          la=2 lb=2:     75 shell pairs

Calculating one electron integrals          ... done (  0.0 sec)
Calculating RI/J V-Matrix + Cholesky decomp.... done (  0.0 sec)
Calculating Nuclear repulsion               ... done (  0.0 sec) ENN=    974.637234480065 Eh

Diagonalization of the overlap matrix:
Smallest eigenvalue                        ... 2.861e-04
Time for diagonalization                   ...    0.009 sec
Threshold for overlap eigenvalues          ... 1.000e-07
Number of eigenvalues below threshold      ... 0
Time for construction of square roots      ...    0.009 sec
Total time needed                          ...    0.020 sec

-------------------
DFT GRID GENERATION
-------------------

General Integration Accuracy     IntAcc      ... 4.388
Radial Grid Type                 RadialGrid  ... OptM3 with GC (2021)
Angular Grid (max. ang.)         AngularGrid ... 4 (Lebedev-302)
Angular grid pruning method      GridPruning ... 4 (adaptive)
Weight generation scheme         WeightScheme... mBecke (2022)
Basis function cutoff            BFCut       ... 1.0000e-11
Integration weight cutoff        WCut        ... 1.0000e-14
Partially contracted basis set               ... off
Rotationally invariant grid construction     ... off
Angular grids for H and He will be reduced by one unit

Total number of grid points                  ...   132655
Total number of batches                      ...     2088
Average number of points per batch           ...       63
Average number of grid points per atom       ...     4738
Initializing property integral containers    ... done (  0.0 sec)

SHARK setup successfully completed in   0.9 seconds

Maximum memory used throughout the entire STARTUP-calculation: 35.4 MB


           ************************************************************
           *        Program running with 6 parallel MPI-processes     *
           *              working on a common directory               *
           ************************************************************
-------------------------------------------------------------------------------
                                 ORCA GUESS
                   Start orbitals & Density for SCF / CASSCF
-------------------------------------------------------------------------------

------------
SCF SETTINGS
------------
Hamiltonian:
 Density Functional     Method          .... DFT(GTOs)
 Exchange Functional    Exchange        .... B88
   X-Alpha parameter    XAlpha          ....  0.666667
   Becke's b parameter  XBeta           ....  0.004200
 Correlation Functional Correlation     .... P86
 LDA part of GGA corr.  LDAOpt          .... PW91-LDA
 Gradients option       PostSCFGGA      .... off
   NL short-range parameter             ....  4.400000
 RI-approximation to the Coulomb term is turned on
   Number of AuxJ basis functions       .... 880


General Settings:
 Integral files         IntName         .... data/geom_opt_P_BP86/342156/342156
 Hartree-Fock type      HFTyp           .... RHF
 Total Charge           Charge          ....    0
 Multiplicity           Mult            ....    1
 Number of Electrons    NEL             ....  114
 Basis Dimension        Dim             ....  279
 Nuclear Repulsion      ENuc            ....    974.6372344801 Eh

Convergence Acceleration:
 AO-DIIS                CNVDIIS         .... on
   Start iteration      DIISMaxIt       ....    12
   Startup error        DIISStart       ....  0.200000
   # of expansion vecs  DIISMaxEq       ....     5
   Bias factor          DIISBfac        ....   1.050
   Max. coefficient     DIISMaxC        ....  10.000
 MO-DIIS                CNVKDIIS        .... off
 Trust-Rad. Augm. Hess. CNVTRAH         .... auto
   Auto Start mean grad. ratio tolernc. ....  1.125000
   Auto Start start iteration           ....    50
   Auto Start num. interpolation iter.  ....    10
   Max. Number of Micro iterations      ....    24
   Max. Number of Macro iterations      .... Maxiter - #DIIS iter
   Number of Davidson start vectors     ....     2
   Converg. threshold    (grad. norm)   ....   1.000e-05
   Grad. Scal. Fac. for Micro threshold ....   0.100
   Minimum threshold for Micro iter.    ....   1.000e-02
   NR start threshold (gradient norm)   ....   1.000e-04
   Initial trust radius                 ....   0.400
   Minimum AH scaling param. (alpha)    ....   1.000
   Maximum AH scaling param. (alpha)    .... 1000.000
   Quad. conv. algorithm                .... NR
   White noise on init. David. guess    .... on
   Maximum white noise                  ....   0.010
   Pseudo random numbers                .... off
   Inactive MOs                         .... canonical
   Orbital update algorithm             .... Taylor
   Preconditioner                       .... Diag
   Full preconditioner red. dimension   ....   250
 SOSCF                  CNVSOSCF        .... on
   Start iteration      SOSCFMaxIt      ....   150
   Startup grad/error   SOSCFStart      ....  0.003300
   Hessian update       SOSCFHessUp     .... L-BFGS
 Level Shifting         CNVShift        .... on
   Level shift para.    LevelShift      ....    0.2500
   Turn off err/grad.   ShiftErr        ....    0.0010
 Zerner damping         CNVZerner       .... off
 Static damping         CNVDamp         .... on
   Fraction old density DampFac         ....    0.7000
   Max. Damping (<1)    DampMax         ....    0.9800
   Min. Damping (>=0)   DampMin         ....    0.0000
   Turn off err/grad.   DampErr         ....    0.1000

SCF Procedure:
 Maximum # iterations   MaxIter         ....   125
 SCF integral mode      SCFMode         .... Direct
   Integral package                     .... SHARK and LIBINT hybrid scheme
 Reset frequency        DirectResetFreq ....    20
 Integral Threshold     Thresh          ....  2.500e-11 Eh
 Primitive CutOff       TCut            ....  2.500e-12 Eh

Convergence Tolerance:
 Convergence Check Mode ConvCheckMode   .... Total+1el-Energy
 Convergence forced     ConvForced      .... 0
 Energy Change          TolE            ....  1.000e-08 Eh
 1-El. energy change                    ....  1.000e-05 Eh
 Orbital Gradient       TolG            ....  1.000e-05
 Orbital Rotation angle TolX            ....  1.000e-05
 DIIS Error             TolErr          ....  5.000e-07

------------------------------
INITIAL GUESS: MODEL POTENTIAL
------------------------------
Loading Hartree-Fock densities                     ... done
Calculating cut-offs                               ... done
Initializing the effective Hamiltonian             ... done
Setting up the integral package (SHARK)            ... done
Starting the Coulomb interaction                   ... done (   0.1 sec)
Making the grid                                    ... done (   0.2 sec)
Mapping shells                                     ... done
Starting the XC term evaluation                    ... done (   0.1 sec)
  promolecular density results
     # of electrons  =    113.992898801
     EX              =   -101.209098609
     EC              =     -4.206237315
     EX+EC           =   -105.415335924
Transforming the Hamiltonian                       ... done (   0.0 sec)
Diagonalizing the Hamiltonian                      ... done (   0.0 sec)
Back transforming the eigenvectors                 ... done (   0.0 sec)
Now organizing SCF variables                       ... done
                      ------------------
                      INITIAL GUESS DONE (   0.4 sec)
                      ------------------
             **** ENERGY FILE WAS UPDATED (data/geom_opt_P_BP86/342156/342156.en.tmp) ****
Finished Guess after   0.5 sec
Maximum memory used throughout the entire GUESS-calculation: 19.7 MB


           ************************************************************
           *        Program running with 6 parallel MPI-processes     *
           *              working on a common directory               *
           ************************************************************

-------------------------------------------------------------------------------------------
                                      ORCA LEAN-SCF
                              memory conserving SCF solver
-------------------------------------------------------------------------------------------

----------------------------------------D-I-I-S--------------------------------------------
Iteration    Energy (Eh)           Delta-E    RMSDP     MaxDP     DIISErr   Damp  Time(sec)
-------------------------------------------------------------------------------------------
               ***  Starting incremental Fock matrix formation  ***
    1    -915.0827936885059444     0.00e+00  2.80e-03  8.94e-02  2.33e-01  0.700   0.7
    2    -915.2615641157526625    -1.79e-01  1.84e-03  4.65e-02  6.78e-02  0.700   0.7
                               ***Turning on AO-DIIS***
    3    -915.3121617304757365    -5.06e-02  8.54e-04  3.73e-02  3.81e-02  0.700   0.7
    4    -915.3487225934723028    -3.66e-02  1.50e-03  8.90e-02  2.71e-02  0.000   0.6
    5    -915.4311342309554220    -8.24e-02  3.38e-04  1.42e-02  7.35e-03  0.000   0.6
                              *** Initializing SOSCF ***
---------------------------------------S-O-S-C-F--------------------------------------
Iteration    Energy (Eh)           Delta-E    RMSDP     MaxDP     MaxGrad    Time(sec)
--------------------------------------------------------------------------------------
    6    -915.4321204972748092    -9.86e-04  1.04e-04  2.66e-03  1.42e-03     0.6
               *** Restarting incremental Fock matrix formation ***
    7    -915.4321739152451300    -5.34e-05  8.41e-05  2.72e-03  2.58e-04     0.7
    8    -915.4321700031143791     3.91e-06  3.49e-05  1.16e-03  7.33e-04     0.5
    9    -915.4321787447083807    -8.74e-06  3.73e-05  1.68e-03  2.03e-04     0.5
   10    -915.4321777891473175     9.56e-07  1.68e-05  5.37e-04  2.76e-04     0.5
   11    -915.4321798312912506    -2.04e-06  2.54e-05  1.10e-03  2.13e-04     0.6
   12    -915.4321791209110870     7.10e-07  1.54e-05  6.43e-04  1.68e-04     0.6
   13    -915.4321806380451108    -1.52e-06  6.61e-06  3.10e-04  3.87e-05     0.5
   14    -915.4321805599097388     7.81e-08  4.23e-06  2.07e-04  5.49e-05     0.7
   15    -915.4321806890886819    -1.29e-07  1.50e-06  5.93e-05  1.24e-05     0.8
   16    -915.4321806728546562     1.62e-08  1.04e-06  3.82e-05  2.93e-05     0.6
   17    -915.4321806905688845    -1.77e-08  2.90e-07  1.07e-05  1.20e-06     0.5
                  *** Gradient check signals convergence ***

               *****************************************************
               *                     SUCCESS                       *
               *           SCF CONVERGED AFTER  17 CYCLES          *
               *****************************************************

             **** ENERGY FILE WAS UPDATED (data/geom_opt_P_BP86/342156/342156.en.tmp) ****

----------------
TOTAL SCF ENERGY
----------------

Total Energy       :       -915.43218069056888 Eh          -24910.17605 eV

Components:
Nuclear Repulsion  :        974.63723448006522 Eh           26521.22746 eV
Electronic Energy  :      -1890.06941517063410 Eh          -51431.40351 eV
One Electron Energy:      -3180.87565354414937 Eh          -86556.02696 eV
Two Electron Energy:       1290.80623837351527 Eh           35124.62345 eV

Virial components:
Potential Energy   :      -1823.48608510788972 Eh          -49619.57899 eV
Kinetic Energy     :        908.05390441732095 Eh           24709.40294 eV
Virial Ratio       :          2.00812537255482

DFT components:
N(Alpha)           :       56.999953016175 electrons
N(Beta)            :       56.999953016175 electrons
N(Total)           :      113.999906032349 electrons
E(X)               :     -102.646176178084 Eh       
E(C)               :       -4.215874539971 Eh       
E(XC)              :     -106.862050718055 Eh       

---------------
SCF CONVERGENCE
---------------

  Last Energy change         ...    1.7714e-08  Tolerance :   1.0000e-08
  Last MAX-Density change    ...    1.0704e-05  Tolerance :   1.0000e-07
  Last RMS-Density change    ...    2.9020e-07  Tolerance :   5.0000e-09
  Last DIIS Error            ...    1.4209e-03  Tolerance :   5.0000e-07
  Last Orbital Gradient      ...    1.1981e-06  Tolerance :   1.0000e-05
  Last Orbital Rotation      ...    2.2299e-06  Tolerance :   1.0000e-05


----------------
ORBITAL ENERGIES
----------------

  NO   OCC          E(Eh)            E(eV) 
   0   2.0000     -76.359336     -2077.8432 
   1   2.0000     -14.010507      -381.2453 
   2   2.0000     -14.010500      -381.2451 
   3   2.0000      -9.974285      -271.4141 
   4   2.0000      -9.974274      -271.4138 
   5   2.0000      -9.954046      -270.8634 
   6   2.0000      -9.954040      -270.8632 
   7   2.0000      -9.949467      -270.7388 
   8   2.0000      -9.949456      -270.7385 
   9   2.0000      -9.944783      -270.6113 
  10   2.0000      -9.944067      -270.5918 
  11   2.0000      -9.942764      -270.5564 
  12   2.0000      -9.940771      -270.5021 
  13   2.0000      -9.940545      -270.4960 
  14   2.0000      -9.939490      -270.4673 
  15   2.0000      -6.329901      -172.2454 
  16   2.0000      -4.551366      -123.8490 
  17   2.0000      -4.551123      -123.8424 
  18   2.0000      -4.547400      -123.7410 
  19   2.0000      -0.820589       -22.3294 
  20   2.0000      -0.820277       -22.3209 
  21   2.0000      -0.801081       -21.7985 
  22   2.0000      -0.756897       -20.5962 
  23   2.0000      -0.742255       -20.1978 
  24   2.0000      -0.703172       -19.1343 
  25   2.0000      -0.695451       -18.9242 
  26   2.0000      -0.651023       -17.7152 
  27   2.0000      -0.602757       -16.4018 
  28   2.0000      -0.574468       -15.6321 
  29   2.0000      -0.565598       -15.3907 
  30   2.0000      -0.521784       -14.1985 
  31   2.0000      -0.485991       -13.2245 
  32   2.0000      -0.484258       -13.1773 
  33   2.0000      -0.464002       -12.6261 
  34   2.0000      -0.455700       -12.4002 
  35   2.0000      -0.450432       -12.2569 
  36   2.0000      -0.431708       -11.7474 
  37   2.0000      -0.424060       -11.5392 
  38   2.0000      -0.406932       -11.0732 
  39   2.0000      -0.399118       -10.8606 
  40   2.0000      -0.384643       -10.4667 
  41   2.0000      -0.380646       -10.3579 
  42   2.0000      -0.365365        -9.9421 
  43   2.0000      -0.358294        -9.7497 
  44   2.0000      -0.354650        -9.6505 
  45   2.0000      -0.339726        -9.2444 
  46   2.0000      -0.329314        -8.9611 
  47   2.0000      -0.311277        -8.4703 
  48   2.0000      -0.306311        -8.3351 
  49   2.0000      -0.305943        -8.3251 
  50   2.0000      -0.300742        -8.1836 
  51   2.0000      -0.296275        -8.0620 
  52   2.0000      -0.295881        -8.0513 
  53   2.0000      -0.292732        -7.9656 
  54   2.0000      -0.257435        -7.0052 
  55   2.0000      -0.256625        -6.9831 
  56   2.0000      -0.222413        -6.0522 
  57   0.0000      -0.081113        -2.2072 
  58   0.0000      -0.067067        -1.8250 
  59   0.0000      -0.019157        -0.5213 
  60   0.0000      -0.017233        -0.4689 
  61   0.0000      -0.007622        -0.2074 
  62   0.0000      -0.004412        -0.1201 
  63   0.0000       0.013024         0.3544 
  64   0.0000       0.018498         0.5034 
  65   0.0000       0.022402         0.6096 
  66   0.0000       0.035646         0.9700 
  67   0.0000       0.046139         1.2555 
*Only the first 10 virtual orbitals were printed.

                    ********************************
                    * MULLIKEN POPULATION ANALYSIS *
                    ********************************

-----------------------
MULLIKEN ATOMIC CHARGES
-----------------------
   0 C :    0.016181
   1 C :    0.008129
   2 C :    0.014707
   3 C :   -0.137542
   4 C :   -0.001772
   5 C :    0.013385
   6 P :    0.171723
   7 C :   -0.198873
   8 C :    0.102563
   9 C :   -0.280631
  10 N :    0.057925
  11 C :   -0.198947
  12 C :    0.102540
  13 C :   -0.280634
  14 N :    0.057934
  15 H :    0.007732
  16 H :    0.006146
  17 H :   -0.001554
  18 H :   -0.001958
  19 H :    0.005277
  20 H :    0.057674
  21 H :    0.075902
  22 H :    0.069570
  23 H :    0.065647
  24 H :    0.057724
  25 H :    0.075887
  26 H :    0.069615
  27 H :    0.065649
Sum of atomic charges:   -0.0000000

--------------------------------
MULLIKEN REDUCED ORBITAL CHARGES
--------------------------------
  0 C s       :     3.170756  s :     3.170756
      pz      :     0.950591  p :     2.779973
      px      :     0.877204
      py      :     0.952178
      dz2     :     0.009501  d :     0.033090
      dxz     :     0.010453
      dyz     :     0.006260
      dx2y2   :     0.003507
      dxy     :     0.003369

  1 C s       :     3.173468  s :     3.173468
      pz      :     0.917195  p :     2.785729
      px      :     0.900667
      py      :     0.967867
      dz2     :     0.008058  d :     0.032673
      dxz     :     0.011581
      dyz     :     0.005391
      dx2y2   :     0.003899
      dxy     :     0.003745

  2 C s       :     3.231219  s :     3.231219
      pz      :     0.841097  p :     2.721275
      px      :     0.923273
      py      :     0.956904
      dz2     :     0.009376  d :     0.032800
      dxz     :     0.008931
      dyz     :     0.003083
      dx2y2   :     0.005626
      dxy     :     0.005784

  3 C s       :     3.081971  s :     3.081971
      pz      :     0.999419  p :     3.020473
      px      :     0.999685
      py      :     1.021369
      dz2     :     0.009449  d :     0.035097
      dxz     :     0.011345
      dyz     :     0.006638
      dx2y2   :     0.003877
      dxy     :     0.003789

  4 C s       :     3.218878  s :     3.218878
      pz      :     0.906809  p :     2.749983
      px      :     0.882648
      py      :     0.960526
      dz2     :     0.007804  d :     0.032911
      dxz     :     0.011955
      dyz     :     0.005470
      dx2y2   :     0.003903
      dxy     :     0.003779

  5 C s       :     3.171759  s :     3.171759
      pz      :     0.845463  p :     2.782052
      px      :     0.962670
      py      :     0.973919
      dz2     :     0.009333  d :     0.032803
      dxz     :     0.009119
      dyz     :     0.003253
      dx2y2   :     0.005499
      dxy     :     0.005599

  6 P s       :     5.768977  s :     5.768977
      pz      :     3.339346  p :     8.889926
      px      :     2.772305
      py      :     2.778276
      dz2     :     0.016403  d :     0.169373
      dxz     :     0.032964
      dyz     :     0.037067
      dx2y2   :     0.040177
      dxy     :     0.042763

  7 C s       :     3.109313  s :     3.109313
      pz      :     1.044727  p :     3.061306
      px      :     1.049744
      py      :     0.966836
      dz2     :     0.008947  d :     0.028254
      dxz     :     0.002392
      dyz     :     0.004912
      dx2y2   :     0.005624
      dxy     :     0.006379

  8 C s       :     2.836774  s :     2.836774
      pz      :     1.043490  p :     3.025136
      px      :     1.037752
      py      :     0.943894
      dz2     :     0.008873  d :     0.035527
      dxz     :     0.004169
      dyz     :     0.005939
      dx2y2   :     0.006790
      dxy     :     0.009755

  9 C s       :     3.164757  s :     3.164757
      pz      :     1.004514  p :     3.072685
      px      :     1.061030
      py      :     1.007141
      dz2     :     0.008801  d :     0.043190
      dxz     :     0.007956
      dyz     :     0.005833
      dx2y2   :     0.012379
      dxy     :     0.008221

 10 N s       :     3.545538  s :     3.545538
      pz      :     1.093410  p :     3.366380
      px      :     1.160891
      py      :     1.112078
      dz2     :     0.005013  d :     0.030158
      dxz     :     0.006326
      dyz     :     0.004443
      dx2y2   :     0.007400
      dxy     :     0.006976

 11 C s       :     3.109332  s :     3.109332
      pz      :     1.045648  p :     3.061361
      px      :     1.032882
      py      :     0.982832
      dz2     :     0.008777  d :     0.028255
      dxz     :     0.002311
      dyz     :     0.005107
      dx2y2   :     0.006622
      dxy     :     0.005437

 12 C s       :     2.836766  s :     2.836766
      pz      :     1.042428  p :     3.025166
      px      :     1.037727
      py      :     0.945011
      dz2     :     0.008516  d :     0.035527
      dxz     :     0.003147
      dyz     :     0.007551
      dx2y2   :     0.009726
      dxy     :     0.006588

 13 C s       :     3.164755  s :     3.164755
      pz      :     1.011806  p :     3.072690
      px      :     0.974311
      py      :     1.086573
      dz2     :     0.009641  d :     0.043189
      dxz     :     0.003814
      dyz     :     0.009979
      dx2y2   :     0.008521
      dxy     :     0.011234

 14 N s       :     3.545538  s :     3.545538
      pz      :     1.102738  p :     3.366370
      px      :     1.055501
      py      :     1.208132
      dz2     :     0.005416  d :     0.030158
      dxz     :     0.002677
      dyz     :     0.008404
      dx2y2   :     0.006705
      dxy     :     0.006955

 15 H s       :     0.969968  s :     0.969968
      pz      :     0.004910  p :     0.022300
      px      :     0.011578
      py      :     0.005811

 16 H s       :     0.971483  s :     0.971483
      pz      :     0.007778  p :     0.022371
      px      :     0.009195
      py      :     0.005398

 17 H s       :     0.979016  s :     0.979016
      pz      :     0.013688  p :     0.022538
      px      :     0.004067
      py      :     0.004783

 18 H s       :     0.979267  s :     0.979267
      pz      :     0.008010  p :     0.022691
      px      :     0.009073
      py      :     0.005607

 19 H s       :     0.972346  s :     0.972346
      pz      :     0.013494  p :     0.022377
      px      :     0.004050
      py      :     0.004832

 20 H s       :     0.919926  s :     0.919926
      pz      :     0.013025  p :     0.022400
      px      :     0.005280
      py      :     0.004095

 21 H s       :     0.901702  s :     0.901702
      pz      :     0.005476  p :     0.022396
      px      :     0.011712
      py      :     0.005208

 22 H s       :     0.907696  s :     0.907696
      pz      :     0.005285  p :     0.022734
      px      :     0.012119
      py      :     0.005330

 23 H s       :     0.911987  s :     0.911987
      pz      :     0.013521  p :     0.022365
      px      :     0.004715
      py      :     0.004129

 24 H s       :     0.919877  s :     0.919877
      pz      :     0.012945  p :     0.022399
      px      :     0.004719
      py      :     0.004734

 25 H s       :     0.901716  s :     0.901716
      pz      :     0.005490  p :     0.022397
      px      :     0.011629
      py      :     0.005278

 26 H s       :     0.907649  s :     0.907649
      pz      :     0.005272  p :     0.022736
      px      :     0.012358
      py      :     0.005106

 27 H s       :     0.911987  s :     0.911987
      pz      :     0.013419  p :     0.022364
      px      :     0.004781
      py      :     0.004164



                     *******************************
                     * LOEWDIN POPULATION ANALYSIS *
                     *******************************

----------------------
LOEWDIN ATOMIC CHARGES
----------------------
   0 C :   -0.015010
   1 C :   -0.023228
   2 C :   -0.029144
   3 C :   -0.193540
   4 C :   -0.030670
   5 C :   -0.021112
   6 P :    0.462342
   7 C :   -0.168028
   8 C :   -0.062433
   9 C :   -0.041633
  10 N :   -0.069132
  11 C :   -0.168050
  12 C :   -0.062435
  13 C :   -0.041632
  14 N :   -0.069128
  15 H :    0.035044
  16 H :    0.034698
  17 H :    0.029571
  18 H :    0.026667
  19 H :    0.034782
  20 H :    0.027043
  21 H :    0.040086
  22 H :    0.059588
  23 H :    0.059313
  24 H :    0.027048
  25 H :    0.040082
  26 H :    0.059590
  27 H :    0.059320

-------------------------------
LOEWDIN REDUCED ORBITAL CHARGES
-------------------------------
  0 C s       :     2.864409  s :     2.864409
      pz      :     1.067574  p :     3.061139
      px      :     1.034849
      py      :     0.958716
      dz2     :     0.028486  d :     0.089462
      dxz     :     0.030443
      dyz     :     0.014564
      dx2y2   :     0.008381
      dxy     :     0.007588

  1 C s       :     2.864638  s :     2.864638
      pz      :     1.058785  p :     3.069994
      px      :     1.040578
      py      :     0.970630
      dz2     :     0.024675  d :     0.088596
      dxz     :     0.032653
      dyz     :     0.012432
      dx2y2   :     0.009823
      dxy     :     0.009014

  2 C s       :     2.871614  s :     2.871614
      pz      :     1.045211  p :     3.067813
      px      :     1.055402
      py      :     0.967200
      dz2     :     0.026204  d :     0.089718
      dxz     :     0.026872
      dyz     :     0.007021
      dx2y2   :     0.015032
      dxy     :     0.014589

  3 C s       :     2.913469  s :     2.913469
      pz      :     1.098253  p :     3.187606
      px      :     1.078050
      py      :     1.011304
      dz2     :     0.027917  d :     0.092465
      dxz     :     0.032623
      dyz     :     0.015335
      dx2y2   :     0.008599
      dxy     :     0.007990

  4 C s       :     2.867058  s :     2.867058
      pz      :     1.058186  p :     3.073323
      px      :     1.043000
      py      :     0.972137
      dz2     :     0.024033  d :     0.090289
      dxz     :     0.034456
      dyz     :     0.012966
      dx2y2   :     0.009788
      dxy     :     0.009046

  5 C s       :     2.864732  s :     2.864732
      pz      :     1.043510  p :     3.067504
      px      :     1.052956
      py      :     0.971038
      dz2     :     0.025637  d :     0.088876
      dxz     :     0.027510
      dyz     :     0.007256
      dx2y2   :     0.014483
      dxy     :     0.013990

  6 P s       :     5.289290  s :     5.289290
      pz      :     3.412978  p :     9.018225
      px      :     2.802516
      py      :     2.802731
      dz2     :     0.022395  d :     0.230143
      dxz     :     0.043639
      dyz     :     0.048650
      dx2y2   :     0.055809
      dxy     :     0.059651

  7 C s       :     2.896280  s :     2.896280
      pz      :     1.090035  p :     3.199807
      px      :     1.090740
      py      :     1.019033
      dz2     :     0.022870  d :     0.071941
      dxz     :     0.006306
      dyz     :     0.011775
      dx2y2   :     0.015482
      dxy     :     0.015508

  8 C s       :     2.830962  s :     2.830962
      pz      :     1.064191  p :     3.139030
      px      :     1.050202
      py      :     1.024637
      dz2     :     0.024161  d :     0.092440
      dxz     :     0.010671
      dyz     :     0.014012
      dx2y2   :     0.019740
      dxy     :     0.023856

  9 C s       :     2.924603  s :     2.924603
      pz      :     0.979471  p :     3.014119
      px      :     1.044194
      py      :     0.990454
      dz2     :     0.017991  d :     0.102912
      dxz     :     0.020859
      dyz     :     0.014768
      dx2y2   :     0.025429
      dxy     :     0.023865

 10 N s       :     3.431238  s :     3.431238
      pz      :     1.144115  p :     3.585416
      px      :     1.267525
      py      :     1.173777
      dz2     :     0.007537  d :     0.052478
      dxz     :     0.011958
      dyz     :     0.008018
      dx2y2   :     0.010953
      dxy     :     0.014012

 11 C s       :     2.896282  s :     2.896282
      pz      :     1.092309  p :     3.199829
      px      :     1.059016
      py      :     1.048504
      dz2     :     0.022570  d :     0.071939
      dxz     :     0.005375
      dyz     :     0.012872
      dx2y2   :     0.016039
      dxy     :     0.015082

 12 C s       :     2.830960  s :     2.830960
      pz      :     1.062893  p :     3.139036
      px      :     1.061788
      py      :     1.014355
      dz2     :     0.023453  d :     0.092440
      dxz     :     0.006559
      dyz     :     0.019473
      dx2y2   :     0.023641
      dxy     :     0.019314

 13 C s       :     2.924601  s :     2.924601
      pz      :     0.988515  p :     3.014119
      px      :     0.941099
      py      :     1.084505
      dz2     :     0.019339  d :     0.102912
      dxz     :     0.008416
      dyz     :     0.028317
      dx2y2   :     0.023010
      dxy     :     0.023830

 14 N s       :     3.431238  s :     3.431238
      pz      :     1.161025  p :     3.585411
      px      :     1.075729
      py      :     1.348657
      dz2     :     0.007938  d :     0.052478
      dxz     :     0.004132
      dyz     :     0.016905
      dx2y2   :     0.012691
      dxy     :     0.010812

 15 H s       :     0.896836  s :     0.896836
      pz      :     0.015463  p :     0.068121
      px      :     0.035518
      py      :     0.017140

 16 H s       :     0.897059  s :     0.897059
      pz      :     0.024050  p :     0.068242
      px      :     0.028307
      py      :     0.015885

 17 H s       :     0.901199  s :     0.901199
      pz      :     0.042914  p :     0.069230
      px      :     0.012297
      py      :     0.014019

 18 H s       :     0.903976  s :     0.903976
      pz      :     0.025302  p :     0.069356
      px      :     0.027855
      py      :     0.016199

 19 H s       :     0.896909  s :     0.896909
      pz      :     0.041556  p :     0.068309
      px      :     0.012578
      py      :     0.014175

 20 H s       :     0.900846  s :     0.900846
      pz      :     0.043775  p :     0.072111
      px      :     0.015034
      py      :     0.013302

 21 H s       :     0.889550  s :     0.889550
      pz      :     0.014499  p :     0.070364
      px      :     0.038825
      py      :     0.017041

 22 H s       :     0.872366  s :     0.872366
      pz      :     0.014045  p :     0.068047
      px      :     0.036734
      py      :     0.017268

 23 H s       :     0.873068  s :     0.873068
      pz      :     0.042394  p :     0.067618
      px      :     0.012709
      py      :     0.012515

 24 H s       :     0.900839  s :     0.900839
      pz      :     0.043622  p :     0.072112
      px      :     0.013079
      py      :     0.015411

 25 H s       :     0.889553  s :     0.889553
      pz      :     0.014618  p :     0.070365
      px      :     0.038224
      py      :     0.017523

 26 H s       :     0.872363  s :     0.872363
      pz      :     0.014010  p :     0.068047
      px      :     0.039393
      py      :     0.014644

 27 H s       :     0.873062  s :     0.873062
      pz      :     0.041933  p :     0.067618
      px      :     0.013135
      py      :     0.012550



                      *****************************
                      * MAYER POPULATION ANALYSIS *
                      *****************************

  NA   - Mulliken gross atomic population
  ZA   - Total nuclear charge
  QA   - Mulliken gross atomic charge
  VA   - Mayer's total valence
  BVA  - Mayer's bonded valence
  FA   - Mayer's free valence

  ATOM       NA         ZA         QA         VA         BVA        FA
  0 C      5.9838     6.0000     0.0162     3.8307     3.8307    -0.0000
  1 C      5.9919     6.0000     0.0081     3.8502     3.8502    -0.0000
  2 C      5.9853     6.0000     0.0147     3.8639     3.8639    -0.0000
  3 C      6.1375     6.0000    -0.1375     3.7455     3.7455    -0.0000
  4 C      6.0018     6.0000    -0.0018     3.8674     3.8674    -0.0000
  5 C      5.9866     6.0000     0.0134     3.8658     3.8658    -0.0000
  6 P     14.8283    15.0000     0.1717     3.0596     3.0596    -0.0000
  7 C      6.1989     6.0000    -0.1989     3.9684     3.9684    -0.0000
  8 C      5.8974     6.0000     0.1026     4.0274     4.0274    -0.0000
  9 C      6.2806     6.0000    -0.2806     4.2960     4.2960    -0.0000
 10 N      6.9421     7.0000     0.0579     3.1537     3.1537    -0.0000
 11 C      6.1989     6.0000    -0.1989     3.9682     3.9682    -0.0000
 12 C      5.8975     6.0000     0.1025     4.0274     4.0274    -0.0000
 13 C      6.2806     6.0000    -0.2806     4.2961     4.2961    -0.0000
 14 N      6.9421     7.0000     0.0579     3.1537     3.1537    -0.0000
 15 H      0.9923     1.0000     0.0077     0.9790     0.9790    -0.0000
 16 H      0.9939     1.0000     0.0061     0.9791     0.9791    -0.0000
 17 H      1.0016     1.0000    -0.0016     0.9966     0.9966     0.0000
 18 H      1.0020     1.0000    -0.0020     0.9883     0.9883    -0.0000
 19 H      0.9947     1.0000     0.0053     0.9790     0.9790    -0.0000
 20 H      0.9423     1.0000     0.0577     0.9874     0.9874    -0.0000
 21 H      0.9241     1.0000     0.0759     0.9761     0.9761    -0.0000
 22 H      0.9304     1.0000     0.0696     0.9954     0.9954    -0.0000
 23 H      0.9344     1.0000     0.0656     0.9940     0.9940    -0.0000
 24 H      0.9423     1.0000     0.0577     0.9874     0.9874    -0.0000
 25 H      0.9241     1.0000     0.0759     0.9762     0.9762    -0.0000
 26 H      0.9304     1.0000     0.0696     0.9954     0.9954    -0.0000
 27 H      0.9344     1.0000     0.0656     0.9940     0.9940    -0.0000

  Mayer bond orders larger than 0.100000
B(  0-C ,  1-C ) :   1.3856 B(  0-C ,  5-C ) :   1.3737 B(  0-C , 15-H ) :   0.9812 
B(  1-C ,  2-C ) :   1.3859 B(  1-C , 16-H ) :   0.9818 B(  2-C ,  3-C ) :   1.3687 
B(  2-C , 17-H ) :   0.9831 B(  3-C ,  4-C ) :   1.3314 B(  3-C ,  6-P ) :   0.9443 
B(  4-C ,  5-C ) :   1.4103 B(  4-C , 18-H ) :   0.9766 B(  5-C , 19-H ) :   0.9791 
B(  6-P ,  7-C ) :   0.9709 B(  6-P , 11-C ) :   0.9709 B(  7-C ,  8-C ) :   1.0580 
B(  7-C , 20-H ) :   0.9181 B(  7-C , 21-H ) :   0.9358 B(  8-C ,  9-C ) :   1.1421 
B(  8-C , 22-H ) :   0.8884 B(  8-C , 23-H ) :   0.8920 B(  9-C , 10-N ) :   3.0411 
B( 11-C , 12-C ) :   1.0579 B( 11-C , 24-H ) :   0.9181 B( 11-C , 25-H ) :   0.9358 
B( 12-C , 13-C ) :   1.1421 B( 12-C , 26-H ) :   0.8885 B( 12-C , 27-H ) :   0.8920 
B( 13-C , 14-N ) :   3.0411 

-------
TIMINGS
-------

Total SCF time: 0 days 0 hours 0 min 10 sec 

Total time                  ....      10.616 sec
Sum of individual times     ....      10.544 sec  ( 99.3%)

SCF preparation             ....       0.095 sec  (  0.9%)
Fock matrix formation       ....       9.650 sec  ( 90.9%)
  Startup                   ....       0.050 sec  (  0.5% of F)
  Split-RI-J                ....       2.934 sec  ( 30.4% of F)
  XC integration            ....       6.426 sec  ( 66.6% of F)
    Basis function eval.    ....       1.914 sec  ( 29.8% of XC)
    Density eval.           ....       1.708 sec  ( 26.6% of XC)
    XC-Functional eval.     ....       0.218 sec  (  3.4% of XC)
    XC-Potential eval.      ....       1.300 sec  ( 20.2% of XC)
Diagonalization             ....       0.000 sec  (  0.0%)
Density matrix formation    ....       0.125 sec  (  1.2%)
Total Energy calculation    ....       0.055 sec  (  0.5%)
Population analysis         ....       0.043 sec  (  0.4%)
Orbital Transformation      ....       0.048 sec  (  0.5%)
Orbital Orthonormalization  ....       0.000 sec  (  0.0%)
DIIS solution               ....       0.256 sec  (  2.4%)
SOSCF solution              ....       0.272 sec  (  2.6%)
Finished LeanSCF after  10.6 sec

Maximum memory used throughout the entire LEANSCF-calculation: 27.1 MB


-------------------------------------------------------------------------------
                          DFT DISPERSION CORRECTION                            
                                                                               
                              DFTD3 V3.1  Rev 1                                
                          USING Becke-Johnson damping                          
-------------------------------------------------------------------------------
The BP86 functional is recognized
Active option DFTDOPT                   ...         4   

molecular C6(AA) [au] = 10464.712984 


            DFT-D V3
 parameters
 s6 scaling factor         :     1.0000 
 a1 scaling factor         :     0.3946 
 s8 scaling factor         :     3.2822 
 a2 scaling factor         :     4.8516 
 ad hoc parameters k1-k3   :    16.0000     1.3333    -4.0000 

 Edisp/kcal,au: -35.730382966689  -0.056939983589 
 E6   /kcal   : -13.102353384 
 E8   /kcal   : -22.628029583 
 % E8         :  63.329938568 

-------------------------   ----------------
Dispersion correction           -0.056939984
-------------------------   ----------------


-------------------------   --------------------
FINAL SINGLE POINT ENERGY      -915.489120674158
-------------------------   --------------------



           ************************************************************
           *        Program running with 6 parallel MPI-processes     *
           *              working on a common directory               *
           ************************************************************
------------------------------------------------------------------------------
                         ORCA SCF GRADIENT CALCULATION
------------------------------------------------------------------------------

Nuc. rep. gradient        (SHARK) ... done (  0.0 sec)
HCore & Overlap gradient  (SHARK) ... done (  0.2 sec)
Split-RIJ-J gradient      (SHARK) ... done (  0.6 sec)
XC gradient                       ... done (  2.7 sec)
Dispersion correction             ... done (  0.1 sec)

-------------------
DISPERSION GRADIENT
-------------------

   1   C   :    0.000208148   -0.000077965   -0.000051046
   2   C   :    0.000475591   -0.000172367    0.000068615
   3   C   :    0.000297727   -0.000109639   -0.000012719
   4   C   :    0.000607654   -0.000222048    0.000029324
   5   C   :    0.000624758   -0.000232520   -0.000105370
   6   C   :    0.000467856   -0.000183333   -0.000374454
   7   P   :   -0.000310950    0.000134639    0.000659464
   8   C   :   -0.000552237   -0.000181609    0.000080526
   9   C   :   -0.000468492   -0.000472902    0.000157486
  10   C   :   -0.000403181   -0.000525898   -0.000070117
  11   N   :   -0.000370424   -0.000429673   -0.000169417
  12   C   :   -0.000302316    0.000499520    0.000059306
  13   C   :   -0.000048641    0.000671353    0.000121837
  14   C   :    0.000030849    0.000656998   -0.000106970
  15   N   :   -0.000008342    0.000557137   -0.000200162
  16   H   :    0.000212200   -0.000080437   -0.000082684
  17   H   :    0.000198905   -0.000068487    0.000144281
  18   H   :    0.000182458   -0.000058349    0.000276005
  19   H   :    0.000091717   -0.000046500   -0.000412357
  20   H   :    0.000081467   -0.000037800   -0.000253822
  21   H   :   -0.000235167   -0.000031822   -0.000152341
  22   H   :   -0.000256075    0.000025716    0.000046284
  23   H   :   -0.000165680   -0.000378693    0.000069209
  24   H   :   -0.000134300   -0.000198865    0.000182086
  25   H   :   -0.000161911    0.000167832   -0.000158562
  26   H   :   -0.000211044    0.000148445    0.000042461
  27   H   :    0.000119714    0.000399117    0.000044976
  28   H   :    0.000029720    0.000248150    0.000168159

Difference to translation invariance:
           :   -0.0000000000   -0.0000000000    0.0000000000

Difference to rotation invariance:
           :    0.0000000000   -0.0000000000    0.0000000000

Norm of the Dispersion gradient    ...    0.0026004985
RMS gradient                       ...    0.0002837377
MAX gradient                       ...    0.0006713526

------------------
CARTESIAN GRADIENT
------------------

   1   C   :   -0.002671379    0.000966269   -0.000086721
   2   C   :    0.001274449   -0.000513408   -0.001525514
   3   C   :   -0.003728192    0.001302494   -0.001486805
   4   C   :   -0.001326652    0.000530819    0.002491978
   5   C   :   -0.005077625    0.001971207    0.004380845
   6   C   :    0.004364363   -0.001547293    0.001327639
   7   P   :    0.005985668   -0.002830849   -0.022517736
   8   C   :   -0.002793361   -0.002140436    0.001218814
   9   C   :    0.008749641    0.000062646    0.007205730
  10   C   :   -0.020574778   -0.010199139   -0.014319684
  11   N   :    0.018417856    0.012884748    0.012027262
  12   C   :   -0.000724068    0.003555227    0.001052577
  13   C   :    0.006851424   -0.005306079    0.007341604
[...]
      dxz     :     0.031030
      dyz     :     0.014627
      dx2y2   :     0.008237
      dxy     :     0.007640

  4 C s       :     2.875395  s :     2.875395
      pz      :     1.056866  p :     3.072722
      px      :     1.041248
      py      :     0.974608
      dz2     :     0.023724  d :     0.087478
      dxz     :     0.032905
      dyz     :     0.012491
      dx2y2   :     0.009580
      dxy     :     0.008778

  5 C s       :     2.873454  s :     2.873454
      pz      :     1.041441  p :     3.064135
      px      :     1.051222
      py      :     0.971472
      dz2     :     0.024463  d :     0.085931
      dxz     :     0.026743
      dyz     :     0.006932
      dx2y2   :     0.014149
      dxy     :     0.013644

  6 P s       :     5.332871  s :     5.332871
      pz      :     3.384082  p :     8.989791
      px      :     2.803081
      py      :     2.802628
      dz2     :     0.019941  d :     0.213618
      dxz     :     0.042091
      dyz     :     0.048718
      dx2y2   :     0.049844
      dxy     :     0.053024

  7 C s       :     2.910956  s :     2.910956
      pz      :     1.086627  p :     3.188698
      px      :     1.088444
      py      :     1.013626
      dz2     :     0.021243  d :     0.068327
      dxz     :     0.006414
      dyz     :     0.011084
      dx2y2   :     0.016015
      dxy     :     0.013571

  8 C s       :     2.840178  s :     2.840178
      pz      :     1.063519  p :     3.140670
      px      :     1.055142
      py      :     1.022009
      dz2     :     0.023168  d :     0.090566
      dxz     :     0.009728
      dyz     :     0.014534
      dx2y2   :     0.020886
      dxy     :     0.022250

  9 C s       :     2.927573  s :     2.927573
      pz      :     0.979929  p :     3.011593
      px      :     1.028705
      py      :     1.002959
      dz2     :     0.017887  d :     0.101301
      dxz     :     0.019040
      dyz     :     0.016352
      dx2y2   :     0.025033
      dxy     :     0.022989

 10 N s       :     3.440189  s :     3.440189
      pz      :     1.146775  p :     3.581795
      px      :     1.240033
      py      :     1.194987
      dz2     :     0.007357  d :     0.051114
      dxz     :     0.010814
      dyz     :     0.008915
      dx2y2   :     0.010282
      dxy     :     0.013746

 11 C s       :     2.910960  s :     2.910960
      pz      :     1.088609  p :     3.188720
      px      :     1.051251
      py      :     1.048860
      dz2     :     0.020772  d :     0.068303
      dxz     :     0.005812
      dyz     :     0.012082
      dx2y2   :     0.013710
      dxy     :     0.015927

 12 C s       :     2.840130  s :     2.840130
      pz      :     1.062861  p :     3.140672
      px      :     1.058701
      py      :     1.019111
      dz2     :     0.022330  d :     0.090572
      dxz     :     0.006622
      dyz     :     0.019109
      dx2y2   :     0.022137
      dxy     :     0.020374

 13 C s       :     2.927550  s :     2.927550
      pz      :     0.987168  p :     3.011620
      px      :     0.936376
      py      :     1.088076
      dz2     :     0.018984  d :     0.101303
      dxz     :     0.007650
      dyz     :     0.028641
      dx2y2   :     0.022166
      dxy     :     0.023861

 14 N s       :     3.440191  s :     3.440191
      pz      :     1.160495  p :     3.581802
      px      :     1.067730
      py      :     1.353577
      dz2     :     0.007672  d :     0.051113
      dxz     :     0.003631
      dyz     :     0.016950
      dx2y2   :     0.012709
      dxy     :     0.010151

 15 H s       :     0.895924  s :     0.895924
      pz      :     0.014857  p :     0.066033
      px      :     0.034700
      py      :     0.016477

 16 H s       :     0.896130  s :     0.896130
      pz      :     0.023019  p :     0.066087
      px      :     0.027916
      py      :     0.015152

 17 H s       :     0.901066  s :     0.901066
      pz      :     0.041977  p :     0.067032
      px      :     0.011656
      py      :     0.013399

 18 H s       :     0.903556  s :     0.903556
      pz      :     0.023483  p :     0.067034
      px      :     0.028022
      py      :     0.015528

 19 H s       :     0.895717  s :     0.895717
      pz      :     0.041115  p :     0.066159
      px      :     0.011626
      py      :     0.013418

 20 H s       :     0.900640  s :     0.900640
      pz      :     0.043011  p :     0.069396
      px      :     0.013905
      py      :     0.012480

 21 H s       :     0.890853  s :     0.890853
      pz      :     0.013974  p :     0.068248
      px      :     0.038849
      py      :     0.015425

 22 H s       :     0.870474  s :     0.870474
      pz      :     0.013528  p :     0.066110
      px      :     0.037867
      py      :     0.014715

 23 H s       :     0.872372  s :     0.872372
      pz      :     0.041329  p :     0.065293
      px      :     0.012139
      py      :     0.011825

 24 H s       :     0.900587  s :     0.900587
      pz      :     0.042664  p :     0.069372
      px      :     0.012107
      py      :     0.014601

 25 H s       :     0.890812  s :     0.890812
      pz      :     0.014222  p :     0.068248
      px      :     0.036046
      py      :     0.017980

 26 H s       :     0.870337  s :     0.870337
      pz      :     0.013743  p :     0.066161
      px      :     0.036734
      py      :     0.015684

 27 H s       :     0.872460  s :     0.872460
      pz      :     0.040816  p :     0.065287
      px      :     0.012418
      py      :     0.012053



                      *****************************
                      * MAYER POPULATION ANALYSIS *
                      *****************************

  NA   - Mulliken gross atomic population
  ZA   - Total nuclear charge
  QA   - Mulliken gross atomic charge
  VA   - Mayer's total valence
  BVA  - Mayer's bonded valence
  FA   - Mayer's free valence

  ATOM       NA         ZA         QA         VA         BVA        FA
  0 C      5.9931     6.0000     0.0069     3.8325     3.8325    -0.0000
  1 C      5.9977     6.0000     0.0023     3.8486     3.8486    -0.0000
  2 C      5.9865     6.0000     0.0135     3.8639     3.8639    -0.0000
  3 C      6.1727     6.0000    -0.1727     3.7757     3.7757    -0.0000
  4 C      6.0033     6.0000    -0.0033     3.8704     3.8704     0.0000
  5 C      5.9928     6.0000     0.0072     3.8663     3.8663    -0.0000
  6 P     14.8027    15.0000     0.1973     3.0294     3.0294    -0.0000
  7 C      6.1986     6.0000    -0.1986     3.9582     3.9582    -0.0000
  8 C      5.9388     6.0000     0.0612     4.0416     4.0416    -0.0000
  9 C      6.2616     6.0000    -0.2616     4.2833     4.2833    -0.0000
 10 N      6.9503     7.0000     0.0497     3.1398     3.1398    -0.0000
 11 C      6.1979     6.0000    -0.1979     3.9573     3.9573    -0.0000
 12 C      5.9393     6.0000     0.0607     4.0423     4.0423    -0.0000
 13 C      6.2619     6.0000    -0.2619     4.2839     4.2839    -0.0000
 14 N      6.9502     7.0000     0.0498     3.1398     3.1398    -0.0000
 15 H      0.9832     1.0000     0.0168     0.9794     0.9794     0.0000
 16 H      0.9851     1.0000     0.0149     0.9796     0.9796    -0.0000
 17 H      0.9931     1.0000     0.0069     0.9948     0.9948    -0.0000
 18 H      0.9951     1.0000     0.0049     0.9893     0.9893     0.0000
 19 H      0.9857     1.0000     0.0143     0.9794     0.9794     0.0000
 20 H      0.9365     1.0000     0.0635     0.9870     0.9870    -0.0000
 21 H      0.9194     1.0000     0.0806     0.9736     0.9736    -0.0000
 22 H      0.9213     1.0000     0.0787     0.9944     0.9944    -0.0000
 23 H      0.9283     1.0000     0.0717     0.9899     0.9899    -0.0000
 24 H      0.9365     1.0000     0.0635     0.9866     0.9866    -0.0000
 25 H      0.9191     1.0000     0.0809     0.9736     0.9736    -0.0000
 26 H      0.9208     1.0000     0.0792     0.9944     0.9944    -0.0000
 27 H      0.9284     1.0000     0.0716     0.9900     0.9900     0.0000

  Mayer bond orders larger than 0.100000
B(  0-C ,  1-C ) :   1.3898 B(  0-C ,  5-C ) :   1.3703 B(  0-C , 15-H ) :   0.9762 
B(  1-C ,  2-C ) :   1.3814 B(  1-C , 16-H ) :   0.9774 B(  2-C ,  3-C ) :   1.3805 
B(  2-C , 17-H ) :   0.9758 B(  3-C ,  4-C ) :   1.3367 B(  3-C ,  6-P ) :   0.9332 
B(  4-C ,  5-C ) :   1.4147 B(  4-C , 18-H ) :   0.9692 B(  5-C , 19-H ) :   0.9749 
B(  6-P ,  7-C ) :   0.9691 B(  6-P , 11-C ) :   0.9682 B(  7-C ,  8-C ) :   1.0561 
B(  7-C , 20-H ) :   0.9200 B(  7-C , 21-H ) :   0.9356 B(  8-C ,  9-C ) :   1.1563 
B(  8-C , 22-H ) :   0.8875 B(  8-C , 23-H ) :   0.8918 B(  9-C , 10-N ) :   3.0253 
B( 11-C , 12-C ) :   1.0562 B( 11-C , 24-H ) :   0.9201 B( 11-C , 25-H ) :   0.9358 
B( 12-C , 13-C ) :   1.1567 B( 12-C , 26-H ) :   0.8873 B( 12-C , 27-H ) :   0.8916 
B( 13-C , 14-N ) :   3.0253 

-------
TIMINGS
-------

Total SCF time: 0 days 0 hours 0 min 3 sec 

Total time                  ....       3.113 sec
Sum of individual times     ....       3.050 sec  ( 98.0%)

SCF preparation             ....       0.095 sec  (  3.1%)
Fock matrix formation       ....       2.679 sec  ( 86.1%)
  Startup                   ....       0.018 sec  (  0.7% of F)
  Split-RI-J                ....       0.833 sec  ( 31.1% of F)
  XC integration            ....       1.766 sec  ( 65.9% of F)
    Basis function eval.    ....       0.536 sec  ( 30.4% of XC)
    Density eval.           ....       0.472 sec  ( 26.7% of XC)
    XC-Functional eval.     ....       0.056 sec  (  3.2% of XC)
    XC-Potential eval.      ....       0.378 sec  ( 21.4% of XC)
Diagonalization             ....       0.000 sec  (  0.0%)
Density matrix formation    ....       0.035 sec  (  1.1%)
Total Energy calculation    ....       0.017 sec  (  0.5%)
Population analysis         ....       0.058 sec  (  1.9%)
Orbital Transformation      ....       0.022 sec  (  0.7%)
Orbital Orthonormalization  ....       0.000 sec  (  0.0%)
DIIS solution               ....       0.026 sec  (  0.8%)
SOSCF solution              ....       0.118 sec  (  3.8%)
Finished LeanSCF after   3.1 sec

Maximum memory used throughout the entire LEANSCF-calculation: 27.7 MB


-------------------------------------------------------------------------------
                          DFT DISPERSION CORRECTION                            
                                                                               
                              DFTD3 V3.1  Rev 1                                
                          USING Becke-Johnson damping                          
-------------------------------------------------------------------------------
The BP86 functional is recognized
Active option DFTDOPT                   ...         4   

molecular C6(AA) [au] = 10481.280369 


            DFT-D V3
 parameters
 s6 scaling factor         :     1.0000 
 a1 scaling factor         :     0.3946 
 s8 scaling factor         :     3.2822 
 a2 scaling factor         :     4.8516 
 ad hoc parameters k1-k3   :    16.0000     1.3333    -4.0000 

 Edisp/kcal,au: -35.878862566071  -0.057176600867 
 E6   /kcal   : -13.163102294 
 E8   /kcal   : -22.715760272 
 % E8         :  63.312375720 

-------------------------   ----------------
Dispersion correction           -0.057176601
-------------------------   ----------------


-------------------------   --------------------
FINAL SINGLE POINT ENERGY      -915.494152659970
-------------------------   --------------------

                                *** OPTIMIZATION RUN DONE ***



           ************************************************************
           *        Program running with 6 parallel MPI-processes     *
           *              working on a common directory               *
           ************************************************************

------------------------------------------------------------------------------
                              ORCA PROPERTY CALCULATIONS
------------------------------------------------------------------------------

GBWName                                 ... data/geom_opt_P_BP86/342156/342156.gbw
Number of atoms                         ...     28
Number of basis functions               ...    279
Max core memory                         ...   1024 MB

Electric properties:
Dipole moment                           ... YES
Quadrupole moment                       ...  NO
Static polarizability (Dipole/Dipole)   ...  NO
Static polarizability (Dipole/Quad.)    ...  NO
Static polarizability (Quad./Quad.)     ...  NO
Static polarizability (Velocity)        ...  NO

Atomic electric properties:
Dipole moment                           ...  NO
Quadrupole moment                       ...  NO
Static polarizability                   ...  NO

Choice of electric origin               ... Center of mass
Position of electric origin             ...    -0.366830     0.137248     0.087912

General magnetic properties:
Magnetizability                         ...  NO

EPR properties:
g-Tensor (aka g-matrix)                 ...  NO
Zero-Field splitting spin-orbit         ...  NO
Zero-field splitting spin-spin          ...  NO
Hyperfine couplings                     ...  NO (   0 nuclei)
Quadrupole couplings                    ...  NO (   0 nuclei)
Contact density                         ...  NO (   0 nuclei)

NMR properties:
Chemical shifts                         ...  NO (   0 nuclei)
Spin-rotation constants                 ...  NO (   0 nuclei)
Spin-spin couplings                     ...  NO (   0 nuclei,    0 pairs)

Choice of magnetic origin               ... GIAO
Position of magnetic origin             ...     0.000000     0.000000     0.000000

Properties with geometric perturbations:
SCF Hessian                             ...  NO
IR spectrum                             ...  NO
VCD spectrum                            ...  NO
X-ray spectroscopy properties:
SCF XES/XAS/RIXS spectra                ...  NO


-------------
DIPOLE MOMENT
-------------

Method             : SCF
Type of density    : Electron Density
Multiplicity       :   1
Irrep              :   0
Energy             :  -915.4369760591030172 Eh
Relativity type    : 
Basis              : AO
                                X                 Y                 Z
Electronic contribution:     -2.992754261       1.146967890       1.639462186
Nuclear contribution   :      4.427095135      -1.651447010      -0.868123719
                        -----------------------------------------
Total Dipole Moment    :      1.434340874      -0.504479120       0.771338468
                        -----------------------------------------
Magnitude (a.u.)       :      1.704932831
Magnitude (Debye)      :      4.333594859



--------------------
Rotational spectrum 
--------------------
 
Rotational constants in cm-1:             0.018258             0.011722             0.008236 
Rotational constants in MHz :           547.350128           351.412463           246.914251 

Dipole components along the rotational axes: 
x,y,z [a.u.] :     0.000849     1.485223     0.837202 
x,y,z [Debye]:     0.002158     3.775137     2.127999 

 

Dipole moment calculation done in   0.0 sec 

Maximum memory used throughout the entire PROP-calculation: 13.5 MB

--------------------------------
SUGGESTED CITATIONS FOR THIS RUN
--------------------------------

Below you find a list of papers that are relevant to this ORCA run
We neither can nor want to force you to cite these papers, but we appreciate if you do
You receive ORCA, which is the product of decades of hard work by many enthusiastic individuals, for free
The only thing we kindly ask in return is that you cite our papers,
We deeply appreciate it, if you show your appreciation for ORCA by not just citing the generic ORCA reference.

Please note that relegating all ORCA citations to the supporting information does *not* help us.
SI sections are not indexed - citations you put there will not count into any citation statistics
But we need these citations in order to attract the funding resources that allow us to do what we are doing

Therefore, if you are a happy ORCA user, please consider citing a few of the papers listed below in the main body of your paper

In addition to the list printed below, the program has created the file data/geom_opt_P_BP86/342156/342156.bibtex that contains the list in bibtex format
You can import this file easily into all common literature databanks and citation aid programs


List of essential papers. We consider these as the minimum necessary citations

  1. Neese,F.
     Software update: the ORCA program system, version 5.0
     WIRES Comput. Molec. Sci., 2022 12(1)e1606
     doi.org/10.1002/wcms.1606

List of papers to cite with high priority. The work reported in these papers was absolutely
necessary for this run to complete.
Our perspective: the developers of density functionals and basis sets usually get cited in chemistry papers
Good! But without the algorithms to do something with them, the functionals or basis sets would not do anything.
Hence, in our opinion, the algorithm design and method developments papers are equally worthy of getting cited

  1. Neese,F.
     An improvement of the resolution of the identity approximation for the formation of the Coulomb matrix
     J. Comp. Chem., 2003 24(14)1740-1747
     doi.org/10.1002/jcc.10318
  2. Neese,F.
     The SHARK Integral Generation and Digestion System
     J. Comp. Chem., 2022  1-16
     doi.org/10.1002/jcc.26942
  3. Grimme,S.; Antony,J.; Ehrlich,S.; Krieg,H.
     A consistent and accurate ab initio parametrization of density functional dispersion correction (DFT-D) for the 94 elements H-Pu
     J. Chem. Phys., 2010 132 154104-XXXX
     doi.org/10.1063/1.3382344
  4. Grimme,S.; Ehrlich,S.; Goerigk,L.
     Effect of the damping function in dispersion corrected density functional theory
     J. Comput. Chem., 2011 32(7)1456-1465
     doi.org/10.1002/jcc.21759

List of suggested additional citations. These are papers that are important in the 'surrounding' of 
of this run, or papers that preceded the highly important papers. If you like your results we are grateful for a citation.

  1. Neese,F.
     The ORCA program system
     WIRES Comput. Molec. Sci., 2012 2(1)73-78
     doi.org/10.1002/wcms.81
  2. Neese,F.
     Software update: the ORCA program system, version 4.0
     WIRES Comput. Molec. Sci., 2018 8(1)1-6
     doi.org/10.1002/wcms.1327
  3. Neese,F.; Wennmohs,F.; Becker,U.; Riplinger,C.
     The ORCA quantum chemistry program package
     J. Chem. Phys., 2020 152 Art. No. L224108
     doi.org/10.1063/5.0004608

List of optional additional citations

  1. Neese,F.
     Approximate second-order SCF convergence for spin unrestricted wavefunctions
     Chem. Phys. Lett., 2000 325(1-3)93-98
     doi.org/10.1016/s0009-2614(00)00662-x

Timings for individual modules:

Sum of individual times          ...       74.876 sec (=   1.248 min)
Startup calculation              ...        6.690 sec (=   0.111 min)   8.9 %
SCF iterations                   ...       45.986 sec (=   0.766 min)  61.4 %
Property calculations            ...        0.157 sec (=   0.003 min)   0.2 %
SCF Gradient evaluation          ...       21.978 sec (=   0.366 min)  29.4 %
Geometry relaxation              ...        0.065 sec (=   0.001 min)   0.1 %
                             ****ORCA TERMINATED NORMALLY****
TOTAL RUN TIME: 0 days 0 hours 1 minutes 16 seconds 159 msec
