
                                 *****************
                                 * O   R   C   A *
                                 *****************

                                            #,                                       
                                            ###                                      
                                            ####                                     
                                            #####                                    
                                            ######                                   
                                           ########,                                 
                                     ,,################,,,,,                         
                               ,,#################################,,                 
                          ,,##########################################,,             
                       ,#########################################, ''#####,          
                    ,#############################################,,   '####,        
                  ,##################################################,,,,####,       
                ,###########''''           ''''###############################       
              ,#####''   ,,,,##########,,,,          '''####'''          '####       
            ,##' ,,,,###########################,,,                        '##       
           ' ,,###''''                  '''############,,,                           
         ,,##''                                '''############,,,,        ,,,,,,###''
      ,#''                                            '''#######################'''  
     '                                                          ''''####''''         
             ,#######,   #######,   ,#######,      ##                                
            ,#'     '#,  ##    ##  ,#'     '#,    #''#        ,####,   ,####,        
            ##       ##  ##   ,#'  ##            #'  '#       #'       #'  '#        
            ##       ##  #######   ##           ,######,      #####,   #    #        
            '#,     ,#'  ##    ##  '#,     ,#' ,#      #,     #,   #   #,  ,#        
             '#######'   ##     ##  '#######'  #'      '#     '####' # '####'        



                #########################################################
                #                        -***-                          #
                #          Department of theory and spectroscopy        #
                #                                                       #
                #                      Frank Neese                      #
                #                                                       #
                #     Directorship, Architecture, Infrastructure        #
                #                    SHARK, DRIVERS                     #
                #        Core code/Algorithms in most modules           #
                #                                                       #
                #        Max Planck Institute fuer Kohlenforschung      #
                #                Kaiser Wilhelm Platz 1                 #
                #                 D-45470 Muelheim/Ruhr                 #
                #                      Germany                          #
                #                                                       #
                #                  All rights reserved                  #
                #                        -***-                          #
                #########################################################


                         Program Version 6.0.0  -   RELEASE   -


 With contributions from (in alphabetic order):
   Daniel Aravena         : Magnetic Suceptibility
   Michael Atanasov       : Ab Initio Ligand Field Theory (pilot matlab implementation)
   Alexander A. Auer      : GIAO ZORA, VPT2 properties, NMR spectrum
   Ute Becker             : All parallelization in ORCA, NUMFREQ, NUMCALC
   Giovanni Bistoni       : ED, misc. LED, open-shell LED, HFLD
   Martin Brehm           : Molecular dynamics
   Dmytro Bykov           : pre 5.0 version of the SCF Hessian
   Marcos Casanova-Páez   : Triplet and SCS-CIS(D). UHF-(DLPNO)-IP/EA/STEOM-CCSD. UHF-CVS-IP/STEOM-CCSD
   Vijay G. Chilkuri      : MRCI spin determinant printing, contributions to CSF-ICE
   Pauline Colinet        : FMM embedding
   Dipayan Datta          : RHF DLPNO-CCSD density
   Achintya Kumar Dutta   : EOM-CC, STEOM-CC
   Nicolas Foglia         : Exact transition moments, OPA infrastructure, MCD improvements
   Dmitry Ganyushin       : Spin-Orbit,Spin-Spin,Magnetic field MRCI
   Miquel Garcia          : C-PCM and meta-GGA Hessian, CCSD/C-PCM, Gaussian charge scheme
   Tiago L. C. Gouveia    : GS-ROHF, GS-ROCIS
   Yang Guo               : DLPNO-NEVPT2, F12-NEVPT2, CIM, IAO-localization
   Andreas Hansen         : Spin unrestricted coupled pair/coupled cluster methods
   Ingolf Harden          : AUTO-CI MPn and infrastructure 
   Benjamin Helmich-Paris : MC-RPA, TRAH-(SCF,CASSCF), AVAS, COSX integrals, SCF dyn. polar.
   Lee Huntington         : MR-EOM, pCC
   Robert Izsak           : Overlap fitted RIJCOSX, COSX-SCS-MP3, EOM
   Riya Kayal             : Wick's Theorem for AUTO-CI, AUTO-CI UHF-CCSDT
   Emily Kempfer          : AUTO-CI, RHF CISDT and CCSDT
   Christian Kollmar      : KDIIS, OOCD, Brueckner-CCSD(T), CCSD density, CASPT2, CASPT2-K, improved NEVPT2
   Axel Koslowski         : Symmetry handling
   Simone Kossmann        : Meta GGA functionals, TD-DFT gradient, OOMP2, (MP2 Hessian; deprecated post 5.0)
   Lucas Lang             : DCDCAS
   Marvin Lechner         : AUTO-CI (C++ implementation), FIC-MRCC
   Spencer Leger          : CASSCF response
   Dagmar Lenk            : GEPOL surface, SMD, ORCA-2-JSON
   Dimitrios Liakos       : Extrapolation schemes; Compound Job, initial MDCI parallelization
   Dimitrios Manganas     : Further ROCIS development; embedding schemes. LFT, Crystal Embedding
   Dimitrios Pantazis     : SARC Basis sets
   Anastasios Papadopoulos: AUTO-CI, single reference methods and gradients
   Taras Petrenko         : pre 6.0 DFT Hessian and TD-DFT gradient, (ASA, deprecated), ECA, 1-Electron XAS/XES, NRVS
   Peter Pinski           : DLPNO-MP2, DLPNO-MP2 Gradient
   Christoph Reimann      : Effective Core Potentials
   Marius Retegan         : Local ZFS, SOC
   Christoph Riplinger    : Optimizer, TS searches, QM/MM, DLPNO-CCSD(T), (RO)-DLPNO pert. Triples
   Michael Roemelt        : Original ROCIS implementation
   Masaaki Saitow         : Open-shell DLPNO-CCSD energy and density
   Barbara Sandhoefer     : DKH picture change effects
   Kantharuban Sivalingam : CASSCF convergence/infrastructure, NEVPT2 and variants, FIC-MRCI
   Bernardo de Souza      : ESD, SOC TD-DFT
   Georgi Stoychev        : AutoAux, RI-MP2 NMR, DLPNO-MP2 response, X2C
   Van Anh Tran           : RI-MP2 g-tensors
   Willem Van den Heuvel  : Paramagnetic NMR
   Zikuan Wang            : NOTCH, Electric field optimization 
   Frank Wennmohs         : Technical directorship and infrastructure
   Hang Xu                : AUTO-CI-Response properties 


 We gratefully acknowledge several colleagues who have allowed us to
 interface, adapt or use parts of their codes:
   Stefan Grimme, W. Hujo, H. Kruse, P. Pracht,  : VdW corrections, initial TS optimization,
                  C. Bannwarth, S. Ehlert,         DFT functionals, gCP, sTDA/sTD-DF
                  L. Wittmann, M. Mueller
   Ed Valeev, F. Pavosevic, A. Kumar             : LibInt (2-el integral package), F12 methods
   Garnet Chan, S. Sharma, J. Yang, R. Olivares  : DMRG
   Ulf Ekstrom                                   : XCFun DFT Library
   Mihaly Kallay                                 : mrcc  (arbitrary order and MRCC methods)
   Frank Weinhold                                : gennbo (NPA and NBO analysis)
   Simon Mueller                                 : openCOSMO-RS
   Christopher J. Cramer and Donald G. Truhlar   : smd solvation model
   Lars Goerigk                                  : TD-DFT with DH, B97 family of functionals
   V. Asgeirsson, H. Jonsson                     : NEB implementation
   FAccTs GmbH                                   : IRC, NEB, NEB-TS, DLPNO-Multilevel, CI-OPT
                                                   MM, QMMM, 2- and 3-layer-ONIOM, Crystal-QMMM,
                                                   LR-CPCM, SF, NACMEs, symmetry and pop. for TD-DFT,
                                                   nearIR, NL-DFT gradient (VV10), updates on ESD,
                                                   ML-optimized integration grids, MBIS, APM,
                                                   GOAT, DOCKER, SOLVATOR, interface openCOSMO-RS
   S Lehtola, MJT Oliveira, MAL Marques          : LibXC Library
   Liviu Ungur et al                             : ANISO software


 Your calculation uses the libint2 library for the computation of 2-el integrals
 For citations please refer to: http://libint.valeyev.net

 Your ORCA version has been built with support for libXC version: 6.2.2
 For citations please refer to: https://libxc.gitlab.io

 This ORCA versions uses:
   CBLAS   interface :  Fast vector & matrix operations
   LAPACKE interface :  Fast linear algebra routines
   Shared memory     :  Shared parallel matrices


Your calculation utilizes the atom-pairwise dispersion correction
with the zero-damping scheme (D30)


XCFun DFT library Copyright 2009-2010 Ulf Ekstrom and contributors.
See http://admol.org/xcfun for more information.
This is free software; see the source code for copying conditions.
There is ABSOLUTELY NO WARRANTY; not even for MERCHANTABILITY or FITNESS FOR A PARTICULAR PURPOSE.
For details see the documentation.
Scientific users of this library should cite U. Ekstrom, L. Visscher, R. Bast, A. J. Thorvaldsen and K. Ruud;
J.Chem.Theor.Comp. 2010, DOI: 10.1021/ct100117s
XCFun Version 0.99 

Warning: RI is on but no J-basis has been assigned. Assigning Def2/J (nothing to worry about!)
================================================================================

----- Orbital basis set information -----
Your calculation utilizes the basis: def2-TZVP
   F. Weigend and R. Ahlrichs, Phys. Chem. Chem. Phys. 7, 3297 (2005).

----- AuxJ basis set information -----
Your calculation utilizes the auxiliary basis: def2/J
   F. Weigend, Phys. Chem. Chem. Phys. 8, 1057 (2006).

================================================================================
                                        WARNINGS
                       Please study these warnings very carefully!
================================================================================

WARNING: Functional chosen is sensitive to the integration grid.
         DEFGRID3 seems to be a minimum grid for robust results!

================================================================================
                                       INPUT FILE
================================================================================
NAME = data/single_point_PO_M06-2x/69773/69773.inp
|  1> ! RIJCOSX M062X def2-TZVP D3ZERO NormalSCF
|  2> %pal
|  3> nprocs 6
|  4> end
|  5> 
|  6> * xyz 0 1
|  7>   C          -0.66766435728900     -4.26607933236321      0.53676542826039
|  8>   C          -1.14317435478544     -3.95261109387767     -0.74854191848177
|  9>   C          -0.93131840114422     -2.67333864133832     -1.28466151498591
| 10>   C          -0.24529604497665     -1.70088435374539     -0.52927004285834
| 11>   C           0.24667975835677     -2.02086771029054      0.75212104242341
| 12>   C           0.03017960685691     -3.30219769405580      1.28451295418263
| 13>   P          -0.04670840470804     -0.05518585051538     -1.30777958798704
| 14>   O          -0.05948238328867     -0.10252191624860     -2.82577411376273
| 15>   C          -1.36962741864958      0.99521645001621     -0.60004576927342
| 16>   C          -1.93580162359582      0.78330628245523      0.67298480532856
| 17>   C          -2.92635520388824      1.65665724957929      1.15145970676797
| 18>   C          -3.35810380424055      2.73353092475947      0.35853729785930
| 19>   C          -2.80641572097705      2.93408492412709     -0.91898909578374
| 20>   C          -1.81561320308365      2.06590632817253     -1.40152923879196
| 21>   C           1.51617269421524      0.62168858496679     -0.63030351661401
| 22>   C           2.66621276531220      0.47386199878496     -1.43122594542491
| 23>   C           3.90892252526986      0.94360377344622     -0.98333075822893
| 24>   C           3.99014931998469      1.56944826559149      0.27285871465336
| 25>   C           2.85115900414130      1.74291836968373      1.07749782057686
| 26>   C           1.61289947685096      1.26961879675411      0.61691773088256
| 27>   Br          5.67656803508076      2.20927960332526      0.89195934350588
| 28>   H          -0.83306347196034     -5.27104734876725      0.95444311521960
| 29>   H          -1.67740513558837     -4.71244986871662     -1.33934373191897
| 30>   H          -1.27784925390786     -2.41277959712538     -2.29672534370743
| 31>   H           0.81576576838188     -1.27507144147665      1.32826863531296
| 32>   H           0.41692065970731     -3.55237841292647      2.28427465933548
| 33>   H          -1.61632918804142     -0.07495461493964      1.28424813454616
| 34>   H          -3.37006718589540      1.48958792475808      2.14491533234785
| 35>   H          -4.13670875879004      3.41485679516368      0.73452052461507
| 36>   H          -3.15546780424239      3.76925466659626     -1.54545505886324
| 37>   H          -1.38449206262253      2.19395081711162     -2.40652243446340
| 38>   H           2.57048977804315     -0.00222807372085     -2.41953241207909
| 39>   H           4.80908112827963      0.83174261247900     -1.60418080086792
| 40>   H           2.93259556848038      2.25078122906380      2.04883599216662
| 41>   H           0.71314669271422      1.42530135327297      1.23215504610814
| 42> **                         ****END OF INPUT****
================================================================================

                       ****************************
                       * Single Point Calculation *
                       ****************************

---------------------------------
CARTESIAN COORDINATES (ANGSTROEM)
---------------------------------
  C     -0.667664   -4.266079    0.536765
  C     -1.143174   -3.952611   -0.748542
  C     -0.931318   -2.673339   -1.284662
  C     -0.245296   -1.700884   -0.529270
  C      0.246680   -2.020868    0.752121
  C      0.030180   -3.302198    1.284513
  P     -0.046708   -0.055186   -1.307780
  O     -0.059482   -0.102522   -2.825774
  C     -1.369627    0.995216   -0.600046
  C     -1.935802    0.783306    0.672985
  C     -2.926355    1.656657    1.151460
  C     -3.358104    2.733531    0.358537
  C     -2.806416    2.934085   -0.918989
  C     -1.815613    2.065906   -1.401529
  C      1.516173    0.621689   -0.630304
  C      2.666213    0.473862   -1.431226
  C      3.908923    0.943604   -0.983331
  C      3.990149    1.569448    0.272859
  C      2.851159    1.742918    1.077498
  C      1.612899    1.269619    0.616918
  Br     5.676568    2.209280    0.891959
  H     -0.833063   -5.271047    0.954443
  H     -1.677405   -4.712450   -1.339344
  H     -1.277849   -2.412780   -2.296725
  H      0.815766   -1.275071    1.328269
  H      0.416921   -3.552378    2.284275
  H     -1.616329   -0.074955    1.284248
  H     -3.370067    1.489588    2.144915
  H     -4.136709    3.414857    0.734521
  H     -3.155468    3.769255   -1.545455
  H     -1.384492    2.193951   -2.406522
  H      2.570490   -0.002228   -2.419532
  H      4.809081    0.831743   -1.604181
  H      2.932596    2.250781    2.048836
  H      0.713147    1.425301    1.232155

----------------------------
CARTESIAN COORDINATES (A.U.)
----------------------------
  NO LB      ZA    FRAG     MASS         X           Y           Z
   0 C     6.0000    0    12.011   -1.261703   -8.061722    1.014340
   1 C     6.0000    0    12.011   -2.160286   -7.469352   -1.414539
   2 C     6.0000    0    12.011   -1.759937   -5.051878   -2.427658
   3 C     6.0000    0    12.011   -0.463542   -3.214206   -1.000175
   4 C     6.0000    0    12.011    0.466157   -3.818887    1.421303
   5 C     6.0000    0    12.011    0.057031   -6.240249    2.427378
   6 P    15.0000    0    30.974   -0.088266   -0.104286   -2.471345
   7 O     8.0000    0    15.999   -0.112405   -0.193738   -5.339939
   8 C     6.0000    0    12.011   -2.588221    1.880687   -1.133922
   9 C     6.0000    0    12.011   -3.658135    1.480234    1.271757
  10 C     6.0000    0    12.011   -5.530010    3.130628    2.175944
  11 C     6.0000    0    12.011   -6.345897    5.165625    0.677537
  12 C     6.0000    0    12.011   -5.303357    5.544617   -1.736638
  13 C     6.0000    0    12.011   -3.431012    3.903997   -2.648506
  14 C     6.0000    0    12.011    2.865151    1.174821   -1.191101
  15 C     6.0000    0    12.011    5.038412    0.895469   -2.704625
  16 C     6.0000    0    12.011    7.386793    1.783153   -1.858226
  17 C     6.0000    0    12.011    7.540289    2.965827    0.515628
  18 C     6.0000    0    12.011    5.387910    3.293638    2.036176
  19 C     6.0000    0    12.011    3.047938    2.399232    1.165806
  20 Br   35.0000    0    79.900   10.727159    4.174933    1.685559
  21 H     1.0000    0     1.008   -1.574262   -9.960836    1.803636
  22 H     1.0000    0     1.008   -3.169836   -8.905240   -2.530993
  23 H     1.0000    0     1.008   -2.414785   -4.559493   -4.340182
  24 H     1.0000    0     1.008    1.541574   -2.409536    2.510064
  25 H     1.0000    0     1.008    0.787866   -6.713022    4.316654
  26 H     1.0000    0     1.008   -3.054420   -0.141644    2.426877
  27 H     1.0000    0     1.008   -6.368504    2.814913    4.053303
  28 H     1.0000    0     1.008   -7.817247    6.453144    1.388043
  29 H     1.0000    0     1.008   -5.962970    7.122859   -2.920487
  30 H     1.0000    0     1.008   -2.616311    4.145966   -4.547668
  31 H     1.0000    0     1.008    4.857522   -0.004210   -4.572254
  32 H     1.0000    0     1.008    9.087846    1.571766   -3.031462
  33 H     1.0000    0     1.008    5.541802    4.253360    3.871739
  34 H     1.0000    0     1.008    1.347652    2.693429    2.328436

--------------------------------
INTERNAL COORDINATES (ANGSTROEM)
--------------------------------
 C      0   0   0     0.000000000000     0.00000000     0.00000000
 C      1   0   0     1.405840342944     0.00000000     0.00000000
 C      2   1   0     1.403155434966   120.10214051     0.00000000
 C      3   2   1     1.409578054165   119.84835861   359.73430555
 C      4   3   2     1.409394427749   120.03208779     1.10154634
 C      5   4   3     1.404321897074   119.86878525   358.80984019
 P      4   3   2     1.831348608610   116.41805569   181.02561614
 O      7   4   3     1.518786113293   113.32590089   333.72159757
 C      7   4   3     1.831487610813   105.83017397    98.66743633
 C      9   7   4     1.409278536462   123.57422508    27.10331765
 C     10   9   7     1.404591235383   119.83759585   178.54695996
 C     11  10   9     1.405272113419   120.06199027     0.44156537
 C     12  11  10     1.405935750428   120.09712138     0.43475476
 C     13  12  11     1.402949996811   120.09148487   359.49139331
 C      7   4   3     1.832956671082   105.49676535   209.79422141
 C     15   7   4     1.409227306606   116.55349107    97.76009701
 C     16  15   7     1.401996783545   120.44066531   180.97239893
 C     17  16  15     1.405806214351   119.06780122   359.70678358
 C     18  17  16     1.405288193710   121.31647295   359.38453281
 C     19  18  17     1.403364942445   119.05159561     0.54208155
 Br    18  17  16     1.907007554263   119.37717464   179.90523621
 H      1   2   3     1.100805264937   119.97617329   180.13635867
 H      2   1   3     1.100819818893   120.06073310   179.62641533
 H      3   2   1     1.101021271749   121.29529036   178.78901632
 H      5   4   3     1.100916441051   120.16180973   177.68479768
 H      6   5   4     1.100764507579   119.83688896   179.84123784
 H     10   9   7     1.101052797427   120.14118773   357.43859293
 H     11  10   9     1.100793605663   119.82349610   179.86169186
 H     12  11  10     1.100815154207   119.92584896   179.81752227
 H     13  12  11     1.100820357036   120.06047239   179.11598456
 H     14  13  12     1.101032312081   121.23240486   178.81668543
 H     16  15   7     1.101169523489   118.97989224     1.88191093
 H     17  16  15     1.099205715665   120.75299608   180.05093657
 H     19  18  17     1.099115299473   120.19866243   181.08956610
 H     20  19  18     1.101049083834   119.33810623   181.51458029

---------------------------
INTERNAL COORDINATES (A.U.)
---------------------------
 C      0   0   0     0.000000000000     0.00000000     0.00000000
 C      1   0   0     2.656653236181     0.00000000     0.00000000
 C      2   1   0     2.651579495409   120.10214051     0.00000000
 C      3   2   1     2.663716486757   119.84835861   359.73430555
 C      4   3   2     2.663369483121   120.03208779     1.10154634
 C      5   4   3     2.653783789339   119.86878525   358.80984019
 P      4   3   2     3.460747326010   116.41805569   181.02561614
 O      7   4   3     2.870089810127   113.32590089   333.72159757
 C      7   4   3     3.461010002106   105.83017397    98.66743633
 C      9   7   4     2.663150480327   123.57422508    27.10331765
 C     10   9   7     2.654292764980   119.83759585   178.54695996
 C     11  10   9     2.655579437998   120.06199027     0.44156537
 C     12  11  10     2.656833530198   120.09712138     0.43475476
 C     13  12  11     2.651191273558   120.09148487   359.49139331
 C      7   4   3     3.463786123689   105.49676535   209.79422141
 C     15   7   4     2.663053669928   116.55349107    97.76009701
 C     16  15   7     2.649389961538   120.44066531   180.97239893
 C     17  16  15     2.656588742488   119.06780122   359.70678358
 C     18  17  16     2.655609825344   121.31647295   359.38453281
 C     19  18  17     2.651975407167   119.05159561     0.54208155
 Br    18  17  16     3.603722012877   119.37717464   179.90523621
 H      1   2   3     2.080220477509   119.97617329   180.13635867
 H      2   1   3     2.080247980500   120.06073310   179.62641533
 H      3   2   1     2.080628671228   121.29529036   178.78901632
 H      5   4   3     2.080430569917   120.16180973   177.68479768
 H      6   5   4     2.080143457264   119.83688896   179.84123784
 H     10   9   7     2.080688246125   120.14118773   357.43859293
 H     11  10   9     2.080198444675   119.82349610   179.86169186
 H     12  11  10     2.080239165522   119.92584896   179.81752227
 H     13  12  11     2.080248997444   120.06047239   179.11598456
 H     14  13  12     2.080649534431   121.23240486   178.81668543
 H     16  15   7     2.080908826415   118.97989224     1.88191093
 H     17  16  15     2.077197767447   120.75299608   180.05093657
 H     19  18  17     2.077026905607   120.19866243   181.08956610
 H     20  19  18     2.080681228451   119.33810623   181.51458029

---------------------
BASIS SET INFORMATION
---------------------
There are 5 groups of distinct atoms

 Group   1 Type C   : 11s6p2d1f contracted to 5s3p2d1f pattern {62111/411/11/1}
 Group   2 Type P   : 14s9p3d1f contracted to 5s5p2d1f pattern {73211/51111/21/1}
 Group   3 Type O   : 11s6p2d1f contracted to 5s3p2d1f pattern {62111/411/11/1}
 Group   4 Type Br  : 17s13p8d1f contracted to 6s5p4d1f pattern {842111/64111/5111/1}
 Group   5 Type H   : 5s1p contracted to 3s1p pattern {311/1}

Atom   0C    basis set group =>   1
Atom   1C    basis set group =>   1
Atom   2C    basis set group =>   1
Atom   3C    basis set group =>   1
Atom   4C    basis set group =>   1
Atom   5C    basis set group =>   1
Atom   6P    basis set group =>   2
Atom   7O    basis set group =>   3
Atom   8C    basis set group =>   1
Atom   9C    basis set group =>   1
Atom  10C    basis set group =>   1
Atom  11C    basis set group =>   1
Atom  12C    basis set group =>   1
Atom  13C    basis set group =>   1
Atom  14C    basis set group =>   1
Atom  15C    basis set group =>   1
Atom  16C    basis set group =>   1
Atom  17C    basis set group =>   1
Atom  18C    basis set group =>   1
Atom  19C    basis set group =>   1
Atom  20Br   basis set group =>   4
Atom  21H    basis set group =>   5
Atom  22H    basis set group =>   5
Atom  23H    basis set group =>   5
Atom  24H    basis set group =>   5
Atom  25H    basis set group =>   5
Atom  26H    basis set group =>   5
Atom  27H    basis set group =>   5
Atom  28H    basis set group =>   5
Atom  29H    basis set group =>   5
Atom  30H    basis set group =>   5
Atom  31H    basis set group =>   5
Atom  32H    basis set group =>   5
Atom  33H    basis set group =>   5
Atom  34H    basis set group =>   5
---------------------------------
AUXILIARY/J BASIS SET INFORMATION
---------------------------------
There are 5 groups of distinct atoms

 Group   1 Type C   : 12s5p4d2f1g contracted to 6s4p3d1f1g pattern {711111/2111/211/2/1}
 Group   2 Type P   : 14s5p5d2f1g contracted to 8s4p3d1f1g pattern {71111111/2111/311/2/1}
 Group   3 Type O   : 12s5p4d2f1g contracted to 6s4p3d1f1g pattern {711111/2111/211/2/1}
 Group   4 Type Br  : 19s5p5d3f1g contracted to 8s4p3d2f1g pattern {121111111/2111/311/21/1}
 Group   5 Type H   : 5s2p1d contracted to 3s1p1d pattern {311/2/1}

Atom   0C    basis set group =>   1
Atom   1C    basis set group =>   1
Atom   2C    basis set group =>   1
Atom   3C    basis set group =>   1
Atom   4C    basis set group =>   1
Atom   5C    basis set group =>   1
Atom   6P    basis set group =>   2
Atom   7O    basis set group =>   3
Atom   8C    basis set group =>   1
Atom   9C    basis set group =>   1
Atom  10C    basis set group =>   1
Atom  11C    basis set group =>   1
Atom  12C    basis set group =>   1
Atom  13C    basis set group =>   1
Atom  14C    basis set group =>   1
Atom  15C    basis set group =>   1
Atom  16C    basis set group =>   1
Atom  17C    basis set group =>   1
Atom  18C    basis set group =>   1
Atom  19C    basis set group =>   1
Atom  20Br   basis set group =>   4
Atom  21H    basis set group =>   5
Atom  22H    basis set group =>   5
Atom  23H    basis set group =>   5
Atom  24H    basis set group =>   5
Atom  25H    basis set group =>   5
Atom  26H    basis set group =>   5
Atom  27H    basis set group =>   5
Atom  28H    basis set group =>   5
Atom  29H    basis set group =>   5
Atom  30H    basis set group =>   5
Atom  31H    basis set group =>   5
Atom  32H    basis set group =>   5
Atom  33H    basis set group =>   5
Atom  34H    basis set group =>   5


           ************************************************************
           *        Program running with 6 parallel MPI-processes     *
           *              working on a common directory               *
           ************************************************************
------------------------------------------------------------------------------
                             ORCA STARTUP CALCULATIONS
                           -- RI-GTO INTEGRALS CHOSEN --
------------------------------------------------------------------------------
------------------------------------------------------------------------------
                   ___                                                        
                  /   \      - P O W E R E D   B Y -                         
                 /     \                                                     
                 |  |  |   _    _      __       _____    __    __             
                 |  |  |  | |  | |    /  \     |  _  \  |  |  /  |          
                  \  \/   | |  | |   /    \    | | | |  |  | /  /          
                 / \  \   | |__| |  /  /\  \   | |_| |  |  |/  /          
                |  |  |   |  __  | /  /__\  \  |    /   |      \           
                |  |  |   | |  | | |   __   |  |    \   |  |\   \          
                \     /   | |  | | |  |  |  |  | |\  \  |  | \   \       
                 \___/    |_|  |_| |__|  |__|  |_| \__\ |__|  \__/        
                                                                              
                      - O R C A' S   B I G   F R I E N D -                    
                                      &                                       
                       - I N T E G R A L  F E E D E R -                       
                                                                              
 v1 FN, 2020, v2 2021, v3 2022-2024                                           
------------------------------------------------------------------------------


----------------------
SHARK INTEGRAL PACKAGE
----------------------

Number of atoms                             ...     35
Number of basis functions                   ...    758
Number of shells                            ...    294
Maximum angular momentum                    ...      3
Integral batch strategy                     ... SHARK/LIBINT Hybrid
RI-J (if used) integral strategy            ... SPLIT-RIJ (Revised 2003 algorithm where possible)
Printlevel                                  ...      1
Contraction scheme used                     ... SEGMENTED contraction
Prescreening option                         ... SCHWARTZ
   Thresh                                   ... 1.000e-10
   Tcut                                     ... 1.000e-11
   Tpresel                                  ... 1.000e-11 
Coulomb Range Separation                    ... NOT USED
Exchange Range Separation                   ... NOT USED
Multipole approximations                    ... NOT USED
Finite Nucleus Model                        ... NOT USED
CABS basis                                  ... NOT available
Auxiliary Coulomb fitting basis             ... AVAILABLE
   # of basis functions in Aux-J            ...   1194
   # of shells in Aux-J                     ...    390
   Maximum angular momentum in Aux-J        ...      4
Auxiliary J/K fitting basis                 ... NOT available
Auxiliary Correlation fitting basis         ... NOT available
Auxiliary 'external' fitting basis          ... NOT available

Checking pre-screening integrals            ... done (  0.0 sec) Dimension = 294
Check shell pair data                       ... done (  0.0 sec)
Shell pair information
Shell pair cut-off parameter TPreSel        ...   1.0e-11
Total number of shell pairs                 ...     43365
Shell pairs after pre-screening             ...     30474
Total number of primitive shell pairs       ...    141277
Primitive shell pairs kept                  ...     63689
          la=0 lb=0:   7453 shell pairs
          la=1 lb=0:   8781 shell pairs
          la=1 lb=1:   2623 shell pairs
          la=2 lb=0:   4350 shell pairs
          la=2 lb=1:   2640 shell pairs
          la=2 lb=2:    683 shell pairs
          la=3 lb=0:   1996 shell pairs
          la=3 lb=1:   1215 shell pairs
          la=3 lb=2:    592 shell pairs
          la=3 lb=3:    141 shell pairs

Calculating one electron integrals          ... done (  0.1 sec)
Calculating RI/J V-Matrix + Cholesky decomp.... done (  0.1 sec)
Calculating Nuclear repulsion               ... done (  0.0 sec) ENN=   2031.081122485018 Eh

Diagonalization of the overlap matrix:
Smallest eigenvalue                        ... 7.490e-06
Time for diagonalization                   ...    0.121 sec
Threshold for overlap eigenvalues          ... 1.000e-07
Number of eigenvalues below threshold      ... 0
Time for construction of square roots      ...    0.057 sec
Total time needed                          ...    0.185 sec

-------------------
DFT GRID GENERATION
-------------------

General Integration Accuracy     IntAcc      ... 4.388
Radial Grid Type                 RadialGrid  ... OptM3 with GC (2021)
Angular Grid (max. ang.)         AngularGrid ... 4 (Lebedev-302)
Angular grid pruning method      GridPruning ... 4 (adaptive)
Weight generation scheme         WeightScheme... mBecke (2022)
Basis function cutoff            BFCut       ... 1.0000e-10
Integration weight cutoff        WCut        ... 1.0000e-14
Partially contracted basis set               ... off
Rotationally invariant grid construction     ... off
Angular grids for H and He will be reduced by one unit
Core-polarized basis detected: some atoms will have their core
                               angular grid increased.

Total number of grid points                  ...   176763
Total number of batches                      ...     2778
Average number of points per batch           ...       63
Average number of grid points per atom       ...     5050

--------------------
COSX GRID GENERATION
--------------------

GRIDX 1
-------
General Integration Accuracy     IntAcc      ... 3.816
Radial Grid Type                 RadialGrid  ... OptM3 with GC (2021)
Angular Grid (max. ang.)         AngularGrid ... 1 (Lebedev-50)
Angular grid pruning method      GridPruning ... 4 (adaptive)
Weight generation scheme         WeightScheme... mBecke (2022)
Basis function cutoff            BFCut       ... 1.0000e-10
Integration weight cutoff        WCut        ... 1.0000e-14
Partially contracted basis set               ... on
Rotationally invariant grid construction     ... off
Angular grids for H and He will be reduced by one unit
Core-polarized basis detected: some atoms will have their core
                               angular grid increased.

Total number of grid points                  ...    28097
Total number of batches                      ...      235
Average number of points per batch           ...      119
Average number of grid points per atom       ...      803
UseSFitting                                  ... on

GRIDX 2
-------
General Integration Accuracy     IntAcc      ... 4.020
Radial Grid Type                 RadialGrid  ... OptM3 with GC (2021)
Angular Grid (max. ang.)         AngularGrid ... 2 (Lebedev-110)
Angular grid pruning method      GridPruning ... 4 (adaptive)
Weight generation scheme         WeightScheme... mBecke (2022)
Basis function cutoff            BFCut       ... 1.0000e-10
Integration weight cutoff        WCut        ... 1.0000e-14
Partially contracted basis set               ... on
Rotationally invariant grid construction     ... off
Angular grids for H and He will be reduced by one unit
Core-polarized basis detected: some atoms will have their core
                               angular grid increased.

Total number of grid points                  ...    51865
Total number of batches                      ...      421
Average number of points per batch           ...      123
Average number of grid points per atom       ...     1482
UseSFitting                                  ... on

GRIDX 3
-------
General Integration Accuracy     IntAcc      ... 4.338
Radial Grid Type                 RadialGrid  ... OptM3 with GC (2021)
Angular Grid (max. ang.)         AngularGrid ... 3 (Lebedev-194)
Angular grid pruning method      GridPruning ... 4 (adaptive)
Weight generation scheme         WeightScheme... mBecke (2022)
Basis function cutoff            BFCut       ... 1.0000e-10
Integration weight cutoff        WCut        ... 1.0000e-14
Partially contracted basis set               ... on
Rotationally invariant grid construction     ... off
Angular grids for H and He will be reduced by one unit
Core-polarized basis detected: some atoms will have their core
                               angular grid increased.

Total number of grid points                  ...   106610
Total number of batches                      ...      854
Average number of points per batch           ...      124
Average number of grid points per atom       ...     3046
UseSFitting                                  ... on
Initializing property integral containers    ... done (  0.0 sec)

SHARK setup successfully completed in   4.8 seconds

Maximum memory used throughout the entire STARTUP-calculation: 81.6 MB


           ************************************************************
           *        Program running with 6 parallel MPI-processes     *
           *              working on a common directory               *
           ************************************************************
-------------------------------------------------------------------------------
                                 ORCA GUESS
                   Start orbitals & Density for SCF / CASSCF
-------------------------------------------------------------------------------

------------
SCF SETTINGS
------------
Hamiltonian:
 Density Functional     Method          .... DFT(GTOs)
 Exchange Functional    Exchange        .... M062X
 Correlation Functional Correlation     .... M062X
 Gradients option       PostSCFGGA      .... off
 Hybrid DFT is turned on
   Fraction HF Exchange ScalHFX         ....  0.540000
   Scaling of DF-GGA-X  ScalDFX         ....  0.460000
   Scaling of DF-GGA-C  ScalDFC         ....  1.000000
   Scaling of DF-LDA-C  ScalLDAC        ....  1.000000
   Perturbative correction              ....  0.000000
 RI-approximation to the Coulomb term is turned on
   Number of AuxJ basis functions       .... 1194
   RIJ-COSX (HFX calculated with COS-X)).... on


General Settings:
 Integral files         IntName         .... data/single_point_PO_M06-2x/69773/69773
 Hartree-Fock type      HFTyp           .... RHF
 Total Charge           Charge          ....    0
 Multiplicity           Mult            ....    1
 Number of Electrons    NEL             ....  180
 Basis Dimension        Dim             ....  758
 Nuclear Repulsion      ENuc            ....   2031.0811224850 Eh

Convergence Acceleration:
 AO-DIIS                CNVDIIS         .... on
   Start iteration      DIISMaxIt       ....    12
   Startup error        DIISStart       ....  0.200000
   # of expansion vecs  DIISMaxEq       ....     5
   Bias factor          DIISBfac        ....   1.050
   Max. coefficient     DIISMaxC        ....  10.000
 MO-DIIS                CNVKDIIS        .... off
 Trust-Rad. Augm. Hess. CNVTRAH         .... auto
   Auto Start mean grad. ratio tolernc. ....  1.125000
   Auto Start start iteration           ....    50
   Auto Start num. interpolation iter.  ....    10
   Max. Number of Micro iterations      ....    24
   Max. Number of Macro iterations      .... Maxiter - #DIIS iter
   Number of Davidson start vectors     ....     2
   Converg. threshold    (grad. norm)   ....   5.000e-05
   Grad. Scal. Fac. for Micro threshold ....   0.100
   Minimum threshold for Micro iter.    ....   1.000e-02
   NR start threshold (gradient norm)   ....   1.000e-04
   Initial trust radius                 ....   0.400
   Minimum AH scaling param. (alpha)    ....   1.000
   Maximum AH scaling param. (alpha)    .... 1000.000
   Quad. conv. algorithm                .... NR
   White noise on init. David. guess    .... on
   Maximum white noise                  ....   0.010
   Pseudo random numbers                .... off
   Inactive MOs                         .... canonical
   Orbital update algorithm             .... Taylor
   Preconditioner                       .... Diag
   Full preconditioner red. dimension   ....   250
 SOSCF                  CNVSOSCF        .... on
   Start iteration      SOSCFMaxIt      ....   150
   Startup grad/error   SOSCFStart      ....  0.003300
   Hessian update       SOSCFHessUp     .... L-BFGS
 Level Shifting         CNVShift        .... on
   Level shift para.    LevelShift      ....    0.2500
   Turn off err/grad.   ShiftErr        ....    0.0010
 Zerner damping         CNVZerner       .... off
 Static damping         CNVDamp         .... on
   Fraction old density DampFac         ....    0.7000
   Max. Damping (<1)    DampMax         ....    0.9800
   Min. Damping (>=0)   DampMin         ....    0.0000
   Turn off err/grad.   DampErr         ....    0.1000

SCF Procedure:
 Maximum # iterations   MaxIter         ....   125
 SCF integral mode      SCFMode         .... Direct
   Integral package                     .... SHARK and LIBINT hybrid scheme
 Reset frequency        DirectResetFreq ....    20
 Integral Threshold     Thresh          ....  1.000e-10 Eh
 Primitive CutOff       TCut            ....  1.000e-11 Eh

Convergence Tolerance:
 Convergence Check Mode ConvCheckMode   .... Total+1el-Energy
 Convergence forced     ConvForced      .... 0
 Energy Change          TolE            ....  1.000e-06 Eh
 1-El. energy change                    ....  1.000e-03 Eh
 Orbital Gradient       TolG            ....  5.000e-05
 Orbital Rotation angle TolX            ....  5.000e-05
 DIIS Error             TolErr          ....  1.000e-05

------------------------------
INITIAL GUESS: MODEL POTENTIAL
------------------------------
Loading Hartree-Fock densities                     ... done
Calculating cut-offs                               ... done
Initializing the effective Hamiltonian             ... done
Setting up the integral package (SHARK)            ... done
Starting the Coulomb interaction                   ... done (   0.6 sec)
Making the grid                                    ... done (   0.4 sec)
Mapping shells                                     ... done
Starting the XC term evaluation                    ... done (   0.5 sec)
  promolecular density results
     # of electrons  =    179.985227866
     EX              =   -216.064618304
     EC              =     -6.627666860
     EX+EC           =   -222.692285163
Transforming the Hamiltonian                       ... done (   0.1 sec)
Diagonalizing the Hamiltonian                      ... done (   0.1 sec)
Back transforming the eigenvectors                 ... done (   0.1 sec)
Now organizing SCF variables                       ... done
                      ------------------
                      INITIAL GUESS DONE (   1.9 sec)
                      ------------------
             **** ENERGY FILE WAS UPDATED (data/single_point_PO_M06-2x/69773/69773.en.tmp) ****
Finished Guess after   2.1 sec
Maximum memory used throughout the entire GUESS-calculation: 59.6 MB


           ************************************************************
           *        Program running with 6 parallel MPI-processes     *
           *              working on a common directory               *
           ************************************************************

-------------------------------------------------------------------------------------------
                                      ORCA LEAN-SCF
                              memory conserving SCF solver
-------------------------------------------------------------------------------------------

----------------------------------------D-I-I-S--------------------------------------------
Iteration    Energy (Eh)           Delta-E    RMSDP     MaxDP     DIISErr   Damp  Time(sec)
-------------------------------------------------------------------------------------------
               ***  Starting incremental Fock matrix formation  ***
    1    -3684.5644297795288367     0.00e+00  1.46e-03  8.99e-02  3.63e-01  0.700  20.2
    2    -3684.7989749815114919    -2.35e-01  1.20e-03  8.24e-02  1.57e-01  0.700  10.6
                               ***Turning on AO-DIIS***
    3    -3684.9052386093635505    -1.06e-01  6.97e-04  2.27e-02  4.61e-02  0.700  10.8
    4    -3684.9692557512435087    -6.40e-02  1.61e-03  5.56e-02  3.37e-02  0.000   9.9
    5    -3685.1083797358969605    -1.39e-01  1.60e-04  1.36e-02  7.89e-03  0.000  10.1
                              *** Initializing SOSCF ***
---------------------------------------S-O-S-C-F--------------------------------------
Iteration    Energy (Eh)           Delta-E    RMSDP     MaxDP     MaxGrad    Time(sec)
--------------------------------------------------------------------------------------
    6    -3685.1087845321362693    -4.05e-04  5.18e-05  3.94e-03  9.12e-04     9.5
               *** Restarting incremental Fock matrix formation ***
    7    -3685.1088349726624074    -5.04e-05  1.02e-04  3.92e-03  4.01e-04    17.6
    8    -3685.1088390848763083    -4.11e-06  4.45e-05  2.20e-03  3.36e-04    12.6
    9    -3685.1088452510621210    -6.17e-06  3.89e-05  1.52e-03  7.19e-05    12.7
   10    -3685.1088455720300772    -3.21e-07  4.92e-06  1.85e-04  2.50e-05    12.4
                 **** Energy Check signals convergence ****

               *****************************************************
               *                     SUCCESS                       *
               *           SCF CONVERGED AFTER  10 CYCLES          *
               *****************************************************

Recomputing exchange energy using gridx3       ... done (   26.352 sec)
Old exchange energy                            :   -118.095806452 Eh
New exchange energy                            :   -118.095711113 Eh
Exchange energy change after final integration :      0.000095339 Eh
Total energy after final integration           :  -3685.108750233 Eh
             **** ENERGY FILE WAS UPDATED (data/single_point_PO_M06-2x/69773/69773.en.tmp) ****

----------------
TOTAL SCF ENERGY
----------------

Total Energy       :      -3685.10875023269818 Eh         -100276.90707 eV

Components:
Nuclear Repulsion  :       2031.08112248501789 Eh           55268.52714 eV
Electronic Energy  :      -5716.18996805704774 Eh         -155545.43681 eV
One Electron Energy:      -9136.98379266425763 Eh         -248629.96910 eV
Two Electron Energy:       3420.79382460720990 Eh           93084.53229 eV

Virial components:
Potential Energy   :      -7361.25593948837195 Eh         -200309.95767 eV
Kinetic Energy     :       3676.14718925567377 Eh          100033.05060 eV
Virial Ratio       :          2.00243775902206

DFT components:
N(Alpha)           :       89.999977270801 electrons
N(Beta)            :       89.999977270801 electrons
N(Total)           :      179.999954541602 electrons
E(XC)              :     -107.695804363216 Eh       

---------------
SCF CONVERGENCE
---------------

  Last Energy change         ...    3.2097e-07  Tolerance :   1.0000e-06
  Last MAX-Density change    ...    1.8520e-04  Tolerance :   1.0000e-05
  Last RMS-Density change    ...    4.9157e-06  Tolerance :   1.0000e-06
  Last DIIS Error            ...    9.1154e-04  Tolerance :   1.0000e-05
  Last Orbital Gradient      ...    2.4997e-05  Tolerance :   5.0000e-05
  Last Orbital Rotation      ...    3.4990e-05  Tolerance :   5.0000e-05


----------------
ORBITAL ENERGIES
----------------

  NO   OCC          E(Eh)            E(eV) 
   0   2.0000    -485.384648    -13207.9878 
   1   2.0000     -78.103250     -2125.2975 
   2   2.0000     -63.366379     -1724.2868 
   3   2.0000     -57.184844     -1556.0787 
   4   2.0000     -57.183245     -1556.0352 
   5   2.0000     -57.183229     -1556.0348 
   6   2.0000     -19.572086      -532.5835 
   7   2.0000     -10.619414      -288.9690 
   8   2.0000     -10.575583      -287.7762 
   9   2.0000     -10.573305      -287.7143 
  10   2.0000     -10.571391      -287.6622 
  11   2.0000     -10.570226      -287.6305 
  12   2.0000     -10.568370      -287.5800 
  13   2.0000     -10.567972      -287.5691 
  14   2.0000     -10.567661      -287.5607 
  15   2.0000     -10.564718      -287.4806 
  16   2.0000     -10.564618      -287.4779 
  17   2.0000     -10.564255      -287.4680 
  18   2.0000     -10.564252      -287.4679 
  19   2.0000     -10.562838      -287.4294 
  20   2.0000     -10.562803      -287.4285 
  21   2.0000     -10.562505      -287.4204 
  22   2.0000     -10.562434      -287.4184 
  23   2.0000     -10.560674      -287.3705 
  24   2.0000     -10.560646      -287.3698 
  25   2.0000      -9.033024      -245.8011 
  26   2.0000      -6.909433      -188.0152 
  27   2.0000      -6.856905      -186.5859 
  28   2.0000      -6.848472      -186.3564 
  29   2.0000      -6.848164      -186.3480 
  30   2.0000      -5.026579      -136.7802 
  31   2.0000      -5.026543      -136.7792 
  32   2.0000      -5.024854      -136.7332 
  33   2.0000      -2.890886       -78.6650 
  34   2.0000      -2.887899       -78.5837 
  35   2.0000      -2.887545       -78.5741 
  36   2.0000      -2.879368       -78.3516 
  37   2.0000      -2.879362       -78.3514 
  38   2.0000      -1.068142       -29.0656 
  39   2.0000      -0.986385       -26.8409 
  40   2.0000      -0.970162       -26.3995 
  41   2.0000      -0.966829       -26.3088 
  42   2.0000      -0.909368       -24.7452 
  43   2.0000      -0.868880       -23.6434 
  44   2.0000      -0.863335       -23.4925 
  45   2.0000      -0.853830       -23.2339 
  46   2.0000      -0.853133       -23.2149 
  47   2.0000      -0.849648       -23.1201 
  48   2.0000      -0.825761       -22.4701 
  49   2.0000      -0.736464       -20.0402 
  50   2.0000      -0.712759       -19.3952 
  51   2.0000      -0.700973       -19.0744 
  52   2.0000      -0.698942       -19.0192 
  53   2.0000      -0.689159       -18.7530 
  54   2.0000      -0.684671       -18.6309 
  55   2.0000      -0.644714       -17.5436 
  56   2.0000      -0.603349       -16.4180 
  57   2.0000      -0.600194       -16.3321 
  58   2.0000      -0.572188       -15.5700 
  59   2.0000      -0.548524       -14.9261 
  60   2.0000      -0.539739       -14.6870 
  61   2.0000      -0.537008       -14.6127 
  62   2.0000      -0.529646       -14.4124 
  63   2.0000      -0.527857       -14.3637 
  64   2.0000      -0.523045       -14.2328 
  65   2.0000      -0.508537       -13.8380 
  66   2.0000      -0.499643       -13.5960 
  67   2.0000      -0.498488       -13.5646 
  68   2.0000      -0.494671       -13.4607 
  69   2.0000      -0.487928       -13.2772 
  70   2.0000      -0.467400       -12.7186 
  71   2.0000      -0.458069       -12.4647 
  72   2.0000      -0.450126       -12.2486 
  73   2.0000      -0.447026       -12.1642 
  74   2.0000      -0.430971       -11.7273 
  75   2.0000      -0.422860       -11.5066 
  76   2.0000      -0.417460       -11.3597 
  77   2.0000      -0.412604       -11.2275 
  78   2.0000      -0.411610       -11.2005 
  79   2.0000      -0.411242       -11.1905 
  80   2.0000      -0.385745       -10.4966 
  81   2.0000      -0.357485        -9.7277 
  82   2.0000      -0.345275        -9.3954 
  83   2.0000      -0.343072        -9.3355 
  84   2.0000      -0.330285        -8.9875 
  85   2.0000      -0.324402        -8.8274 
  86   2.0000      -0.322364        -8.7720 
  87   2.0000      -0.320338        -8.7168 
  88   2.0000      -0.318151        -8.6573 
  89   2.0000      -0.305631        -8.3166 
  90   0.0000      -0.021097        -0.5741 
  91   0.0000      -0.016686        -0.4540 
  92   0.0000      -0.007660        -0.2084 
  93   0.0000      -0.003719        -0.1012 
  94   0.0000       0.004506         0.1226 
  95   0.0000       0.008439         0.2296 
  96   0.0000       0.029830         0.8117 
  97   0.0000       0.066451         1.8082 
  98   0.0000       0.079157         2.1540 
  99   0.0000       0.087748         2.3877 
 100   0.0000       0.093009         2.5309 
*Only the first 10 virtual orbitals were printed.

                    ********************************
                    * MULLIKEN POPULATION ANALYSIS *
                    ********************************

-----------------------
MULLIKEN ATOMIC CHARGES
-----------------------
   0 C :   -0.133943
   1 C :   -0.137249
   2 C :   -0.147226
   3 C :   -0.070015
   4 C :   -0.200807
   5 C :   -0.148622
   6 P :    0.636169
   7 O :   -0.596123
   8 C :   -0.078615
   9 C :   -0.193943
  10 C :   -0.149632
  11 C :   -0.133364
  12 C :   -0.135938
  13 C :   -0.147883
  14 C :   -0.093335
  15 C :   -0.140000
  16 C :   -0.139956
  17 C :    0.046820
  18 C :   -0.160503
  19 C :   -0.188822
  20 Br:   -0.091009
  21 H :    0.150725
  22 H :    0.151522
  23 H :    0.186326
  24 H :    0.193709
  25 H :    0.150295
  26 H :    0.195782
  27 H :    0.149833
  28 H :    0.150879
  29 H :    0.151485
  30 H :    0.186370
  31 H :    0.190680
  32 H :    0.173299
  33 H :    0.172219
  34 H :    0.200872
Sum of atomic charges:   -0.0000000

--------------------------------
MULLIKEN REDUCED ORBITAL CHARGES
--------------------------------
  0 C s       :     3.228193  s :     3.228193
      pz      :     0.911856  p :     2.838112
      px      :     0.932735
      py      :     0.993520
      dz2     :     0.015400  d :     0.061366
      dxz     :     0.011366
      dyz     :     0.015563
      dx2y2   :     0.012027
      dxy     :     0.007009
      f0      :     0.001043  f :     0.006273
      f+1     :     0.000962
      f-1     :     0.001051
      f+2     :     0.001117
      f-2     :     0.000753
      f+3     :     0.000529
      f-3     :     0.000817

  1 C s       :     3.226649  s :     3.226649
      pz      :     0.923390  p :     2.844799
      px      :     0.965636
      py      :     0.955773
      dz2     :     0.014232  d :     0.059521
      dxz     :     0.012254
      dyz     :     0.012115
      dx2y2   :     0.007982
      dxy     :     0.012938
      f0      :     0.001030  f :     0.006280
      f+1     :     0.000753
      f-1     :     0.001170
      f+2     :     0.000844
      f-2     :     0.000952
      f+3     :     0.000928
      f-3     :     0.000604

  2 C s       :     3.210922  s :     3.210922
      pz      :     1.010374  p :     2.865564
      px      :     0.944117
      py      :     0.911072
      dz2     :     0.013051  d :     0.064228
      dxz     :     0.007041
      dyz     :     0.015768
      dx2y2   :     0.012038
      dxy     :     0.016329
      f0      :     0.000435  f :     0.006513
      f+1     :     0.000678
      f-1     :     0.001403
      f+2     :     0.000996
      f-2     :     0.000808
      f+3     :     0.001100
      f-3     :     0.001093

  3 C s       :     3.232323  s :     3.232323
      pz      :     0.876124  p :     2.756895
      px      :     0.963485
      py      :     0.917286
      dz2     :     0.018601  d :     0.073733
      dxz     :     0.012743
      dyz     :     0.017674
      dx2y2   :     0.015755
      dxy     :     0.008959
      f0      :     0.001072  f :     0.007064
      f+1     :     0.001046
      f-1     :     0.001266
      f+2     :     0.001226
      f-2     :     0.000881
      f+3     :     0.000710
      f-3     :     0.000864

  4 C s       :     3.206975  s :     3.206975
      pz      :     0.900668  p :     2.920949
      px      :     0.976551
      py      :     1.043730
      dz2     :     0.014820  d :     0.066383
      dxz     :     0.013397
      dyz     :     0.016437
      dx2y2   :     0.006670
      dxy     :     0.015059
      f0      :     0.001063  f :     0.006500
      f+1     :     0.000708
      f-1     :     0.001222
      f+2     :     0.000907
      f-2     :     0.001017
      f+3     :     0.000951
      f-3     :     0.000632

  5 C s       :     3.227230  s :     3.227230
      pz      :     1.003482  p :     2.855161
      px      :     0.952856
      py      :     0.898824
      dz2     :     0.011019  d :     0.059936
      dxz     :     0.006962
      dyz     :     0.014417
      dx2y2   :     0.013112
      dxy     :     0.014427
      f0      :     0.000403  f :     0.006294
      f+1     :     0.000742
      f-1     :     0.001248
      f+2     :     0.001037
      f-2     :     0.000831
      f+3     :     0.001018
      f-3     :     0.001015

  6 P s       :     5.291790  s :     5.291790
      pz      :     2.615885  p :     8.299710
      px      :     2.839338
      py      :     2.844487
      dz2     :     0.096347  d :     0.707500
      dxz     :     0.211918
      dyz     :     0.220027
      dx2y2   :     0.086287
      dxy     :     0.092921
      f0      :     0.007555  f :     0.064831
      f+1     :     0.018573
      f-1     :     0.018343
      f+2     :     0.005895
      f-2     :     0.005598
      f+3     :     0.004979
      f-3     :     0.003888

  7 O s       :     3.882324  s :     3.882324
      pz      :     1.363255  p :     4.687892
      px      :     1.662391
      py      :     1.662247
      dz2     :     0.009897  d :     0.024645
      dxz     :     0.007265
      dyz     :     0.007255
      dx2y2   :     0.000119
      dxy     :     0.000108
      f0      :     0.000539  f :     0.001262
      f+1     :     0.000352
      f-1     :     0.000353
      f+2     :     0.000008
      f-2     :     0.000008
      f+3     :     0.000001
      f-3     :     0.000000

  8 C s       :     3.230345  s :     3.230345
      pz      :     0.878799  p :     2.767509
      px      :     0.938861
      py      :     0.949849
      dz2     :     0.019216  d :     0.073703
      dxz     :     0.014482
      dyz     :     0.015230
      dx2y2   :     0.011780
      dxy     :     0.012995
      f0      :     0.001092  f :     0.007059
      f+1     :     0.000873
      f-1     :     0.001392
      f+2     :     0.000924
      f-2     :     0.001243
      f+3     :     0.000715
      f-3     :     0.000820

  9 C s       :     3.204597  s :     3.204597
      pz      :     0.910028  p :     2.916527
      px      :     0.979205
      py      :     1.027294
      dz2     :     0.014203  d :     0.066347
      dxz     :     0.012248
      dyz     :     0.017625
      dx2y2   :     0.014289
      dxy     :     0.007982
      f0      :     0.001071  f :     0.006473
      f+1     :     0.000941
      f-1     :     0.000909
      f+2     :     0.000848
      f-2     :     0.001085
      f+3     :     0.000925
      f-3     :     0.000694

 10 C s       :     3.227792  s :     3.227792
      pz      :     1.002033  p :     2.855311
      px      :     0.941707
      py      :     0.911571
      dz2     :     0.011114  d :     0.060227
      dxz     :     0.010971
      dyz     :     0.010484
      dx2y2   :     0.018985
      dxy     :     0.008673
      f0      :     0.000443  f :     0.006303
      f+1     :     0.000894
      f-1     :     0.001057
      f+2     :     0.000777
      f-2     :     0.001103
      f+3     :     0.001014
      f-3     :     0.001014

 11 C s       :     3.226711  s :     3.226711
      pz      :     0.908458  p :     2.838727
      px      :     0.978564
      py      :     0.951705
      dz2     :     0.015795  d :     0.061652
      dxz     :     0.014941
      dyz     :     0.012118
      dx2y2   :     0.007573
      dxy     :     0.011224
      f0      :     0.001060  f :     0.006273
      f+1     :     0.000715
      f-1     :     0.001283
      f+2     :     0.000788
      f-2     :     0.001121
      f+3     :     0.000554
      f-3     :     0.000753

 12 C s       :     3.226108  s :     3.226108
      pz      :     0.928671  p :     2.843869
      px      :     0.935600
      py      :     0.979598
      dz2     :     0.014010  d :     0.059691
      dxz     :     0.009617
      dyz     :     0.014715
      dx2y2   :     0.012668
      dxy     :     0.008681
      f0      :     0.001038  f :     0.006270
      f+1     :     0.000928
      f-1     :     0.000938
      f+2     :     0.000732
      f-2     :     0.001063
      f+3     :     0.000909
      f-3     :     0.000662

 13 C s       :     3.209619  s :     3.209619
      pz      :     1.007090  p :     2.867104
      px      :     0.942085
      py      :     0.917928
      dz2     :     0.012906  d :     0.064624
      dxz     :     0.012520
      dyz     :     0.010817
      dx2y2   :     0.019894
      dxy     :     0.008487
      f0      :     0.000470  f :     0.006536
      f+1     :     0.000939
      f-1     :     0.001106
      f+2     :     0.000783
      f-2     :     0.001040
      f+3     :     0.001109
      f-3     :     0.001088

 14 C s       :     3.238681  s :     3.238681
      pz      :     0.878286  p :     2.774262
      px      :     0.934199
      py      :     0.961777
      dz2     :     0.019611  d :     0.073335
      dxz     :     0.016471
      dyz     :     0.011489
      dx2y2   :     0.009896
      dxy     :     0.015868
      f0      :     0.001083  f :     0.007057
      f+1     :     0.001390
      f-1     :     0.000788
      f+2     :     0.001065
      f-2     :     0.001214
      f+3     :     0.000707
      f-3     :     0.000810

 15 C s       :     3.208240  s :     3.208240
      pz      :     1.000518  p :     2.860523
      px      :     0.907339
      py      :     0.952666
      dz2     :     0.011936  d :     0.064675
      dxz     :     0.015948
      dyz     :     0.008250
      dx2y2   :     0.010414
      dxy     :     0.018126
      f0      :     0.000452  f :     0.006562
      f+1     :     0.001364
      f-1     :     0.000658
      f+2     :     0.000914
      f-2     :     0.000954
      f+3     :     0.001160
      f-3     :     0.001060

 16 C s       :     3.172758  s :     3.172758
      pz      :     0.912848  p :     2.896540
      px      :     1.033670
      py      :     0.950022
      dz2     :     0.015893  d :     0.064180
      dxz     :     0.014380
      dyz     :     0.011184
      dx2y2   :     0.013223
      dxy     :     0.009499
      f0      :     0.001083  f :     0.006478
      f+1     :     0.000985
      f-1     :     0.000806
      f+2     :     0.001162
      f-2     :     0.000832
      f+3     :     0.000970
      f-3     :     0.000641

 17 C s       :     3.266424  s :     3.266424
      pz      :     0.882498  p :     2.561133
      px      :     0.747382
      py      :     0.931254
      dz2     :     0.026058  d :     0.117423
      dxz     :     0.030036
      dyz     :     0.016114
      dx2y2   :     0.019938
      dxy     :     0.025277
      f0      :     0.001144  f :     0.008200
      f+1     :     0.001671
      f-1     :     0.000792
      f+2     :     0.001210
      f-2     :     0.001332
      f+3     :     0.001023
      f-3     :     0.001027

 18 C s       :     3.169969  s :     3.169969
      pz      :     1.008120  p :     2.919383
      px      :     0.925576
      py      :     0.985687
      dz2     :     0.010600  d :     0.064640
      dxz     :     0.016468
      dyz     :     0.008237
      dx2y2   :     0.011354
      dxy     :     0.017981
      f0      :     0.000429  f :     0.006512
      f+1     :     0.001244
      f-1     :     0.000749
      f+2     :     0.001005
      f-2     :     0.000933
      f+3     :     0.001154
      f-3     :     0.000998

 19 C s       :     3.196395  s :     3.196395
      pz      :     0.910572  p :     2.919086
      px      :     1.060881
      py      :     0.947633
      dz2     :     0.014374  d :     0.066810
      dxz     :     0.018824
      dyz     :     0.009631
      dx2y2   :     0.013475
      dxy     :     0.010506
      f0      :     0.001067  f :     0.006531
      f+1     :     0.001025
      f-1     :     0.000747
      f+2     :     0.001141
      f-2     :     0.000891
      f+3     :     0.000988
      f-3     :     0.000672

 20 Brs       :     7.925363  s :     7.925363
      pz      :     5.879007  p :    17.105507
      px      :     5.370009
      py      :     5.856491
      dz2     :     2.006347  d :    10.052714
      dxz     :     2.013143
      dyz     :     2.002655
      dx2y2   :     2.014234
      dxy     :     2.016335
      f0      :     0.000781  f :     0.007425
      f+1     :     0.001017
      f-1     :     0.000202
      f+2     :     0.001237
      f-2     :     0.000903
      f+3     :     0.001427
      f-3     :     0.001857

 21 H s       :     0.829607  s :     0.829607
      pz      :     0.004336  p :     0.019668
      px      :     0.003676
      py      :     0.011656

 22 H s       :     0.828711  s :     0.828711
      pz      :     0.005931  p :     0.019767
      px      :     0.006002
      py      :     0.007834

 23 H s       :     0.793163  s :     0.793163
      pz      :     0.012594  p :     0.020511
      px      :     0.004232
      py      :     0.003685

 24 H s       :     0.786129  s :     0.786129
      pz      :     0.005696  p :     0.020163
      px      :     0.006475
      py      :     0.007991

 25 H s       :     0.829966  s :     0.829966
      pz      :     0.011579  p :     0.019739
      px      :     0.004814
      py      :     0.003347

 26 H s       :     0.783953  s :     0.783953
      pz      :     0.006055  p :     0.020265
      px      :     0.004200
      py      :     0.010011

 27 H s       :     0.830436  s :     0.830436
      pz      :     0.011490  p :     0.019732
      px      :     0.004979
      py      :     0.003262

 28 H s       :     0.829433  s :     0.829433
      pz      :     0.004060  p :     0.019688
      px      :     0.008540
      py      :     0.007088

 29 H s       :     0.828735  s :     0.828735
      pz      :     0.006308  p :     0.019780
      px      :     0.004312
      py      :     0.009161

 30 H s       :     0.793163  s :     0.793163
      pz      :     0.012431  p :     0.020467
      px      :     0.005008
      py      :     0.003028

 31 H s       :     0.788709  s :     0.788709
      pz      :     0.012251  p :     0.020611
      px      :     0.002943
      py      :     0.005417

 32 H s       :     0.806471  s :     0.806471
      pz      :     0.006325  p :     0.020230
      px      :     0.010267
      py      :     0.003638

 33 H s       :     0.807587  s :     0.807587
      pz      :     0.011508  p :     0.020194
      px      :     0.002740
      py      :     0.005946

 34 H s       :     0.778838  s :     0.778838
      pz      :     0.006109  p :     0.020290
      px      :     0.010512
      py      :     0.003669



                     *******************************
                     * LOEWDIN POPULATION ANALYSIS *
                     *******************************

----------------------
LOEWDIN ATOMIC CHARGES
----------------------
   0 C :   -0.130102
   1 C :   -0.133940
   2 C :   -0.113105
   3 C :   -0.230638
   4 C :   -0.138851
   5 C :   -0.140005
   6 P :    0.684819
   7 O :   -0.305428
   8 C :   -0.230672
   9 C :   -0.138418
  10 C :   -0.140182
  11 C :   -0.130221
  12 C :   -0.133884
  13 C :   -0.113464
  14 C :   -0.227171
  15 C :   -0.105820
  16 C :   -0.137227
  17 C :   -0.372198
  18 C :   -0.143152
  19 C :   -0.130636
  20 Br:    0.346919
  21 H :    0.149374
  22 H :    0.150272
  23 H :    0.161164
  24 H :    0.155036
  25 H :    0.149376
  26 H :    0.155966
  27 H :    0.149306
  28 H :    0.149343
  29 H :    0.150309
  30 H :    0.161095
  31 H :    0.164271
  32 H :    0.155051
  33 H :    0.154066
  34 H :    0.158745

-------------------------------
LOEWDIN REDUCED ORBITAL CHARGES
-------------------------------
  0 C s       :     2.779545  s :     2.779545
      pz      :     1.027868  p :     2.936176
      px      :     0.920136
      py      :     0.988172
      dz2     :     0.097204  d :     0.373932
      dxz     :     0.071722
      dyz     :     0.105867
      dx2y2   :     0.063935
      dxy     :     0.035205
      f0      :     0.006162  f :     0.040449
      f+1     :     0.006840
      f-1     :     0.009137
      f+2     :     0.005547
      f-2     :     0.005312
      f+3     :     0.003565
      f-3     :     0.003885

  1 C s       :     2.778036  s :     2.778036
      pz      :     1.017316  p :     2.943618
      px      :     0.911071
      py      :     1.015230
      dz2     :     0.081038  d :     0.371846
      dxz     :     0.056738
      dyz     :     0.130432
      dx2y2   :     0.041412
      dxy     :     0.062225
      f0      :     0.006554  f :     0.040440
      f+1     :     0.005471
      f-1     :     0.009883
      f+2     :     0.005756
      f-2     :     0.003994
      f+3     :     0.005157
      f-3     :     0.003626

  2 C s       :     2.776057  s :     2.776057
      pz      :     0.982981  p :     2.916550
      px      :     0.898978
      py      :     1.034591
      dz2     :     0.090354  d :     0.379446
      dxz     :     0.035732
      dyz     :     0.095208
      dx2y2   :     0.078053
      dxy     :     0.080099
      f0      :     0.002905  f :     0.041052
      f+1     :     0.003541
      f-1     :     0.010550
      f+2     :     0.006952
      f-2     :     0.005785
      f+3     :     0.006560
      f-3     :     0.004758

  3 C s       :     2.770827  s :     2.770827
      pz      :     1.036016  p :     2.984605
      px      :     0.931539
      py      :     1.017049
      dz2     :     0.105930  d :     0.431480
      dxz     :     0.076306
      dyz     :     0.122946
      dx2y2   :     0.075911
      dxy     :     0.050387
      f0      :     0.006115  f :     0.043726
      f+1     :     0.006929
      f-1     :     0.010463
      f+2     :     0.006043
      f-2     :     0.005826
      f+3     :     0.004266
      f-3     :     0.004084

  4 C s       :     2.775903  s :     2.775903
      pz      :     1.008069  p :     2.939385
      px      :     0.912353
      py      :     1.018963
      dz2     :     0.082435  d :     0.382654
      dxz     :     0.059507
      dyz     :     0.130552
      dx2y2   :     0.042208
      dxy     :     0.067952
      f0      :     0.006748  f :     0.040909
      f+1     :     0.005425
      f-1     :     0.009776
      f+2     :     0.005769
      f-2     :     0.004077
      f+3     :     0.005326
      f-3     :     0.003788

  5 C s       :     2.778013  s :     2.778013
      pz      :     0.977447  p :     2.948206
      px      :     0.926500
      py      :     1.044259
      dz2     :     0.086995  d :     0.373276
      dxz     :     0.037793
      dyz     :     0.092809
      dx2y2   :     0.076153
      dxy     :     0.079527
      f0      :     0.002817  f :     0.040510
      f+1     :     0.003812
      f-1     :     0.010129
      f+2     :     0.006791
      f-2     :     0.005677
      f+3     :     0.006662
      f-3     :     0.004621

  6 P s       :     4.642674  s :     4.642674
      pz      :     2.721252  p :     8.264255
      px      :     2.770450
      py      :     2.772553
      dz2     :     0.244022  d :     1.187611
      dxz     :     0.305210
      dyz     :     0.317984
      dx2y2   :     0.155373
      dxy     :     0.165023
      f0      :     0.039252  f :     0.220640
      f+1     :     0.055773
      f-1     :     0.055649
      f+2     :     0.019594
      f-2     :     0.019413
      f+3     :     0.017566
      f-3     :     0.013394

  7 O s       :     3.539497  s :     3.539497
      pz      :     1.523745  p :     4.722168
      px      :     1.599059
      py      :     1.599364
      dz2     :     0.025205  d :     0.041651
      dxz     :     0.008009
      dyz     :     0.008056
      dx2y2   :     0.000182
      dxy     :     0.000200
      f0      :     0.001191  f :     0.002112
      f+1     :     0.000429
      f-1     :     0.000440
      f+2     :     0.000021
      f-2     :     0.000028
      f+3     :     0.000002
      f-3     :     0.000001

  8 C s       :     2.770953  s :     2.770953
      pz      :     1.036672  p :     2.984527
      px      :     0.957928
      py      :     0.989927
      dz2     :     0.109450  d :     0.431490
      dxz     :     0.086593
      dyz     :     0.108802
      dx2y2   :     0.051032
      dxy     :     0.075613
      f0      :     0.006206  f :     0.043703
      f+1     :     0.006407
      f-1     :     0.010647
      f+2     :     0.006578
      f-2     :     0.005784
      f+3     :     0.004252
      f-3     :     0.003828

  9 C s       :     2.776049  s :     2.776049
      pz      :     1.005728  p :     2.939247
      px      :     0.967753
      py      :     0.965767
      dz2     :     0.079099  d :     0.382241
      dxz     :     0.088132
      dyz     :     0.102429
      dx2y2   :     0.063193
      dxy     :     0.049388
      f0      :     0.007005  f :     0.040880
      f+1     :     0.007094
      f-1     :     0.007528
      f+2     :     0.004408
      f-2     :     0.005419
      f+3     :     0.005351
      f-3     :     0.004075

 10 C s       :     2.778064  s :     2.778064
      pz      :     0.977955  p :     2.948289
      px      :     0.965242
      py      :     1.005092
      dz2     :     0.085802  d :     0.373334
      dxz     :     0.066100
      dyz     :     0.066655
      dx2y2   :     0.078788
      dxy     :     0.075990
      f0      :     0.003189  f :     0.040496
      f+1     :     0.005133
      f-1     :     0.008430
      f+2     :     0.006290
      f-2     :     0.006170
      f+3     :     0.006806
      f-3     :     0.004478

 11 C s       :     2.779529  s :     2.779529
      pz      :     1.029595  p :     2.936298
      px      :     0.933401
      py      :     0.973302
      dz2     :     0.101143  d :     0.373946
      dxz     :     0.073835
      dyz     :     0.100544
      dx2y2   :     0.034262
      dxy     :     0.064163
      f0      :     0.006244  f :     0.040447
      f+1     :     0.005674
      f-1     :     0.010069
      f+2     :     0.006091
      f-2     :     0.005254
      f+3     :     0.003577
      f-3     :     0.003538

 12 C s       :     2.778008  s :     2.778008
      pz      :     1.014424  p :     2.943473
      px      :     0.968112
      py      :     0.960937
      dz2     :     0.077909  d :     0.371948
      dxz     :     0.088602
      dyz     :     0.099537
      dx2y2   :     0.057000
      dxy     :     0.048900
      f0      :     0.006823  f :     0.040455
      f+1     :     0.007151
      f-1     :     0.007630
      f+2     :     0.004228
      f-2     :     0.005529
      f+3     :     0.005217
      f-3     :     0.003877

 13 C s       :     2.775964  s :     2.775964
      pz      :     0.982567  p :     2.916901
      px      :     0.949614
      py      :     0.984721
      dz2     :     0.088893  d :     0.379543
      dxz     :     0.067236
      dyz     :     0.066272
      dx2y2   :     0.079636
      dxy     :     0.077507
      f0      :     0.003286  f :     0.041055
      f+1     :     0.005251
      f-1     :     0.008444
      f+2     :     0.006479
      f-2     :     0.006295
      f+3     :     0.006704
      f-3     :     0.004596

 14 C s       :     2.770943  s :     2.770943
      pz      :     1.030012  p :     2.983540
      px      :     1.032925
      py      :     0.920603
      dz2     :     0.107543  d :     0.428836
      dxz     :     0.123822
      dyz     :     0.065684
      dx2y2   :     0.063405
      dxy     :     0.068383
      f0      :     0.006069  f :     0.043852
      f+1     :     0.011448
      f-1     :     0.005055
      f+2     :     0.005456
      f-2     :     0.007463
      f+3     :     0.004392
      f-3     :     0.003970

 15 C s       :     2.775422  s :     2.775422
      pz      :     0.978166  p :     2.907593
      px      :     1.045340
      py      :     0.884087
      dz2     :     0.084487  d :     0.381592
      dxz     :     0.095769
      dyz     :     0.039448
      dx2y2   :     0.081476
      dxy     :     0.080412
      f0      :     0.003314  f :     0.041213
      f+1     :     0.010969
      f-1     :     0.002473
      f+2     :     0.005214
      f-2     :     0.007469
      f+3     :     0.006975
      f-3     :     0.004797

 16 C s       :     2.778621  s :     2.778621
      pz      :     0.999927  p :     2.947802
      px      :     1.023325
      py      :     0.924550
      dz2     :     0.078115  d :     0.370167
      dxz     :     0.126310
      dyz     :     0.053962
      dx2y2   :     0.063658
      dxy     :     0.048122
      f0      :     0.007209  f :     0.040637
      f+1     :     0.008161
      f-1     :     0.005754
      f+2     :     0.004502
      f-2     :     0.005529
      f+3     :     0.005456
      f-3     :     0.004026

 17 C s       :     2.798897  s :     2.798897
      pz      :     1.055609  p :     2.977974
      px      :     0.991069
      py      :     0.931296
      dz2     :     0.124172  d :     0.543179
      dxz     :     0.153935
      dyz     :     0.072355
      dx2y2   :     0.092650
      dxy     :     0.100067
      f0      :     0.007063  f :     0.052148
      f+1     :     0.013685
      f-1     :     0.005159
      f+2     :     0.005941
      f-2     :     0.008784
      f+3     :     0.006228
      f-3     :     0.005288

 18 C s       :     2.778537  s :     2.778537
      pz      :     0.976677  p :     2.952471
      px      :     1.056022
      py      :     0.919772
      dz2     :     0.077172  d :     0.371440
      dxz     :     0.097367
      dyz     :     0.040689
      dx2y2   :     0.079301
      dxy     :     0.076911
      f0      :     0.003183  f :     0.040705
      f+1     :     0.010407
      f-1     :     0.002665
      f+2     :     0.005401
      f-2     :     0.007342
      f+3     :     0.006952
      f-3     :     0.004756

 19 C s       :     2.775432  s :     2.775432
      pz      :     1.000298  p :     2.929682
      px      :     1.013922
      py      :     0.915462
      dz2     :     0.076673  d :     0.384465
      dxz     :     0.135218
      dyz     :     0.052417
      dx2y2   :     0.064971
      dxy     :     0.055187
      f0      :     0.006998  f :     0.041056
      f+1     :     0.008552
      f-1     :     0.005286
      f+2     :     0.004300
      f-2     :     0.006045
      f+3     :     0.005676
      f-3     :     0.004199

 20 Brs       :     7.580140  s :     7.580140
      pz      :     5.805158  p :    16.942787
      px      :     5.340998
      py      :     5.796631
      dz2     :     2.014435  d :    10.115791
      dxz     :     2.029439
      dyz     :     2.006882
      dx2y2   :     2.031775
      dxy     :     2.033260
      f0      :     0.001472  f :     0.014362
      f+1     :     0.002209
      f-1     :     0.000386
      f+2     :     0.002288
      f-2     :     0.001812
      f+3     :     0.002795
      f-3     :     0.003399

 21 H s       :     0.794815  s :     0.794815
      pz      :     0.013640  p :     0.055811
      px      :     0.011720
      py      :     0.030451

 22 H s       :     0.793774  s :     0.793774
      pz      :     0.017246  p :     0.055954
      px      :     0.017093
      py      :     0.021614

 23 H s       :     0.780823  s :     0.780823
      pz      :     0.033091  p :     0.058012
      px      :     0.013210
      py      :     0.011712

 24 H s       :     0.787254  s :     0.787254
      pz      :     0.016895  p :     0.057710
      px      :     0.018539
      py      :     0.022276

 25 H s       :     0.794627  s :     0.794627
      pz      :     0.030246  p :     0.055997
      px      :     0.014463
      py      :     0.011287

 26 H s       :     0.786105  s :     0.786105
      pz      :     0.017759  p :     0.057929
      px      :     0.013412
      py      :     0.026758

 27 H s       :     0.794725  s :     0.794725
      pz      :     0.029996  p :     0.055969
      px      :     0.014873
      py      :     0.011100

 28 H s       :     0.794845  s :     0.794845
      pz      :     0.012982  p :     0.055812
      px      :     0.023022
      py      :     0.019807

 29 H s       :     0.793736  s :     0.793736
      pz      :     0.018124  p :     0.055955
      px      :     0.013269
      py      :     0.024562

 30 H s       :     0.780999  s :     0.780999
      pz      :     0.032654  p :     0.057906
      px      :     0.014931
      py      :     0.010321

 31 H s       :     0.777680  s :     0.777680
      pz      :     0.032210  p :     0.058049
      px      :     0.009950
      py      :     0.015889

 32 H s       :     0.787894  s :     0.787894
      pz      :     0.018179  p :     0.057054
      px      :     0.027153
      py      :     0.011723

 33 H s       :     0.788856  s :     0.788856
      pz      :     0.030292  p :     0.057078
      px      :     0.009589
      py      :     0.017197

 34 H s       :     0.783403  s :     0.783403
      pz      :     0.017933  p :     0.057852
      px      :     0.027901
      py      :     0.012018



                      *****************************
                      * MAYER POPULATION ANALYSIS *
                      *****************************

  NA   - Mulliken gross atomic population
  ZA   - Total nuclear charge
  QA   - Mulliken gross atomic charge
  VA   - Mayer's total valence
  BVA  - Mayer's bonded valence
  FA   - Mayer's free valence

  ATOM       NA         ZA         QA         VA         BVA        FA
  0 C      6.1339     6.0000    -0.1339     3.9388     3.9388     0.0000
  1 C      6.1372     6.0000    -0.1372     3.9231     3.9231    -0.0000
  2 C      6.1472     6.0000    -0.1472     3.9613     3.9613    -0.0000
  3 C      6.0700     6.0000    -0.0700     3.7484     3.7484    -0.0000
  4 C      6.2008     6.0000    -0.2008     3.8761     3.8761     0.0000
  5 C      6.1486     6.0000    -0.1486     4.0014     4.0014     0.0000
  6 P     14.3638    15.0000     0.6362     4.9643     4.9643    -0.0000
  7 O      8.5961     8.0000    -0.5961     1.9869     1.9869    -0.0000
  8 C      6.0786     6.0000    -0.0786     3.7589     3.7589     0.0000
  9 C      6.1939     6.0000    -0.1939     3.8723     3.8723    -0.0000
 10 C      6.1496     6.0000    -0.1496     3.9985     3.9985    -0.0000
 11 C      6.1334     6.0000    -0.1334     3.9371     3.9371    -0.0000
 12 C      6.1359     6.0000    -0.1359     3.9249     3.9249     0.0000
 13 C      6.1479     6.0000    -0.1479     3.9620     3.9620     0.0000
 14 C      6.0933     6.0000    -0.0933     3.7981     3.7981     0.0000
 15 C      6.1400     6.0000    -0.1400     3.9681     3.9681     0.0000
 16 C      6.1400     6.0000    -0.1400     3.8544     3.8544     0.0000
 17 C      5.9532     6.0000     0.0468     3.9704     3.9704    -0.0000
 18 C      6.1605     6.0000    -0.1605     3.9553     3.9553    -0.0000
 19 C      6.1888     6.0000    -0.1888     3.8793     3.8793    -0.0000
 20 Br    35.0910    35.0000    -0.0910     1.1760     1.1760    -0.0000
 21 H      0.8493     1.0000     0.1507     0.9628     0.9628     0.0000
 22 H      0.8485     1.0000     0.1515     0.9650     0.9650    -0.0000
 23 H      0.8137     1.0000     0.1863     0.9726     0.9726    -0.0000
 24 H      0.8063     1.0000     0.1937     0.9447     0.9447     0.0000
 25 H      0.8497     1.0000     0.1503     0.9651     0.9651     0.0000
 26 H      0.8042     1.0000     0.1958     0.9443     0.9443    -0.0000
 27 H      0.8502     1.0000     0.1498     0.9650     0.9650    -0.0000
 28 H      0.8491     1.0000     0.1509     0.9627     0.9627    -0.0000
 29 H      0.8485     1.0000     0.1515     0.9650     0.9650     0.0000
 30 H      0.8136     1.0000     0.1864     0.9715     0.9715     0.0000
 31 H      0.8093     1.0000     0.1907     0.9720     0.9720     0.0000
 32 H      0.8267     1.0000     0.1733     0.9574     0.9574     0.0000
 33 H      0.8278     1.0000     0.1722     0.9592     0.9592     0.0000
 34 H      0.7991     1.0000     0.2009     0.9446     0.9446    -0.0000

  Mayer bond orders larger than 0.100000
B(  0-C ,  1-C ) :   1.4316 B(  0-C ,  5-C ) :   1.4441 B(  0-C , 21-H ) :   0.9460 
B(  1-C ,  2-C ) :   1.4406 B(  1-C , 22-H ) :   0.9464 B(  2-C ,  3-C ) :   1.4333 
B(  2-C , 23-H ) :   0.9093 B(  3-C ,  4-C ) :   1.3173 B(  3-C ,  6-P ) :   0.9202 
B(  4-C ,  5-C ) :   1.4853 B(  4-C , 24-H ) :   0.9169 B(  5-C , 25-H ) :   0.9424 
B(  6-P ,  7-O ) :   1.9447 B(  6-P ,  8-C ) :   0.9182 B(  6-P , 14-C ) :   0.9196 
B(  8-C ,  9-C ) :   1.3224 B(  8-C , 13-C ) :   1.4344 B(  9-C , 10-C ) :   1.4814 
B(  9-C , 26-H ) :   0.9165 B( 10-C , 11-C ) :   1.4446 B( 10-C , 27-H ) :   0.9431 
B( 11-C , 12-C ) :   1.4307 B( 11-C , 28-H ) :   0.9459 B( 12-C , 13-C ) :   1.4418 
B( 12-C , 29-H ) :   0.9468 B( 13-C , 30-H ) :   0.9101 B( 14-C , 15-C ) :   1.4384 
B( 14-C , 19-C ) :   1.3248 B( 15-C , 16-C ) :   1.4370 B( 15-C , 31-H ) :   0.9055 
B( 16-C , 17-C ) :   1.3719 B( 16-C , 32-H ) :   0.9287 B( 17-C , 18-C ) :   1.3953 
B( 17-C , 20-Br) :   1.0850 B( 18-C , 19-C ) :   1.4857 B( 18-C , 33-H ) :   0.9218 
B( 19-C , 34-H ) :   0.9093 

-------
TIMINGS
-------

Total SCF time: 0 days 0 hours 2 min 33 sec 

Total time                  ....     153.707 sec
Sum of individual times     ....     153.775 sec  (100.0%)

SCF preparation             ....       0.320 sec  (  0.2%)
Fock matrix formation       ....     148.971 sec  ( 96.9%)
  Startup                   ....       0.142 sec  (  0.1% of F)
  Split-RI-J                ....      10.026 sec  (  6.7% of F)
  Chain of spheres X        ....     108.823 sec  ( 73.0% of F)
  XC integration            ....      29.590 sec  ( 19.9% of F)
    Basis function eval.    ....       4.355 sec  ( 14.7% of XC)
    Density eval.           ....      12.707 sec  ( 42.9% of XC)
    XC-Functional eval.     ....       0.518 sec  (  1.8% of XC)
    XC-Potential eval.      ....      10.777 sec  ( 36.4% of XC)
Diagonalization             ....       0.000 sec  (  0.0%)
Density matrix formation    ....       0.377 sec  (  0.2%)
Total Energy calculation    ....       0.129 sec  (  0.1%)
Population analysis         ....       0.250 sec  (  0.2%)
Orbital Transformation      ....       0.537 sec  (  0.3%)
Orbital Orthonormalization  ....       0.000 sec  (  0.0%)
DIIS solution               ....       2.188 sec  (  1.4%)
SOSCF solution              ....       1.003 sec  (  0.7%)
Finished LeanSCF after 153.8 sec

Maximum memory used throughout the entire LEANSCF-calculation: 107.1 MB


-------------------------------------------------------------------------------
                          DFT DISPERSION CORRECTION                            
                                                                               
                              DFTD3 V3.1  Rev 1                                
                              USING zero damping                               
-------------------------------------------------------------------------------
The M062X functional is recognized
Active option DFTDOPT                   ...         3   

molecular C6(AA) [au] = 20579.570753 


            DFT-D V3
 parameters
 s6 scaling factor         :     1.0000 
 rs6 scaling factor        :     1.6190 
 s8 scaling factor         :     0.0000 
 rs8 scaling factor        :     1.0000 
 Damping factor alpha6     :    14.0000 
 Damping factor alpha8     :    16.0000 
 ad hoc parameters k1-k3   :    16.0000     1.3333    -4.0000 

 Edisp/kcal,au: -1.505268643564  -0.002398798019 
 E6   /kcal   :  -1.505268644 
 E8   /kcal   :  -0.000000000 
 % E8         :   0.000000000 

-------------------------   ----------------
Dispersion correction           -0.002398798
-------------------------   ----------------


-------------------------   --------------------
FINAL SINGLE POINT ENERGY     -3685.111149030717
-------------------------   --------------------



           ************************************************************
           *        Program running with 6 parallel MPI-processes     *
           *              working on a common directory               *
           ************************************************************

------------------------------------------------------------------------------
                              ORCA PROPERTY CALCULATIONS
------------------------------------------------------------------------------

GBWName                                 ... data/single_point_PO_M06-2x/69773/69773.gbw
Number of atoms                         ...     35
Number of basis functions               ...    758
Max core memory                         ...   1024 MB

Electric properties:
Dipole moment                           ... YES
Quadrupole moment                       ...  NO
Static polarizability (Dipole/Dipole)   ...  NO
Static polarizability (Dipole/Quad.)    ...  NO
Static polarizability (Quad./Quad.)     ...  NO
Static polarizability (Velocity)        ...  NO

Atomic electric properties:
Dipole moment                           ...  NO
Quadrupole moment                       ...  NO
Static polarizability                   ...  NO

Choice of electric origin               ... Center of mass
Position of electric origin             ...     2.335269     0.897906    -0.188965

General magnetic properties:
Magnetizability                         ...  NO

EPR properties:
g-Tensor (aka g-matrix)                 ...  NO
Zero-Field splitting spin-orbit         ...  NO
Zero-field splitting spin-spin          ...  NO
Hyperfine couplings                     ...  NO (   0 nuclei)
Quadrupole couplings                    ...  NO (   0 nuclei)
Contact density                         ...  NO (   0 nuclei)

NMR properties:
Chemical shifts                         ...  NO (   0 nuclei)
Spin-rotation constants                 ...  NO (   0 nuclei)
Spin-spin couplings                     ...  NO (   0 nuclei,    0 pairs)

Choice of magnetic origin               ... GIAO
Position of magnetic origin             ...     0.000000     0.000000     0.000000

Properties with geometric perturbations:
SCF Hessian                             ...  NO
IR spectrum                             ...  NO
VCD spectrum                            ...  NO
X-ray spectroscopy properties:
SCF XES/XAS/RIXS spectra                ...  NO


-------------
DIPOLE MOMENT
-------------

Method             : SCF
Type of density    : Electron Density
Multiplicity       :   1
Irrep              :   0
Energy             : -3685.1087502326981848 Eh
Relativity type    : 
Basis              : AO
                                X                 Y                 Z
Electronic contribution:     60.531041438      23.470941346       7.928667912
Nuclear contribution   :    -61.209594783     -23.683336720      -6.482902473
                        -----------------------------------------
Total Dipole Moment    :     -0.678553345      -0.212395374       1.445765439
                        -----------------------------------------
Magnitude (a.u.)       :      1.611143737
Magnitude (Debye)      :      4.095201928



--------------------
Rotational spectrum 
--------------------
 
Rotational constants in cm-1:             0.010408             0.004234             0.003510 
Rotational constants in MHz :           312.014904           126.932926           105.220945 

Dipole components along the rotational axes: 
x,y,z [a.u.] :    -0.492075    -0.012990     1.534105 
x,y,z [Debye]:    -1.250756    -0.033019     3.899384 

 

Dipole moment calculation done in   0.1 sec 

Maximum memory used throughout the entire PROP-calculation: 58.3 MB

--------------------------------
SUGGESTED CITATIONS FOR THIS RUN
--------------------------------

Below you find a list of papers that are relevant to this ORCA run
We neither can nor want to force you to cite these papers, but we appreciate if you do
You receive ORCA, which is the product of decades of hard work by many enthusiastic individuals, for free
The only thing we kindly ask in return is that you cite our papers,
We deeply appreciate it, if you show your appreciation for ORCA by not just citing the generic ORCA reference.

Please note that relegating all ORCA citations to the supporting information does *not* help us.
SI sections are not indexed - citations you put there will not count into any citation statistics
But we need these citations in order to attract the funding resources that allow us to do what we are doing

Therefore, if you are a happy ORCA user, please consider citing a few of the papers listed below in the main body of your paper

In addition to the list printed below, the program has created the file data/single_point_PO_M06-2x/69773/69773.bibtex that contains the list in bibtex format
You can import this file easily into all common literature databanks and citation aid programs


List of essential papers. We consider these as the minimum necessary citations

  1. Neese,F.
     Software update: the ORCA program system, version 5.0
     WIRES Comput. Molec. Sci., 2022 12(1)e1606
     doi.org/10.1002/wcms.1606

List of papers to cite with high priority. The work reported in these papers was absolutely
necessary for this run to complete.
Our perspective: the developers of density functionals and basis sets usually get cited in chemistry papers
Good! But without the algorithms to do something with them, the functionals or basis sets would not do anything.
Hence, in our opinion, the algorithm design and method developments papers are equally worthy of getting cited

  1. Neese,F.
     An improvement of the resolution of the identity approximation for the formation of the Coulomb matrix
     J. Comp. Chem., 2003 24(14)1740-1747
     doi.org/10.1002/jcc.10318
  2. Neese,F.; Wennmohs,F.; Hansen,A.; Becker,U.
     Efficient, approximate and parallel Hartree-Fock and hybrid DFT calculations. A 'chain-of-spheres' algorithm for the Hartree-Fock exchange
     Chem. Phys., 2009 356(1-3)98-109
     doi.org/10.1016/j.chemphys.2008.10.036
  3. Helmich-Paris,B.; de Souza,B.; Neese,F.; Izsák,R.
     An improved chain of spheres for exchange algorithm
     J. Chem. Phys., 2021 155 104109
     doi.org/doi: 10.1063/5.0058766.
  4. Neese,F.
     The SHARK Integral Generation and Digestion System
     J. Comp. Chem., 2022  1-16
     doi.org/10.1002/jcc.26942
  5. Grimme,S.; Antony,J.; Ehrlich,S.; Krieg,H.
     A consistent and accurate ab initio parametrization of density functional dispersion correction (DFT-D) for the 94 elements H-Pu
     J. Chem. Phys., 2010 132 154104-XXXX
     doi.org/10.1063/1.3382344

List of suggested additional citations. These are papers that are important in the 'surrounding' of 
of this run, or papers that preceded the highly important papers. If you like your results we are grateful for a citation.

  1. Izsak,R.; Neese,F.
     An overlap fitted chain of spheres exchange method
     J. Chem. Phys., 2011 135 144105
     doi.org/10.1063/1.3646921
  2. Izsak,R.; Hansen,A.; Neese,F.
     The resolution of identity and chain of spheres approximations for the LPNO-CCSD singles Fock term
     Molec. Phys., 2012 110 2413-2417
     doi.org/10.1080/00268976.2012.687466
  3. Neese,F.
     The ORCA program system
     WIRES Comput. Molec. Sci., 2012 2(1)73-78
     doi.org/10.1002/wcms.81
  4. Izsak,R.; Neese,F.; Klopper,W.
     Robust fitting techniques in the chain of spheres approximation to the Fock exchange: The role of the complementary space
     J. Chem. Phys., 2013 139 
     doi.org/10.1063/1.4819264
  5. Neese,F.
     Software update: the ORCA program system, version 4.0
     WIRES Comput. Molec. Sci., 2018 8(1)1-6
     doi.org/10.1002/wcms.1327
  6. Neese,F.; Wennmohs,F.; Becker,U.; Riplinger,C.
     The ORCA quantum chemistry program package
     J. Chem. Phys., 2020 152 Art. No. L224108
     doi.org/10.1063/5.0004608

List of optional additional citations

  1. Neese,F.
     Approximate second-order SCF convergence for spin unrestricted wavefunctions
     Chem. Phys. Lett., 2000 325(1-3)93-98
     doi.org/10.1016/s0009-2614(00)00662-x

Timings for individual modules:

Sum of individual times          ...      161.482 sec (=   2.691 min)
Startup calculation              ...        4.988 sec (=   0.083 min)   3.1 %
SCF iterations                   ...      156.128 sec (=   2.602 min)  96.7 %
Property calculations            ...        0.366 sec (=   0.006 min)   0.2 %
                             ****ORCA TERMINATED NORMALLY****
TOTAL RUN TIME: 0 days 0 hours 2 minutes 41 seconds 789 msec
