
                                 *****************
                                 * O   R   C   A *
                                 *****************

                                            #,                                       
                                            ###                                      
                                            ####                                     
                                            #####                                    
                                            ######                                   
                                           ########,                                 
                                     ,,################,,,,,                         
                               ,,#################################,,                 
                          ,,##########################################,,             
                       ,#########################################, ''#####,          
                    ,#############################################,,   '####,        
                  ,##################################################,,,,####,       
                ,###########''''           ''''###############################       
              ,#####''   ,,,,##########,,,,          '''####'''          '####       
            ,##' ,,,,###########################,,,                        '##       
           ' ,,###''''                  '''############,,,                           
         ,,##''                                '''############,,,,        ,,,,,,###''
      ,#''                                            '''#######################'''  
     '                                                          ''''####''''         
             ,#######,   #######,   ,#######,      ##                                
            ,#'     '#,  ##    ##  ,#'     '#,    #''#        ,####,   ,####,        
            ##       ##  ##   ,#'  ##            #'  '#       #'       #'  '#        
            ##       ##  #######   ##           ,######,      #####,   #    #        
            '#,     ,#'  ##    ##  '#,     ,#' ,#      #,     #,   #   #,  ,#        
             '#######'   ##     ##  '#######'  #'      '#     '####' # '####'        



                #########################################################
                #                        -***-                          #
                #          Department of theory and spectroscopy        #
                #                                                       #
                #                      Frank Neese                      #
                #                                                       #
                #     Directorship, Architecture, Infrastructure        #
                #                    SHARK, DRIVERS                     #
                #        Core code/Algorithms in most modules           #
                #                                                       #
                #        Max Planck Institute fuer Kohlenforschung      #
                #                Kaiser Wilhelm Platz 1                 #
                #                 D-45470 Muelheim/Ruhr                 #
                #                      Germany                          #
                #                                                       #
                #                  All rights reserved                  #
                #                        -***-                          #
                #########################################################


                         Program Version 6.0.0  -   RELEASE   -


 With contributions from (in alphabetic order):
   Daniel Aravena         : Magnetic Suceptibility
   Michael Atanasov       : Ab Initio Ligand Field Theory (pilot matlab implementation)
   Alexander A. Auer      : GIAO ZORA, VPT2 properties, NMR spectrum
   Ute Becker             : All parallelization in ORCA, NUMFREQ, NUMCALC
   Giovanni Bistoni       : ED, misc. LED, open-shell LED, HFLD
   Martin Brehm           : Molecular dynamics
   Dmytro Bykov           : pre 5.0 version of the SCF Hessian
   Marcos Casanova-Páez   : Triplet and SCS-CIS(D). UHF-(DLPNO)-IP/EA/STEOM-CCSD. UHF-CVS-IP/STEOM-CCSD
   Vijay G. Chilkuri      : MRCI spin determinant printing, contributions to CSF-ICE
   Pauline Colinet        : FMM embedding
   Dipayan Datta          : RHF DLPNO-CCSD density
   Achintya Kumar Dutta   : EOM-CC, STEOM-CC
   Nicolas Foglia         : Exact transition moments, OPA infrastructure, MCD improvements
   Dmitry Ganyushin       : Spin-Orbit,Spin-Spin,Magnetic field MRCI
   Miquel Garcia          : C-PCM and meta-GGA Hessian, CCSD/C-PCM, Gaussian charge scheme
   Tiago L. C. Gouveia    : GS-ROHF, GS-ROCIS
   Yang Guo               : DLPNO-NEVPT2, F12-NEVPT2, CIM, IAO-localization
   Andreas Hansen         : Spin unrestricted coupled pair/coupled cluster methods
   Ingolf Harden          : AUTO-CI MPn and infrastructure 
   Benjamin Helmich-Paris : MC-RPA, TRAH-(SCF,CASSCF), AVAS, COSX integrals, SCF dyn. polar.
   Lee Huntington         : MR-EOM, pCC
   Robert Izsak           : Overlap fitted RIJCOSX, COSX-SCS-MP3, EOM
   Riya Kayal             : Wick's Theorem for AUTO-CI, AUTO-CI UHF-CCSDT
   Emily Kempfer          : AUTO-CI, RHF CISDT and CCSDT
   Christian Kollmar      : KDIIS, OOCD, Brueckner-CCSD(T), CCSD density, CASPT2, CASPT2-K, improved NEVPT2
   Axel Koslowski         : Symmetry handling
   Simone Kossmann        : Meta GGA functionals, TD-DFT gradient, OOMP2, (MP2 Hessian; deprecated post 5.0)
   Lucas Lang             : DCDCAS
   Marvin Lechner         : AUTO-CI (C++ implementation), FIC-MRCC
   Spencer Leger          : CASSCF response
   Dagmar Lenk            : GEPOL surface, SMD, ORCA-2-JSON
   Dimitrios Liakos       : Extrapolation schemes; Compound Job, initial MDCI parallelization
   Dimitrios Manganas     : Further ROCIS development; embedding schemes. LFT, Crystal Embedding
   Dimitrios Pantazis     : SARC Basis sets
   Anastasios Papadopoulos: AUTO-CI, single reference methods and gradients
   Taras Petrenko         : pre 6.0 DFT Hessian and TD-DFT gradient, (ASA, deprecated), ECA, 1-Electron XAS/XES, NRVS
   Peter Pinski           : DLPNO-MP2, DLPNO-MP2 Gradient
   Christoph Reimann      : Effective Core Potentials
   Marius Retegan         : Local ZFS, SOC
   Christoph Riplinger    : Optimizer, TS searches, QM/MM, DLPNO-CCSD(T), (RO)-DLPNO pert. Triples
   Michael Roemelt        : Original ROCIS implementation
   Masaaki Saitow         : Open-shell DLPNO-CCSD energy and density
   Barbara Sandhoefer     : DKH picture change effects
   Kantharuban Sivalingam : CASSCF convergence/infrastructure, NEVPT2 and variants, FIC-MRCI
   Bernardo de Souza      : ESD, SOC TD-DFT
   Georgi Stoychev        : AutoAux, RI-MP2 NMR, DLPNO-MP2 response, X2C
   Van Anh Tran           : RI-MP2 g-tensors
   Willem Van den Heuvel  : Paramagnetic NMR
   Zikuan Wang            : NOTCH, Electric field optimization 
   Frank Wennmohs         : Technical directorship and infrastructure
   Hang Xu                : AUTO-CI-Response properties 


 We gratefully acknowledge several colleagues who have allowed us to
 interface, adapt or use parts of their codes:
   Stefan Grimme, W. Hujo, H. Kruse, P. Pracht,  : VdW corrections, initial TS optimization,
                  C. Bannwarth, S. Ehlert,         DFT functionals, gCP, sTDA/sTD-DF
                  L. Wittmann, M. Mueller
   Ed Valeev, F. Pavosevic, A. Kumar             : LibInt (2-el integral package), F12 methods
   Garnet Chan, S. Sharma, J. Yang, R. Olivares  : DMRG
   Ulf Ekstrom                                   : XCFun DFT Library
   Mihaly Kallay                                 : mrcc  (arbitrary order and MRCC methods)
   Frank Weinhold                                : gennbo (NPA and NBO analysis)
   Simon Mueller                                 : openCOSMO-RS
   Christopher J. Cramer and Donald G. Truhlar   : smd solvation model
   Lars Goerigk                                  : TD-DFT with DH, B97 family of functionals
   V. Asgeirsson, H. Jonsson                     : NEB implementation
   FAccTs GmbH                                   : IRC, NEB, NEB-TS, DLPNO-Multilevel, CI-OPT
                                                   MM, QMMM, 2- and 3-layer-ONIOM, Crystal-QMMM,
                                                   LR-CPCM, SF, NACMEs, symmetry and pop. for TD-DFT,
                                                   nearIR, NL-DFT gradient (VV10), updates on ESD,
                                                   ML-optimized integration grids, MBIS, APM,
                                                   GOAT, DOCKER, SOLVATOR, interface openCOSMO-RS
   S Lehtola, MJT Oliveira, MAL Marques          : LibXC Library
   Liviu Ungur et al                             : ANISO software


 Your calculation uses the libint2 library for the computation of 2-el integrals
 For citations please refer to: http://libint.valeyev.net

 Your ORCA version has been built with support for libXC version: 6.2.2
 For citations please refer to: https://libxc.gitlab.io

 This ORCA versions uses:
   CBLAS   interface :  Fast vector & matrix operations
   LAPACKE interface :  Fast linear algebra routines
   Shared memory     :  Shared parallel matrices


Your calculation utilizes the atom-pairwise dispersion correction
with the zero-damping scheme (D30)


XCFun DFT library Copyright 2009-2010 Ulf Ekstrom and contributors.
See http://admol.org/xcfun for more information.
This is free software; see the source code for copying conditions.
There is ABSOLUTELY NO WARRANTY; not even for MERCHANTABILITY or FITNESS FOR A PARTICULAR PURPOSE.
For details see the documentation.
Scientific users of this library should cite U. Ekstrom, L. Visscher, R. Bast, A. J. Thorvaldsen and K. Ruud;
J.Chem.Theor.Comp. 2010, DOI: 10.1021/ct100117s
XCFun Version 0.99 

Warning: RI is on but no J-basis has been assigned. Assigning Def2/J (nothing to worry about!)
================================================================================

----- Orbital basis set information -----
Your calculation utilizes the basis: def2-TZVP
   F. Weigend and R. Ahlrichs, Phys. Chem. Chem. Phys. 7, 3297 (2005).

----- AuxJ basis set information -----
Your calculation utilizes the auxiliary basis: def2/J
   F. Weigend, Phys. Chem. Chem. Phys. 8, 1057 (2006).

================================================================================
                                        WARNINGS
                       Please study these warnings very carefully!
================================================================================

WARNING: Functional chosen is sensitive to the integration grid.
         DEFGRID3 seems to be a minimum grid for robust results!

================================================================================
                                       INPUT FILE
================================================================================
NAME = data/single_point_P_M06-2x/3333592/3333592.inp
|  1> ! RIJCOSX M062X def2-TZVP D3ZERO NormalSCF
|  2> %pal
|  3> nprocs 6
|  4> end
|  5> 
|  6> * xyz 0 1
|  7>   C           4.74256427064392     -0.52745669911865      1.52385462006296
|  8>   N           4.35298789760330      0.19223415608324      0.32683310619336
|  9>   C           5.33018069741211      0.98314006211902     -0.39567441840838
| 10>   C           3.04631530897345      0.12613905300057     -0.12478403807905
| 11>   C           2.06237160660113     -0.64124218204314      0.56413694855837
| 12>   C           0.74268323037117     -0.69909570727016      0.10597706394148
| 13>   C           0.33432654712304     -0.00917934624560     -1.05567138136504
| 14>   C           1.31114539668903      0.73804165439850     -1.74940962986663
| 15>   C           2.63239741425644      0.81814403297054     -1.29995988236299
| 16>   P          -1.38950090253182      0.00427111063122     -1.70648636898626
| 17>   C          -2.09351268892801     -1.47139386511482     -0.83198137147249
| 18>   C          -1.83910809043835     -2.73810224641131     -1.40456867412006
| 19>   C          -2.31951252163261     -3.90747809980229     -0.79719649267619
| 20>   C          -3.07893789145444     -3.82747268027190      0.38379911852746
| 21>   C          -3.34734159464186     -2.57210329242293      0.95328814280082
| 22>   C          -2.85564835779367     -1.40036298371056      0.35281256187922
| 23>   C          -2.15336133814562      1.38146185093645     -0.72799204442434
| 24>   C          -1.47746374427612      2.08405782093426      0.29092692972565
| 25>   C          -2.11836020933382      3.12828341589782      0.97905946813080
| 26>   C          -3.44116148197468      3.47930596915415      0.66302618763922
| 27>   C          -4.12136754456067      2.78641682982668     -0.35436566803951
| 28>   C          -3.47785719837891      1.75337447296532     -1.05184886880681
| 29>   H           5.81597268871954     -0.35452200755964      1.72210097333833
| 30>   H           4.58814615331412     -1.62620835047662      1.42306949571240
| 31>   H           4.17255903046305     -0.19215434330683      2.42057746981879
| 32>   H           5.47192893115283      0.62549283826792     -1.44138073287814
| 33>   H           5.04482944598358      2.05891377290494     -0.44744289847159
| 34>   H           6.30641833730499      0.91771347756864      0.11821845657497
| 35>   H           2.32922772858234     -1.20024166537804      1.47046381296842
| 36>   H           0.00999227671813     -1.29803367513845      0.66828393051494
| 37>   H           1.02633430693753      1.27767214400358     -2.66753175094957
| 38>   H           3.35081080766565      1.41648723234284     -1.87499411124562
| 39>   H          -1.25276921153726     -2.80279830676585     -2.33570807319044
| 40>   H          -2.10797500375600     -4.88749101291459     -1.25261220483950
| 41>   H          -3.46396224120298     -4.74395696227782      0.85689888827222
| 42>   H          -3.94114578478912     -2.50165635331290      1.87814912352838
| 43>   H          -3.06156024658131     -0.42133237439266      0.81072932305668
| 44>   H          -0.44401632983599      1.80552998936442      0.54667622391102
| 45>   H          -1.57936996119502      3.66940707394577      1.77258130497640
| 46>   H          -3.94167694293449      4.29641011146999      1.20515513994077
| 47>   H          -5.15664669328698      3.05938002861334     -0.61182383104492
| 48>   H          -4.00893609730561      1.22040305653555     -1.85764484884509
| 49> **                         ****END OF INPUT****
================================================================================

                       ****************************
                       * Single Point Calculation *
                       ****************************

---------------------------------
CARTESIAN COORDINATES (ANGSTROEM)
---------------------------------
  C      4.742564   -0.527457    1.523855
  N      4.352988    0.192234    0.326833
  C      5.330181    0.983140   -0.395674
  C      3.046315    0.126139   -0.124784
  C      2.062372   -0.641242    0.564137
  C      0.742683   -0.699096    0.105977
  C      0.334327   -0.009179   -1.055671
  C      1.311145    0.738042   -1.749410
  C      2.632397    0.818144   -1.299960
  P     -1.389501    0.004271   -1.706486
  C     -2.093513   -1.471394   -0.831981
  C     -1.839108   -2.738102   -1.404569
  C     -2.319513   -3.907478   -0.797196
  C     -3.078938   -3.827473    0.383799
  C     -3.347342   -2.572103    0.953288
  C     -2.855648   -1.400363    0.352813
  C     -2.153361    1.381462   -0.727992
  C     -1.477464    2.084058    0.290927
  C     -2.118360    3.128283    0.979059
  C     -3.441161    3.479306    0.663026
  C     -4.121368    2.786417   -0.354366
  C     -3.477857    1.753374   -1.051849
  H      5.815973   -0.354522    1.722101
  H      4.588146   -1.626208    1.423069
  H      4.172559   -0.192154    2.420577
  H      5.471929    0.625493   -1.441381
  H      5.044829    2.058914   -0.447443
  H      6.306418    0.917713    0.118218
  H      2.329228   -1.200242    1.470464
  H      0.009992   -1.298034    0.668284
  H      1.026334    1.277672   -2.667532
  H      3.350811    1.416487   -1.874994
  H     -1.252769   -2.802798   -2.335708
  H     -2.107975   -4.887491   -1.252612
  H     -3.463962   -4.743957    0.856899
  H     -3.941146   -2.501656    1.878149
  H     -3.061560   -0.421332    0.810729
  H     -0.444016    1.805530    0.546676
  H     -1.579370    3.669407    1.772581
  H     -3.941677    4.296410    1.205155
  H     -5.156647    3.059380   -0.611824
  H     -4.008936    1.220403   -1.857645

----------------------------
CARTESIAN COORDINATES (A.U.)
----------------------------
  NO LB      ZA    FRAG     MASS         X           Y           Z
   0 C     6.0000    0    12.011    8.962148   -0.996749    2.879668
   1 N     7.0000    0    14.007    8.225955    0.363270    0.617625
   2 C     6.0000    0    12.011   10.072582    1.857865   -0.747716
   3 C     6.0000    0    12.011    5.756702    0.238368   -0.235808
   4 C     6.0000    0    12.011    3.897318   -1.211772    1.066064
   5 C     6.0000    0    12.011    1.403468   -1.321099    0.200268
   6 C     6.0000    0    12.011    0.631786   -0.017346   -1.994930
   7 C     6.0000    0    12.011    2.477706    1.394697   -3.305905
   8 C     6.0000    0    12.011    4.974510    1.546068   -2.456568
   9 P    15.0000    0    30.974   -2.625776    0.008071   -3.224792
  10 C     6.0000    0    12.011   -3.956166   -2.780531   -1.572217
  11 C     6.0000    0    12.011   -3.475411   -5.174263   -2.654250
  12 C     6.0000    0    12.011   -4.383243   -7.384063   -1.506483
  13 C     6.0000    0    12.011   -5.818349   -7.232875    0.725275
  14 C     6.0000    0    12.011   -6.325559   -4.860571    1.801454
  15 C     6.0000    0    12.011   -5.396393   -2.646303    0.666719
  16 C     6.0000    0    12.011   -4.069263    2.610585   -1.375706
  17 C     6.0000    0    12.011   -2.792002    3.938299    0.549772
  18 C     6.0000    0    12.011   -4.003121    5.911599    1.850154
  19 C     6.0000    0    12.011   -6.502853    6.574935    1.252938
  20 C     6.0000    0    12.011   -7.788256    5.265565   -0.669654
  21 C     6.0000    0    12.011   -6.572198    3.313398   -1.987706
  22 H     1.0000    0     1.008   10.990596   -0.669950    3.254299
  23 H     1.0000    0     1.008    8.670340   -3.073088    2.689212
  24 H     1.0000    0     1.008    7.884994   -0.363119    4.574229
  25 H     1.0000    0     1.008   10.340447    1.182010   -2.723815
  26 H     1.0000    0     1.008    9.533346    3.890783   -0.845545
  27 H     1.0000    0     1.008   11.917404    1.734227    0.223401
  28 H     1.0000    0     1.008    4.401603   -2.268128    2.778774
  29 H     1.0000    0     1.008    0.018883   -2.452928    1.262874
  30 H     1.0000    0     1.008    1.939491    2.414450   -5.040904
  31 H     1.0000    0     1.008    6.332115    2.676773   -3.543225
  32 H     1.0000    0     1.008   -2.367391   -5.296521   -4.413849
  33 H     1.0000    0     1.008   -3.983495   -9.236019   -2.367094
  34 H     1.0000    0     1.008   -6.545940   -8.964779    1.619304
  35 H     1.0000    0     1.008   -7.447686   -4.727445    3.549187
  36 H     1.0000    0     1.008   -5.785510   -0.796203    1.532056
  37 H     1.0000    0     1.008   -0.839069    3.411957    1.033068
  38 H     1.0000    0     1.008   -2.984577    6.934174    3.349693
  39 H     1.0000    0     1.008   -7.448690    8.119038    2.277413
  40 H     1.0000    0     1.008   -9.744650    5.781390   -1.156179
  41 H     1.0000    0     1.008   -7.575791    2.306228   -3.510440

--------------------------------
INTERNAL COORDINATES (ANGSTROEM)
--------------------------------
 C      0   0   0     0.000000000000     0.00000000     0.00000000
 N      1   0   0     1.450029372861     0.00000000     0.00000000
 C      2   1   0     1.449984497609   120.06652779     0.00000000
 C      2   1   3     1.384095322414   119.95342283   180.12975131
 C      4   2   1     1.425353042290   121.31236807   359.94570845
 C      5   4   2     1.398154111895   121.02879557   179.71485418
 C      6   5   4     1.411441418000   121.50357310     0.33933124
 C      7   6   5     1.412015242873   117.57311658     0.45522915
 C      8   7   6     1.397901413015   121.75020336   358.93192084
 P      7   6   5     1.842639991720   124.39680646   181.58849055
 C     10   7   6     1.854178714878   100.53381542   341.79083180
 C     11  10   7     1.413197807150   116.99513922   277.53223417
 C     12  11  10     1.402543856996   120.67763702   179.12922475
 C     13  12  11     1.406370645728   120.07819919     0.89468154
 C     14  13  12     1.404389759504   119.64178216   359.70538934
 C     15  14  13     1.405456692149   120.33999060   359.67906326
 C     10   7   6     1.854073419118   101.79709475    85.20097802
 C     17  10   7     1.410203719446   123.63721925   356.21203845
 C     18  17  10     1.405233703877   120.36145141   179.24532114
 C     19  18  17     1.404598545554   120.33434754     0.27752610
 C     20  19  18     1.406364758865   119.67894263   359.54268279
 C     21  20  19     1.402770434556   120.04274935   359.77067312
 H      1   2   3     1.105175848509   109.35147103   359.80041349
 H      1   2   3     1.114117492732   112.18310605   240.29585023
 H      1   2   3     1.114201737981   112.18363853   119.32467181
 H      3   2   1     1.114228789172   112.22818206   119.27295027
 H      3   2   1     1.114178795812   112.16086001   240.27652937
 H      3   2   1     1.105172590353   109.34891155   359.75258557
 H      5   4   2     1.097780031408   120.35665051   359.77049868
 H      6   5   4     1.100795955259   118.90580677   180.33812133
 H      8   7   6     1.102391333138   119.30765464   179.23113003
 H      9   8   7     1.097632339379   118.77830422   180.25627789
 H     12  11  10     1.102270130974   119.38241891   359.40443685
 H     13  12  11     1.101170696224   119.80968276   180.34879034
 H     14  13  12     1.100913521216   120.15634949   179.47539215
 H     15  14  13     1.101332838491   120.04980519   180.01461289
 H     16  15  14     1.100267422081   119.90451917   180.62387645
 H     18  17  10     1.100454003059   119.46714414   358.99426284
 H     19  18  17     1.101363793866   119.65134728   180.01944679
 H     20  19  18     1.100944461348   120.18761929   179.87003545
 H     21  20  19     1.101179608137   120.11437134   180.33985072
 H     22  21  20     1.102456570148   119.89779482   180.77938255

---------------------------
INTERNAL COORDINATES (A.U.)
---------------------------
 C      0   0   0     0.000000000000     0.00000000     0.00000000
 N      1   0   0     2.740158400849     0.00000000     0.00000000
 C      2   1   0     2.740073598913   120.06652779     0.00000000
 C      2   1   3     2.615561102604   119.95342283   180.12975131
 C      4   2   1     2.693526894079   121.31236807   359.94570845
 C      5   4   2     2.642128364498   121.02879557   179.71485418
 C      6   5   4     2.667237734093   121.50357310     0.33933124
 C      7   6   5     2.668322105952   117.57311658     0.45522915
 C      8   7   6     2.641650832820   121.75020336   358.93192084
 P      7   6   5     3.482084947762   124.39680646   181.58849055
 C     10   7   6     3.503889974465   100.53381542   341.79083180
 C     11  10   7     2.670556828571   116.99513922   277.53223417
 C     12  11  10     2.650423780536   120.67763702   179.12922475
 C     13  12  11     2.657655363212   120.07819919     0.89468154
 C     14  13  12     2.653912030747   119.64178216   359.70538934
 C     15  14  13     2.655928241249   120.33999060   359.67906326
 C     10   7   6     3.503690994315   101.79709475    85.20097802
 C     17  10   7     2.664898822790   123.63721925   356.21203845
 C     18  17  10     2.655506854484   120.36145141   179.24532114
 C     19  18  17     2.654306579202   120.33434754     0.27752610
 C     20  19  18     2.657644238654   119.67894263   359.54268279
 C     21  20  19     2.650851950073   120.04274935   359.77067312
 H      1   2   3     2.088479683506   109.35147103   359.80041349
 H      1   2   3     2.105376942275   112.18310605   240.29585023
 H      1   2   3     2.105536142724   112.18363853   119.32467181
 H      3   2   1     2.105587262065   112.22818206   119.27295027
 H      3   2   1     2.105492788308   112.16086001   240.27652937
 H      3   2   1     2.088473526484   109.34891155   359.75258557
 H      5   4   2     2.074503614649   120.35665051   359.77049868
 H      6   5   4     2.080202884768   118.90580677   180.33812133
 H      8   7   6     2.083217712040   119.30765464   179.23113003
 H      9   8   7     2.074224517162   118.77830422   180.25627789
 H     12  11  10     2.082988673142   119.38241891   359.40443685
 H     13  12  11     2.080911042562   119.80968276   180.34879034
 H     14  13  12     2.080425052229   120.15634949   179.47539215
 H     15  14  13     2.081217447042   120.04980519   180.01461289
 H     16  15  14     2.079204101809   119.90451917   180.62387645
 H     18  17  10     2.079556688759   119.46714414   358.99426284
 H     19  18  17     2.081275944223   119.65134728   180.01944679
 H     20  19  18     2.080483520605   120.18761929   179.87003545
 H     21  20  19     2.080927883638   120.11437134   180.33985072
 H     22  21  20     2.083340992122   119.89779482   180.77938255

---------------------
BASIS SET INFORMATION
---------------------
There are 4 groups of distinct atoms

 Group   1 Type C   : 11s6p2d1f contracted to 5s3p2d1f pattern {62111/411/11/1}
 Group   2 Type N   : 11s6p2d1f contracted to 5s3p2d1f pattern {62111/411/11/1}
 Group   3 Type P   : 14s9p3d1f contracted to 5s5p2d1f pattern {73211/51111/21/1}
 Group   4 Type H   : 5s1p contracted to 3s1p pattern {311/1}

Atom   0C    basis set group =>   1
Atom   1N    basis set group =>   2
Atom   2C    basis set group =>   1
Atom   3C    basis set group =>   1
Atom   4C    basis set group =>   1
Atom   5C    basis set group =>   1
Atom   6C    basis set group =>   1
Atom   7C    basis set group =>   1
Atom   8C    basis set group =>   1
Atom   9P    basis set group =>   3
Atom  10C    basis set group =>   1
Atom  11C    basis set group =>   1
Atom  12C    basis set group =>   1
Atom  13C    basis set group =>   1
Atom  14C    basis set group =>   1
Atom  15C    basis set group =>   1
Atom  16C    basis set group =>   1
Atom  17C    basis set group =>   1
Atom  18C    basis set group =>   1
Atom  19C    basis set group =>   1
Atom  20C    basis set group =>   1
Atom  21C    basis set group =>   1
Atom  22H    basis set group =>   4
Atom  23H    basis set group =>   4
Atom  24H    basis set group =>   4
Atom  25H    basis set group =>   4
Atom  26H    basis set group =>   4
Atom  27H    basis set group =>   4
Atom  28H    basis set group =>   4
Atom  29H    basis set group =>   4
Atom  30H    basis set group =>   4
Atom  31H    basis set group =>   4
Atom  32H    basis set group =>   4
Atom  33H    basis set group =>   4
Atom  34H    basis set group =>   4
Atom  35H    basis set group =>   4
Atom  36H    basis set group =>   4
Atom  37H    basis set group =>   4
Atom  38H    basis set group =>   4
Atom  39H    basis set group =>   4
Atom  40H    basis set group =>   4
Atom  41H    basis set group =>   4
---------------------------------
AUXILIARY/J BASIS SET INFORMATION
---------------------------------
There are 4 groups of distinct atoms

 Group   1 Type C   : 12s5p4d2f1g contracted to 6s4p3d1f1g pattern {711111/2111/211/2/1}
 Group   2 Type N   : 12s5p4d2f1g contracted to 6s4p3d1f1g pattern {711111/2111/211/2/1}
 Group   3 Type P   : 14s5p5d2f1g contracted to 8s4p3d1f1g pattern {71111111/2111/311/2/1}
 Group   4 Type H   : 5s2p1d contracted to 3s1p1d pattern {311/2/1}

Atom   0C    basis set group =>   1
Atom   1N    basis set group =>   2
Atom   2C    basis set group =>   1
Atom   3C    basis set group =>   1
Atom   4C    basis set group =>   1
Atom   5C    basis set group =>   1
Atom   6C    basis set group =>   1
Atom   7C    basis set group =>   1
Atom   8C    basis set group =>   1
Atom   9P    basis set group =>   3
Atom  10C    basis set group =>   1
Atom  11C    basis set group =>   1
Atom  12C    basis set group =>   1
Atom  13C    basis set group =>   1
Atom  14C    basis set group =>   1
Atom  15C    basis set group =>   1
Atom  16C    basis set group =>   1
Atom  17C    basis set group =>   1
Atom  18C    basis set group =>   1
Atom  19C    basis set group =>   1
Atom  20C    basis set group =>   1
Atom  21C    basis set group =>   1
Atom  22H    basis set group =>   4
Atom  23H    basis set group =>   4
Atom  24H    basis set group =>   4
Atom  25H    basis set group =>   4
Atom  26H    basis set group =>   4
Atom  27H    basis set group =>   4
Atom  28H    basis set group =>   4
Atom  29H    basis set group =>   4
Atom  30H    basis set group =>   4
Atom  31H    basis set group =>   4
Atom  32H    basis set group =>   4
Atom  33H    basis set group =>   4
Atom  34H    basis set group =>   4
Atom  35H    basis set group =>   4
Atom  36H    basis set group =>   4
Atom  37H    basis set group =>   4
Atom  38H    basis set group =>   4
Atom  39H    basis set group =>   4
Atom  40H    basis set group =>   4
Atom  41H    basis set group =>   4


           ************************************************************
           *        Program running with 6 parallel MPI-processes     *
           *              working on a common directory               *
           ************************************************************
------------------------------------------------------------------------------
                             ORCA STARTUP CALCULATIONS
                           -- RI-GTO INTEGRALS CHOSEN --
------------------------------------------------------------------------------
------------------------------------------------------------------------------
                   ___                                                        
                  /   \      - P O W E R E D   B Y -                         
                 /     \                                                     
                 |  |  |   _    _      __       _____    __    __             
                 |  |  |  | |  | |    /  \     |  _  \  |  |  /  |          
                  \  \/   | |  | |   /    \    | | | |  |  | /  /          
                 / \  \   | |__| |  /  /\  \   | |_| |  |  |/  /          
                |  |  |   |  __  | /  /__\  \  |    /   |      \           
                |  |  |   | |  | | |   __   |  |    \   |  |\   \          
                \     /   | |  | | |  |  |  |  | |\  \  |  | \   \       
                 \___/    |_|  |_| |__|  |__|  |_| \__\ |__|  \__/        
                                                                              
                      - O R C A' S   B I G   F R I E N D -                    
                                      &                                       
                       - I N T E G R A L  F E E D E R -                       
                                                                              
 v1 FN, 2020, v2 2021, v3 2022-2024                                           
------------------------------------------------------------------------------


----------------------
SHARK INTEGRAL PACKAGE
----------------------

Number of atoms                             ...     42
Number of basis functions                   ...    808
Number of shells                            ...    324
Maximum angular momentum                    ...      3
Integral batch strategy                     ... SHARK/LIBINT Hybrid
RI-J (if used) integral strategy            ... SPLIT-RIJ (Revised 2003 algorithm where possible)
Printlevel                                  ...      1
Contraction scheme used                     ... SEGMENTED contraction
Prescreening option                         ... SCHWARTZ
   Thresh                                   ... 1.000e-10
   Tcut                                     ... 1.000e-11
   Tpresel                                  ... 1.000e-11 
Coulomb Range Separation                    ... NOT USED
Exchange Range Separation                   ... NOT USED
Multipole approximations                    ... NOT USED
Finite Nucleus Model                        ... NOT USED
CABS basis                                  ... NOT available
Auxiliary Coulomb fitting basis             ... AVAILABLE
   # of basis functions in Aux-J            ...   1300
   # of shells in Aux-J                     ...    432
   Maximum angular momentum in Aux-J        ...      4
Auxiliary J/K fitting basis                 ... NOT available
Auxiliary Correlation fitting basis         ... NOT available
Auxiliary 'external' fitting basis          ... NOT available

Checking pre-screening integrals            ... done (  0.0 sec) Dimension = 324
Check shell pair data                       ... done (  0.0 sec)
Shell pair information
Shell pair cut-off parameter TPreSel        ...   1.0e-11
Total number of shell pairs                 ...     52650
Shell pairs after pre-screening             ...     35264
Total number of primitive shell pairs       ...    161586
Primitive shell pairs kept                  ...     71239
          la=0 lb=0:   9326 shell pairs
          la=1 lb=0:  10386 shell pairs
          la=1 lb=1:   2916 shell pairs
          la=2 lb=0:   4878 shell pairs
          la=2 lb=1:   2759 shell pairs
          la=2 lb=2:    668 shell pairs
          la=3 lb=0:   2288 shell pairs
          la=3 lb=1:   1287 shell pairs
          la=3 lb=2:    604 shell pairs
          la=3 lb=3:    152 shell pairs

Calculating one electron integrals          ... done (  0.1 sec)
Calculating RI/J V-Matrix + Cholesky decomp.... done (  0.1 sec)
Calculating Nuclear repulsion               ... done (  0.0 sec) ENN=   1781.319281351669 Eh

Diagonalization of the overlap matrix:
Smallest eigenvalue                        ... 6.853e-06
Time for diagonalization                   ...    0.137 sec
Threshold for overlap eigenvalues          ... 1.000e-07
Number of eigenvalues below threshold      ... 0
Time for construction of square roots      ...    0.061 sec
Total time needed                          ...    0.203 sec

-------------------
DFT GRID GENERATION
-------------------

General Integration Accuracy     IntAcc      ... 4.388
Radial Grid Type                 RadialGrid  ... OptM3 with GC (2021)
Angular Grid (max. ang.)         AngularGrid ... 4 (Lebedev-302)
Angular grid pruning method      GridPruning ... 4 (adaptive)
Weight generation scheme         WeightScheme... mBecke (2022)
Basis function cutoff            BFCut       ... 1.0000e-10
Integration weight cutoff        WCut        ... 1.0000e-14
Partially contracted basis set               ... off
Rotationally invariant grid construction     ... off
Angular grids for H and He will be reduced by one unit

Total number of grid points                  ...   196400
Total number of batches                      ...     3091
Average number of points per batch           ...       63
Average number of grid points per atom       ...     4676

--------------------
COSX GRID GENERATION
--------------------

GRIDX 1
-------
General Integration Accuracy     IntAcc      ... 3.816
Radial Grid Type                 RadialGrid  ... OptM3 with GC (2021)
Angular Grid (max. ang.)         AngularGrid ... 1 (Lebedev-50)
Angular grid pruning method      GridPruning ... 4 (adaptive)
Weight generation scheme         WeightScheme... mBecke (2022)
Basis function cutoff            BFCut       ... 1.0000e-10
Integration weight cutoff        WCut        ... 1.0000e-14
Partially contracted basis set               ... on
Rotationally invariant grid construction     ... off
Angular grids for H and He will be reduced by one unit

Total number of grid points                  ...    25987
Total number of batches                      ...      220
Average number of points per batch           ...      118
Average number of grid points per atom       ...      619
UseSFitting                                  ... on

GRIDX 2
-------
General Integration Accuracy     IntAcc      ... 4.020
Radial Grid Type                 RadialGrid  ... OptM3 with GC (2021)
Angular Grid (max. ang.)         AngularGrid ... 2 (Lebedev-110)
Angular grid pruning method      GridPruning ... 4 (adaptive)
Weight generation scheme         WeightScheme... mBecke (2022)
Basis function cutoff            BFCut       ... 1.0000e-10
Integration weight cutoff        WCut        ... 1.0000e-14
Partially contracted basis set               ... on
Rotationally invariant grid construction     ... off
Angular grids for H and He will be reduced by one unit

Total number of grid points                  ...    53546
Total number of batches                      ...      440
Average number of points per batch           ...      121
Average number of grid points per atom       ...     1275
UseSFitting                                  ... on

GRIDX 3
-------
General Integration Accuracy     IntAcc      ... 4.338
Radial Grid Type                 RadialGrid  ... OptM3 with GC (2021)
Angular Grid (max. ang.)         AngularGrid ... 3 (Lebedev-194)
Angular grid pruning method      GridPruning ... 4 (adaptive)
Weight generation scheme         WeightScheme... mBecke (2022)
Basis function cutoff            BFCut       ... 1.0000e-10
Integration weight cutoff        WCut        ... 1.0000e-14
Partially contracted basis set               ... on
Rotationally invariant grid construction     ... off
Angular grids for H and He will be reduced by one unit

Total number of grid points                  ...   117350
Total number of batches                      ...      938
Average number of points per batch           ...      125
Average number of grid points per atom       ...     2794
UseSFitting                                  ... on
Initializing property integral containers    ... done (  0.0 sec)

SHARK setup successfully completed in   4.3 seconds

Maximum memory used throughout the entire STARTUP-calculation: 80.2 MB


           ************************************************************
           *        Program running with 6 parallel MPI-processes     *
           *              working on a common directory               *
           ************************************************************
-------------------------------------------------------------------------------
                                 ORCA GUESS
                   Start orbitals & Density for SCF / CASSCF
-------------------------------------------------------------------------------

------------
SCF SETTINGS
------------
Hamiltonian:
 Density Functional     Method          .... DFT(GTOs)
 Exchange Functional    Exchange        .... M062X
 Correlation Functional Correlation     .... M062X
 Gradients option       PostSCFGGA      .... off
 Hybrid DFT is turned on
   Fraction HF Exchange ScalHFX         ....  0.540000
   Scaling of DF-GGA-X  ScalDFX         ....  0.460000
   Scaling of DF-GGA-C  ScalDFC         ....  1.000000
   Scaling of DF-LDA-C  ScalLDAC        ....  1.000000
   Perturbative correction              ....  0.000000
 RI-approximation to the Coulomb term is turned on
   Number of AuxJ basis functions       .... 1300
   RIJ-COSX (HFX calculated with COS-X)).... on


General Settings:
 Integral files         IntName         .... data/single_point_P_M06-2x/3333592/3333592
 Hartree-Fock type      HFTyp           .... RHF
 Total Charge           Charge          ....    0
 Multiplicity           Mult            ....    1
 Number of Electrons    NEL             ....  162
 Basis Dimension        Dim             ....  808
 Nuclear Repulsion      ENuc            ....   1781.3192813517 Eh

Convergence Acceleration:
 AO-DIIS                CNVDIIS         .... on
   Start iteration      DIISMaxIt       ....    12
   Startup error        DIISStart       ....  0.200000
   # of expansion vecs  DIISMaxEq       ....     5
   Bias factor          DIISBfac        ....   1.050
   Max. coefficient     DIISMaxC        ....  10.000
 MO-DIIS                CNVKDIIS        .... off
 Trust-Rad. Augm. Hess. CNVTRAH         .... auto
   Auto Start mean grad. ratio tolernc. ....  1.125000
   Auto Start start iteration           ....    50
   Auto Start num. interpolation iter.  ....    10
   Max. Number of Micro iterations      ....    24
   Max. Number of Macro iterations      .... Maxiter - #DIIS iter
   Number of Davidson start vectors     ....     2
   Converg. threshold    (grad. norm)   ....   5.000e-05
   Grad. Scal. Fac. for Micro threshold ....   0.100
   Minimum threshold for Micro iter.    ....   1.000e-02
   NR start threshold (gradient norm)   ....   1.000e-04
   Initial trust radius                 ....   0.400
   Minimum AH scaling param. (alpha)    ....   1.000
   Maximum AH scaling param. (alpha)    .... 1000.000
   Quad. conv. algorithm                .... NR
   White noise on init. David. guess    .... on
   Maximum white noise                  ....   0.010
   Pseudo random numbers                .... off
   Inactive MOs                         .... canonical
   Orbital update algorithm             .... Taylor
   Preconditioner                       .... Diag
   Full preconditioner red. dimension   ....   250
 SOSCF                  CNVSOSCF        .... on
   Start iteration      SOSCFMaxIt      ....   150
   Startup grad/error   SOSCFStart      ....  0.003300
   Hessian update       SOSCFHessUp     .... L-BFGS
 Level Shifting         CNVShift        .... on
   Level shift para.    LevelShift      ....    0.2500
   Turn off err/grad.   ShiftErr        ....    0.0010
 Zerner damping         CNVZerner       .... off
 Static damping         CNVDamp         .... on
   Fraction old density DampFac         ....    0.7000
   Max. Damping (<1)    DampMax         ....    0.9800
   Min. Damping (>=0)   DampMin         ....    0.0000
   Turn off err/grad.   DampErr         ....    0.1000

SCF Procedure:
 Maximum # iterations   MaxIter         ....   125
 SCF integral mode      SCFMode         .... Direct
   Integral package                     .... SHARK and LIBINT hybrid scheme
 Reset frequency        DirectResetFreq ....    20
 Integral Threshold     Thresh          ....  1.000e-10 Eh
 Primitive CutOff       TCut            ....  1.000e-11 Eh

Convergence Tolerance:
 Convergence Check Mode ConvCheckMode   .... Total+1el-Energy
 Convergence forced     ConvForced      .... 0
 Energy Change          TolE            ....  1.000e-06 Eh
 1-El. energy change                    ....  1.000e-03 Eh
 Orbital Gradient       TolG            ....  5.000e-05
 Orbital Rotation angle TolX            ....  5.000e-05
 DIIS Error             TolErr          ....  1.000e-05

------------------------------
INITIAL GUESS: MODEL POTENTIAL
------------------------------
Loading Hartree-Fock densities                     ... done
Calculating cut-offs                               ... done
Initializing the effective Hamiltonian             ... done
Setting up the integral package (SHARK)            ... done
Starting the Coulomb interaction                   ... done (   0.6 sec)
Making the grid                                    ... done (   0.3 sec)
Mapping shells                                     ... done
Starting the XC term evaluation                    ... done (   0.5 sec)
  promolecular density results
     # of electrons  =    161.996141713
     EX              =   -137.145211524
     EC              =     -5.450342844
     EX+EC           =   -142.595554368
Transforming the Hamiltonian                       ... done (   0.1 sec)
Diagonalizing the Hamiltonian                      ... done (   0.1 sec)
Back transforming the eigenvectors                 ... done (   0.0 sec)
Now organizing SCF variables                       ... done
                      ------------------
                      INITIAL GUESS DONE (   1.7 sec)
                      ------------------
             **** ENERGY FILE WAS UPDATED (data/single_point_P_M06-2x/3333592/3333592.en.tmp) ****
Finished Guess after   1.9 sec
Maximum memory used throughout the entire GUESS-calculation: 61.5 MB


           ************************************************************
           *        Program running with 6 parallel MPI-processes     *
           *              working on a common directory               *
           ************************************************************

-------------------------------------------------------------------------------------------
                                      ORCA LEAN-SCF
                              memory conserving SCF solver
-------------------------------------------------------------------------------------------

----------------------------------------D-I-I-S--------------------------------------------
Iteration    Energy (Eh)           Delta-E    RMSDP     MaxDP     DIISErr   Damp  Time(sec)
-------------------------------------------------------------------------------------------
               ***  Starting incremental Fock matrix formation  ***
    1    -1169.6804092138957003     0.00e+00  1.10e-03  4.14e-02  1.35e-01  0.700  17.8
    2    -1169.8951374745522571    -2.15e-01  8.92e-04  2.90e-02  7.81e-02  0.700  10.0
                               ***Turning on AO-DIIS***
    3    -1170.0013027164443429    -1.06e-01  6.28e-04  2.35e-02  4.02e-02  0.700   9.6
    4    -1170.0635706896298416    -6.23e-02  1.48e-03  6.82e-02  2.82e-02  0.000   9.2
    5    -1170.1956837474247095    -1.32e-01  1.23e-04  1.36e-02  3.61e-03  0.000   9.7
                              *** Initializing SOSCF ***
---------------------------------------S-O-S-C-F--------------------------------------
Iteration    Energy (Eh)           Delta-E    RMSDP     MaxDP     MaxGrad    Time(sec)
--------------------------------------------------------------------------------------
    6    -1170.1959829295203690    -2.99e-04  4.67e-05  5.29e-03  8.39e-04     8.7
               *** Restarting incremental Fock matrix formation ***
    7    -1170.1960654614742907    -8.25e-05  1.22e-04  6.94e-03  5.26e-04    17.3
    8    -1170.1960742635044426    -8.80e-06  5.73e-05  3.09e-03  1.55e-04    12.5
    9    -1170.1960759782211881    -1.71e-06  4.83e-05  2.78e-03  9.40e-05    12.0
   10    -1170.1960770034563666    -1.03e-06  6.78e-06  3.71e-04  2.12e-05    11.7
   11    -1170.1960771638912320    -1.60e-07  4.37e-06  2.35e-04  2.48e-05     9.5
                 **** Energy Check signals convergence ****

               *****************************************************
               *                     SUCCESS                       *
               *           SCF CONVERGED AFTER  11 CYCLES          *
               *****************************************************

Recomputing exchange energy using gridx3       ... done (   26.441 sec)
Old exchange energy                            :    -75.535985264 Eh
New exchange energy                            :    -75.535948991 Eh
Exchange energy change after final integration :      0.000036272 Eh
Total energy after final integration           :  -1170.196040892 Eh
             **** ENERGY FILE WAS UPDATED (data/single_point_P_M06-2x/3333592/3333592.en.tmp) ****

----------------
TOTAL SCF ENERGY
----------------

Total Energy       :      -1170.19604089152813 Eh          -31842.65312 eV

Components:
Nuclear Repulsion  :       1781.31928135166913 Eh           48472.16192 eV
Electronic Energy  :      -2951.51535851556037 Eh          -80314.81603 eV
One Electron Energy:      -5132.46076781855209 Eh         -139661.35774 eV
Two Electron Energy:       2180.94540930299172 Eh           59346.54171 eV

Virial components:
Potential Energy   :      -2334.33344064359608 Eh          -63520.44224 eV
Kinetic Energy     :       1164.13739975206795 Eh           31677.78911 eV
Virial Ratio       :          2.00520440382789

DFT components:
N(Alpha)           :       81.000106668005 electrons
N(Beta)            :       81.000106668005 electrons
N(Total)           :      162.000213336010 electrons
E(XC)              :      -70.180226535353 Eh       

---------------
SCF CONVERGENCE
---------------

  Last Energy change         ...    1.6043e-07  Tolerance :   1.0000e-06
  Last MAX-Density change    ...    2.3509e-04  Tolerance :   1.0000e-05
  Last RMS-Density change    ...    4.3706e-06  Tolerance :   1.0000e-06
  Last DIIS Error            ...    8.3890e-04  Tolerance :   1.0000e-05
  Last Orbital Gradient      ...    2.4814e-05  Tolerance :   5.0000e-05
  Last Orbital Rotation      ...    6.7963e-05  Tolerance :   5.0000e-05


----------------
ORBITAL ENERGIES
----------------

  NO   OCC          E(Eh)            E(eV) 
   0   2.0000     -78.022504     -2123.1003 
   1   2.0000     -14.772846      -401.9896 
   2   2.0000     -10.590268      -288.1758 
   3   2.0000     -10.578520      -287.8562 
   4   2.0000     -10.578442      -287.8541 
   5   2.0000     -10.548321      -287.0344 
   6   2.0000     -10.547174      -287.0032 
   7   2.0000     -10.546231      -286.9775 
   8   2.0000     -10.546223      -286.9773 
   9   2.0000     -10.545813      -286.9662 
  10   2.0000     -10.545790      -286.9655 
  11   2.0000     -10.545783      -286.9653 
  12   2.0000     -10.545175      -286.9488 
  13   2.0000     -10.545135      -286.9477 
  14   2.0000     -10.544883      -286.9409 
  15   2.0000     -10.544699      -286.9358 
  16   2.0000     -10.543995      -286.9167 
  17   2.0000     -10.543693      -286.9085 
  18   2.0000     -10.543038      -286.8907 
  19   2.0000     -10.539260      -286.7878 
  20   2.0000     -10.538867      -286.7772 
  21   2.0000     -10.536167      -286.7037 
  22   2.0000      -6.838422      -186.0829 
  23   2.0000      -4.953101      -134.7807 
  24   2.0000      -4.952672      -134.7690 
  25   2.0000      -4.952640      -134.7682 
  26   2.0000      -1.062912       -28.9233 
  27   2.0000      -0.954210       -25.9654 
  28   2.0000      -0.947418       -25.7805 
  29   2.0000      -0.940344       -25.5881 
  30   2.0000      -0.859285       -23.3823 
  31   2.0000      -0.842497       -22.9255 
  32   2.0000      -0.836767       -22.7696 
  33   2.0000      -0.835113       -22.7246 
  34   2.0000      -0.831749       -22.6330 
  35   2.0000      -0.828861       -22.5545 
  36   2.0000      -0.814873       -22.1738 
  37   2.0000      -0.755116       -20.5477 
  38   2.0000      -0.711263       -19.3544 
  39   2.0000      -0.682227       -18.5643 
  40   2.0000      -0.681086       -18.5333 
  41   2.0000      -0.679768       -18.4974 
  42   2.0000      -0.668956       -18.2032 
  43   2.0000      -0.653998       -17.7962 
  44   2.0000      -0.625860       -17.0305 
  45   2.0000      -0.598828       -16.2949 
  46   2.0000      -0.583138       -15.8680 
  47   2.0000      -0.568442       -15.4681 
  48   2.0000      -0.553111       -15.0509 
  49   2.0000      -0.542919       -14.7736 
  50   2.0000      -0.523844       -14.2545 
  51   2.0000      -0.518890       -14.1197 
  52   2.0000      -0.514586       -14.0026 
  53   2.0000      -0.510323       -13.8866 
  54   2.0000      -0.507933       -13.8216 
  55   2.0000      -0.495426       -13.4812 
  56   2.0000      -0.487562       -13.2672 
  57   2.0000      -0.483563       -13.1584 
  58   2.0000      -0.481109       -13.0916 
  59   2.0000      -0.480631       -13.0786 
  60   2.0000      -0.475081       -12.9276 
  61   2.0000      -0.464331       -12.6351 
  62   2.0000      -0.459501       -12.5037 
  63   2.0000      -0.446501       -12.1499 
  64   2.0000      -0.437468       -11.9041 
  65   2.0000      -0.431654       -11.7459 
  66   2.0000      -0.430408       -11.7120 
  67   2.0000      -0.425306       -11.5732 
  68   2.0000      -0.398201       -10.8356 
  69   2.0000      -0.397366       -10.8129 
  70   2.0000      -0.391742       -10.6599 
  71   2.0000      -0.373263       -10.1570 
  72   2.0000      -0.371427       -10.1070 
  73   2.0000      -0.349744        -9.5170 
  74   2.0000      -0.323766        -8.8101 
  75   2.0000      -0.309656        -8.4262 
  76   2.0000      -0.307410        -8.3651 
  77   2.0000      -0.301799        -8.2124 
  78   2.0000      -0.299736        -8.1562 
  79   2.0000      -0.269193        -7.3251 
  80   2.0000      -0.239892        -6.5278 
  81   0.0000       0.003989         0.1085 
  82   0.0000       0.006731         0.1832 
  83   0.0000       0.012556         0.3417 
  84   0.0000       0.026176         0.7123 
  85   0.0000       0.028867         0.7855 
  86   0.0000       0.030972         0.8428 
  87   0.0000       0.060115         1.6358 
  88   0.0000       0.080418         2.1883 
  89   0.0000       0.082710         2.2507 
  90   0.0000       0.088401         2.4055 
  91   0.0000       0.089315         2.4304 
*Only the first 10 virtual orbitals were printed.

                    ********************************
                    * MULLIKEN POPULATION ANALYSIS *
                    ********************************

-----------------------
MULLIKEN ATOMIC CHARGES
-----------------------
   0 C :   -0.378244
   1 N :   -0.156819
   2 C :   -0.380817
   3 C :    0.271166
   4 C :   -0.245140
   5 C :   -0.167616
   6 C :   -0.151756
   7 C :   -0.132776
   8 C :   -0.250885
   9 P :    0.117512
  10 C :   -0.080070
  11 C :   -0.148695
  12 C :   -0.147871
  13 C :   -0.138160
  14 C :   -0.158640
  15 C :   -0.145404
  16 C :   -0.092438
  17 C :   -0.119497
  18 C :   -0.167802
  19 C :   -0.137865
  20 C :   -0.140881
  21 C :   -0.162688
  22 H :    0.140018
  23 H :    0.160707
  24 H :    0.159949
  25 H :    0.161155
  26 H :    0.160591
  27 H :    0.139209
  28 H :    0.163792
  29 H :    0.179602
  30 H :    0.150032
  31 H :    0.165207
  32 H :    0.152625
  33 H :    0.143316
  34 H :    0.143579
  35 H :    0.144107
  36 H :    0.183127
  37 H :    0.184346
  38 H :    0.142611
  39 H :    0.143281
  40 H :    0.143722
  41 H :    0.154411
Sum of atomic charges:   -0.0000000

--------------------------------
MULLIKEN REDUCED ORBITAL CHARGES
--------------------------------
  0 C s       :     3.312476  s :     3.312476
      pz      :     0.868989  p :     2.974525
      px      :     1.093257
      py      :     1.012280
      dz2     :     0.033496  d :     0.085634
      dxz     :     0.013487
      dyz     :     0.013214
      dx2y2   :     0.019477
      dxy     :     0.005959
      f0      :     0.001530  f :     0.005609
      f+1     :     0.000842
      f-1     :     0.000899
      f+2     :     0.000770
      f-2     :     0.000788
      f+3     :     0.000400
      f-3     :     0.000380

  1 N s       :     3.446238  s :     3.446238
      pz      :     1.186672  p :     3.639686
      px      :     1.066496
      py      :     1.386518
      dz2     :     0.014432  d :     0.066060
      dxz     :     0.016355
      dyz     :     0.008968
      dx2y2   :     0.012805
      dxy     :     0.013501
      f0      :     0.000487  f :     0.004834
      f+1     :     0.000694
      f-1     :     0.000747
      f+2     :     0.000808
      f-2     :     0.000713
      f+3     :     0.000588
      f-3     :     0.000797

  2 C s       :     3.315358  s :     3.315358
      pz      :     1.029653  p :     2.974121
      px      :     0.951886
      py      :     0.992581
      dz2     :     0.024134  d :     0.085725
      dxz     :     0.016932
      dyz     :     0.008119
      dx2y2   :     0.026120
      dxy     :     0.010419
      f0      :     0.000499  f :     0.005615
      f+1     :     0.000794
      f-1     :     0.000810
      f+2     :     0.000999
      f-2     :     0.000641
      f+3     :     0.001309
      f-3     :     0.000563

  3 C s       :     3.072573  s :     3.072573
      pz      :     0.889315  p :     2.528639
      px      :     0.738698
      py      :     0.900626
      dz2     :     0.023557  d :     0.116217
      dxz     :     0.027052
      dyz     :     0.009789
      dx2y2   :     0.021058
      dxy     :     0.034762
      f0      :     0.001218  f :     0.011405
      f+1     :     0.002126
      f-1     :     0.000964
      f+2     :     0.001925
      f-2     :     0.001432
      f+3     :     0.001451
      f-3     :     0.002288

  4 C s       :     3.180376  s :     3.180376
      pz      :     1.054662  p :     3.003813
      px      :     0.924151
      py      :     1.025000
      dz2     :     0.006543  d :     0.054411
      dxz     :     0.015779
      dyz     :     0.006696
      dx2y2   :     0.009396
      dxy     :     0.015996
      f0      :     0.000350  f :     0.006539
      f+1     :     0.001087
      f-1     :     0.000891
      f+2     :     0.001122
      f-2     :     0.000855
      f+3     :     0.000960
      f-3     :     0.001275

  5 C s       :     3.197242  s :     3.197242
      pz      :     0.888863  p :     2.893292
      px      :     1.045859
      py      :     0.958570
      dz2     :     0.015856  d :     0.070415
      dxz     :     0.016720
      dyz     :     0.011193
      dx2y2   :     0.007447
      dxy     :     0.019199
      f0      :     0.001038  f :     0.006667
      f+1     :     0.000967
      f-1     :     0.000637
      f+2     :     0.001186
      f-2     :     0.001115
      f+3     :     0.000584
      f-3     :     0.001139

  6 C s       :     3.261869  s :     3.261869
      pz      :     0.895680  p :     2.807349
      px      :     0.903870
      py      :     1.007800
      dz2     :     0.020665  d :     0.075522
      dxz     :     0.018416
      dyz     :     0.007525
      dx2y2   :     0.016265
      dxy     :     0.012651
      f0      :     0.000950  f :     0.007016
      f+1     :     0.001088
      f-1     :     0.000975
      f+2     :     0.001381
      f-2     :     0.001035
      f+3     :     0.000821
      f-3     :     0.000767

  7 C s       :     3.193766  s :     3.193766
      pz      :     0.978199  p :     2.863013
      px      :     0.940073
      py      :     0.944741
      dz2     :     0.009118  d :     0.069286
      dxz     :     0.018168
      dyz     :     0.008636
      dx2y2   :     0.012252
      dxy     :     0.021112
      f0      :     0.000314  f :     0.006711
      f+1     :     0.001295
      f-1     :     0.000862
      f+2     :     0.001088
      f-2     :     0.000845
      f+3     :     0.001022
      f-3     :     0.001284

  8 C s       :     3.195288  s :     3.195288
      pz      :     0.949173  p :     2.993809
      px      :     1.000945
      py      :     1.043691
      dz2     :     0.014474  d :     0.055197
      dxz     :     0.009227
      dyz     :     0.009827
      dx2y2   :     0.007800
      dxy     :     0.013868
      f0      :     0.000958  f :     0.006591
      f+1     :     0.001002
      f-1     :     0.000707
      f+2     :     0.001145
      f-2     :     0.001179
      f+3     :     0.000547
      f-3     :     0.001053

  9 P s       :     5.738907  s :     5.738907
      pz      :     3.368525  p :     8.857161
      px      :     2.748157
      py      :     2.740480
      dz2     :     0.025910  d :     0.260602
      dxz     :     0.048345
      dyz     :     0.056280
      dx2y2   :     0.064892
      dxy     :     0.065174
      f0      :     0.002364  f :     0.025818
      f+1     :     0.002664
      f-1     :     0.003030
      f+2     :     0.005314
      f-2     :     0.004964
      f+3     :     0.003271
      f-3     :     0.004211

 10 C s       :     3.236338  s :     3.236338
      pz      :     0.873059  p :     2.759187
      px      :     0.958383
      py      :     0.927745
      dz2     :     0.020796  d :     0.077591
      dxz     :     0.007730
      dyz     :     0.019236
      dx2y2   :     0.012140
      dxy     :     0.017690
      f0      :     0.000974  f :     0.006955
      f+1     :     0.000849
      f-1     :     0.001242
      f+2     :     0.001136
      f-2     :     0.001102
      f+3     :     0.000851
      f-3     :     0.000800

 11 C s       :     3.204555  s :     3.204555
      pz      :     1.000420  p :     2.873302
      px      :     0.965545
      py      :     0.907337
      dz2     :     0.010237  d :     0.064269
      dxz     :     0.008613
      dyz     :     0.015661
      dx2y2   :     0.011228
      dxy     :     0.018530
      f0      :     0.000275  f :     0.006568
      f+1     :     0.000790
      f-1     :     0.001372
      f+2     :     0.001073
      f-2     :     0.000834
      f+3     :     0.001060
      f-3     :     0.001164

 12 C s       :     3.226586  s :     3.226586
      pz      :     0.922987  p :     2.854291
      px      :     0.946115
      py      :     0.985188
      dz2     :     0.016797  d :     0.060682
      dxz     :     0.007947
      dyz     :     0.013187
      dx2y2   :     0.013294
      dxy     :     0.009457
      f0      :     0.000991  f :     0.006312
      f+1     :     0.000795
      f-1     :     0.000938
      f+2     :     0.001148
      f-2     :     0.000990
      f+3     :     0.000574
      f-3     :     0.000877

 13 C s       :     3.222311  s :     3.222311
      pz      :     0.928299  p :     2.848509
      px      :     0.955507
      py      :     0.964703
      dz2     :     0.015762  d :     0.061039
      dxz     :     0.008835
      dyz     :     0.013800
      dx2y2   :     0.010520
      dxy     :     0.012121
      f0      :     0.000990  f :     0.006301
      f+1     :     0.000719
      f-1     :     0.000977
      f+2     :     0.001069
      f-2     :     0.001063
      f+3     :     0.000854
      f-3     :     0.000629

 14 C s       :     3.230528  s :     3.230528
      pz      :     1.002622  p :     2.860855
      px      :     0.973472
      py      :     0.884761
      dz2     :     0.008892  d :     0.060972
      dxz     :     0.007546
      dyz     :     0.015878
      dx2y2   :     0.009267
      dxy     :     0.019388
      f0      :     0.000268  f :     0.006284
      f+1     :     0.000790
      f-1     :     0.001253
      f+2     :     0.001079
      f-2     :     0.000852
      f+3     :     0.000973
      f-3     :     0.001068

 15 C s       :     3.197038  s :     3.197038
      pz      :     0.889126  p :     2.876389
      px      :     0.952284
      py      :     1.034979
      dz2     :     0.015928  d :     0.065516
      dxz     :     0.009275
      dyz     :     0.016399
      dx2y2   :     0.013363
      dxy     :     0.010552
      f0      :     0.000960  f :     0.006460
      f+1     :     0.000793
      f-1     :     0.000962
      f+2     :     0.001147
      f-2     :     0.001116
      f+3     :     0.000574
      f-3     :     0.000908

 16 C s       :     3.236961  s :     3.236961
      pz      :     0.910301  p :     2.770755
      px      :     0.917258
      py      :     0.943197
      dz2     :     0.019851  d :     0.077781
      dxz     :     0.013840
      dyz     :     0.011013
      dx2y2   :     0.016042
      dxy     :     0.017035
      f0      :     0.000876  f :     0.006940
      f+1     :     0.000883
      f-1     :     0.001000
      f+2     :     0.001384
      f-2     :     0.000944
      f+3     :     0.000898
      f-3     :     0.000956

 17 C s       :     3.176697  s :     3.176697
      pz      :     0.914062  p :     2.871811
      px      :     1.025071
      py      :     0.932679
      dz2     :     0.018098  d :     0.064544
      dxz     :     0.010600
      dyz     :     0.009631
      dx2y2   :     0.015526
      dxy     :     0.010688
      f0      :     0.000699  f :     0.006445
      f+1     :     0.000693
      f-1     :     0.001226
      f+2     :     0.001368
      f-2     :     0.000967
      f+3     :     0.000604
      f-3     :     0.000889

 18 C s       :     3.236043  s :     3.236043
      pz      :     0.987879  p :     2.864483
      px      :     0.919182
      py      :     0.957421
      dz2     :     0.007304  d :     0.061002
      dxz     :     0.015567
      dyz     :     0.009457
      dx2y2   :     0.016783
      dxy     :     0.011891
      f0      :     0.000457  f :     0.006274
      f+1     :     0.000768
      f-1     :     0.001008
      f+2     :     0.001018
      f-2     :     0.000991
      f+3     :     0.000904
      f-3     :     0.001129

 19 C s       :     3.221988  s :     3.221988
      pz      :     0.949466  p :     2.848496
      px      :     0.916503
      py      :     0.982527
      dz2     :     0.013372  d :     0.061087
      dxz     :     0.012271
      dyz     :     0.009153
      dx2y2   :     0.010145
      dxy     :     0.016145
      f0      :     0.000922  f :     0.006294
      f+1     :     0.000790
      f-1     :     0.000676
      f+2     :     0.001238
      f-2     :     0.000968
      f+3     :     0.000917
      f-3     :     0.000783

 20 C s       :     3.221543  s :     3.221543
      pz      :     0.924157  p :     2.852334
      px      :     1.009716
      py      :     0.918462
      dz2     :     0.018901  d :     0.060697
      dxz     :     0.010069
      dyz     :     0.006891
      dx2y2   :     0.013427
      dxy     :     0.011410
      f0      :     0.000725  f :     0.006307
      f+1     :     0.000724
      f-1     :     0.001179
      f+2     :     0.001259
      f-2     :     0.000951
      f+3     :     0.000614
      f-3     :     0.000853

 21 C s       :     3.214455  s :     3.214455
      pz      :     1.014191  p :     2.877342
      px      :     0.920609
      py      :     0.942541
      dz2     :     0.008779  d :     0.064344
      dxz     :     0.015657
      dyz     :     0.010317
      dx2y2   :     0.016955
      dxy     :     0.012635
      f0      :     0.000474  f :     0.006548
      f+1     :     0.000809
      f-1     :     0.001064
      f+2     :     0.001029
      f-2     :     0.000989
      f+3     :     0.000992
      f-3     :     0.001189

 22 H s       :     0.840732  s :     0.840732
      pz      :     0.003602  p :     0.019251
      px      :     0.012066
      py      :     0.003583

 23 H s       :     0.821388  s :     0.821388
      pz      :     0.002754  p :     0.017905
      px      :     0.003425
      py      :     0.011726

 24 H s       :     0.822157  s :     0.822157
      pz      :     0.008702  p :     0.017893
      px      :     0.005394
      py      :     0.003797

 25 H s       :     0.820951  s :     0.820951
      pz      :     0.010980  p :     0.017894
      px      :     0.003098
      py      :     0.003816

 26 H s       :     0.821521  s :     0.821521
      pz      :     0.003211  p :     0.017888
      px      :     0.003321
      py      :     0.011356

 27 H s       :     0.841549  s :     0.841549
      pz      :     0.004938  p :     0.019242
      px      :     0.010867
      py      :     0.003437

 28 H s       :     0.815674  s :     0.815674
      pz      :     0.010489  p :     0.020534
      px      :     0.003489
      py      :     0.006556

 29 H s       :     0.799968  s :     0.799968
      pz      :     0.005633  p :     0.020430
      px      :     0.008168
      py      :     0.006630

 30 H s       :     0.830146  s :     0.830146
      pz      :     0.010424  p :     0.019822
      px      :     0.003578
      py      :     0.005820

 31 H s       :     0.814241  s :     0.814241
      pz      :     0.006084  p :     0.020552
      px      :     0.007460
      py      :     0.007008

 32 H s       :     0.827489  s :     0.827489
      pz      :     0.010632  p :     0.019886
      px      :     0.006494
      py      :     0.002760

 33 H s       :     0.837048  s :     0.837048
      pz      :     0.004789  p :     0.019635
      px      :     0.003895
      py      :     0.010951

 34 H s       :     0.836813  s :     0.836813
      pz      :     0.004943  p :     0.019608
      px      :     0.004774
      py      :     0.009892

 35 H s       :     0.836283  s :     0.836283
      pz      :     0.010373  p :     0.019609
      px      :     0.006524
      py      :     0.002712

 36 H s       :     0.796292  s :     0.796292
      pz      :     0.004720  p :     0.020581
      px      :     0.003817
      py      :     0.012044

 37 H s       :     0.794935  s :     0.794935
      pz      :     0.003630  p :     0.020720
      px      :     0.012900
      py      :     0.004190

 38 H s       :     0.837777  s :     0.837777
      pz      :     0.008597  p :     0.019611
      px      :     0.005302
      py      :     0.005712

 39 H s       :     0.837116  s :     0.837116
      pz      :     0.005732  p :     0.019603
      px      :     0.004942
      py      :     0.008929

 40 H s       :     0.836644  s :     0.836644
      pz      :     0.003743  p :     0.019634
      px      :     0.012057
      py      :     0.003835

 41 H s       :     0.825739  s :     0.825739
      pz      :     0.008891  p :     0.019850
      px      :     0.005230
      py      :     0.005729



                     *******************************
                     * LOEWDIN POPULATION ANALYSIS *
                     *******************************

----------------------
LOEWDIN ATOMIC CHARGES
----------------------
   0 C :   -0.309038
   1 N :    0.130743
   2 C :   -0.309059
   3 C :   -0.180189
   4 C :   -0.141737
   5 C :   -0.136767
   6 C :   -0.304305
   7 C :   -0.143895
   8 C :   -0.142813
   9 P :    0.691881
  10 C :   -0.273231
  11 C :   -0.141500
  12 C :   -0.145567
  13 C :   -0.144949
  14 C :   -0.145314
  15 C :   -0.140347
  16 C :   -0.275912
  17 C :   -0.136964
  18 C :   -0.144762
  19 C :   -0.144935
  20 C :   -0.146555
  21 C :   -0.144887
  22 H :    0.122963
  23 H :    0.119876
  24 H :    0.119498
  25 H :    0.119670
  26 H :    0.119713
  27 H :    0.123003
  28 H :    0.149913
  29 H :    0.158752
  30 H :    0.150659
  31 H :    0.149663
  32 H :    0.150403
  33 H :    0.146967
  34 H :    0.146031
  35 H :    0.147028
  36 H :    0.157540
  37 H :    0.158038
  38 H :    0.146783
  39 H :    0.146048
  40 H :    0.146995
  41 H :    0.150560

-------------------------------
LOEWDIN REDUCED ORBITAL CHARGES
-------------------------------
  0 C s       :     2.842026  s :     2.842026
      pz      :     0.960276  p :     3.083405
      px      :     1.074018
      py      :     1.049111
      dz2     :     0.119584  d :     0.343693
      dxz     :     0.061797
      dyz     :     0.060242
      dx2y2   :     0.082281
      dxy     :     0.019789
      f0      :     0.008970  f :     0.039915
      f+1     :     0.006363
      f-1     :     0.007470
      f+2     :     0.004414
      f-2     :     0.007241
      f+3     :     0.002950
      f-3     :     0.002507

  1 N s       :     2.879766  s :     2.879766
      pz      :     1.218747  p :     3.679504
      px      :     1.150120
      py      :     1.310637
      dz2     :     0.059935  d :     0.290280
      dxz     :     0.077591
      dyz     :     0.037895
      dx2y2   :     0.056682
      dxy     :     0.058178
      f0      :     0.002418  f :     0.019707
      f+1     :     0.003836
      f-1     :     0.002256
      f+2     :     0.003493
      f-2     :     0.002361
      f+3     :     0.002200
      f-3     :     0.003142

  2 C s       :     2.842066  s :     2.842066
      pz      :     1.051708  p :     3.083466
      px      :     0.993749
      py      :     1.038009
      dz2     :     0.090100  d :     0.343610
      dxz     :     0.069987
      dyz     :     0.036674
      dx2y2   :     0.100919
      dxy     :     0.045930
      f0      :     0.003385  f :     0.039918
      f+1     :     0.004977
      f-1     :     0.005871
      f+2     :     0.007011
      f-2     :     0.006392
      f+3     :     0.008030
      f-3     :     0.004252

  3 C s       :     2.707597  s :     2.707597
      pz      :     0.971007  p :     2.786279
      px      :     0.900689
      py      :     0.914584
      dz2     :     0.117650  d :     0.613284
      dxz     :     0.155501
      dyz     :     0.077976
      dx2y2   :     0.120682
      dxy     :     0.141474
      f0      :     0.008521  f :     0.073029
      f+1     :     0.015620
      f-1     :     0.006033
      f+2     :     0.011080
      f-2     :     0.008549
      f+3     :     0.009145
      f-3     :     0.014080

  4 C s       :     2.766428  s :     2.766428
      pz      :     0.975186  p :     2.978324
      px      :     1.036996
      py      :     0.966143
      dz2     :     0.059782  d :     0.357662
      dxz     :     0.092176
      dyz     :     0.043634
      dx2y2   :     0.076298
      dxy     :     0.085772
      f0      :     0.002579  f :     0.039323
      f+1     :     0.008457
      f-1     :     0.003578
      f+2     :     0.006203
      f-2     :     0.005514
      f+3     :     0.005514
      f-3     :     0.007478

  5 C s       :     2.774818  s :     2.774818
      pz      :     0.979473  p :     2.923905
      px      :     1.024980
      py      :     0.919452
      dz2     :     0.076651  d :     0.396670
      dxz     :     0.123621
      dyz     :     0.053451
      dx2y2   :     0.052783
      dxy     :     0.090164
      f0      :     0.006668  f :     0.041373
      f+1     :     0.007220
      f-1     :     0.004647
      f+2     :     0.006675
      f-2     :     0.005115
      f+3     :     0.004304
      f-3     :     0.006744

  6 C s       :     2.774697  s :     2.774697
      pz      :     1.031695  p :     3.032814
      px      :     1.031572
      py      :     0.969547
      dz2     :     0.096787  d :     0.451778
      dxz     :     0.129593
      dyz     :     0.069271
      dx2y2   :     0.091916
      dxy     :     0.064211
      f0      :     0.005619  f :     0.045017
      f+1     :     0.008996
      f-1     :     0.006065
      f+2     :     0.007360
      f-2     :     0.006678
      f+3     :     0.004870
      f-3     :     0.005429

  7 C s       :     2.775684  s :     2.775684
      pz      :     0.957821  p :     2.928226
      px      :     1.052032
      py      :     0.918374
      dz2     :     0.067719  d :     0.398598
      dxz     :     0.097368
      dyz     :     0.046563
      dx2y2   :     0.090880
      dxy     :     0.096068
      f0      :     0.002633  f :     0.041387
      f+1     :     0.009535
      f-1     :     0.003770
      f+2     :     0.006557
      f-2     :     0.005534
      f+3     :     0.005571
      f-3     :     0.007786

  8 C s       :     2.766270  s :     2.766270
      pz      :     0.987538  p :     2.980324
      px      :     1.026974
      py      :     0.965811
      dz2     :     0.068301  d :     0.356866
      dxz     :     0.110485
      dyz     :     0.048764
      dx2y2   :     0.050659
      dxy     :     0.078657
      f0      :     0.005865  f :     0.039354
      f+1     :     0.006951
      f-1     :     0.004795
      f+2     :     0.006559
      f-2     :     0.004836
      f+3     :     0.004102
      f-3     :     0.006245

  9 P s       :     4.925418  s :     4.925418
      pz      :     3.303386  p :     8.787610
      px      :     2.748214
      py      :     2.736010
      dz2     :     0.070799  d :     0.499111
      dxz     :     0.081936
      dyz     :     0.094863
      dx2y2   :     0.127442
      dxy     :     0.124072
      f0      :     0.006986  f :     0.095980
      f+1     :     0.008558
      f-1     :     0.011026
      f+2     :     0.020618
      f-2     :     0.018016
      f+3     :     0.015624
      f-3     :     0.015153

 10 C s       :     2.780734  s :     2.780734
      pz      :     1.023695  p :     2.993089
      px      :     0.928276
      py      :     1.041117
      dz2     :     0.096630  d :     0.454691
      dxz     :     0.060431
      dyz     :     0.143250
      dx2y2   :     0.072578
      dxy     :     0.081802
      f0      :     0.005726  f :     0.044718
      f+1     :     0.005063
      f-1     :     0.010554
      f+2     :     0.005260
      f-2     :     0.007448
      f+3     :     0.004927
      f-3     :     0.005739

 11 C s       :     2.777193  s :     2.777193
      pz      :     0.964930  p :     2.941299
      px      :     0.913243
      py      :     1.063126
      dz2     :     0.070124  d :     0.382348
      dxz     :     0.044869
      dyz     :     0.093561
      dx2y2   :     0.090297
      dxy     :     0.083497
      f0      :     0.002232  f :     0.040660
      f+1     :     0.002644
      f-1     :     0.010795
      f+2     :     0.004942
      f-2     :     0.007160
      f+3     :     0.005001
      f-3     :     0.007887

 12 C s       :     2.778202  s :     2.778202
      pz      :     1.003302  p :     2.950483
      px      :     0.939184
      py      :     1.007997
      dz2     :     0.082715  d :     0.376275
      dxz     :     0.055939
      dyz     :     0.109228
      dx2y2   :     0.072453
      dxy     :     0.055940
      f0      :     0.005665  f :     0.040607
      f+1     :     0.005153
      f-1     :     0.008208
      f+2     :     0.004668
      f-2     :     0.007343
      f+3     :     0.003827
      f-3     :     0.005742

 13 C s       :     2.778794  s :     2.778794
      pz      :     1.001324  p :     2.950929
      px      :     0.932998
      py      :     1.016607
      dz2     :     0.079696  d :     0.374667
      dxz     :     0.051277
      dyz     :     0.113753
      dx2y2   :     0.060348
      dxy     :     0.069593
      f0      :     0.005777  f :     0.040559
      f+1     :     0.004828
      f-1     :     0.008329
      f+2     :     0.004847
[...]
      dx2y2   :     0.083856
      dxy     :     0.105203
      f0      :     0.003279  f :     0.040641
      f+1     :     0.005514
      f-1     :     0.005277
      f+2     :     0.007488
      f-2     :     0.004501
      f+3     :     0.005770
      f-3     :     0.008811

 22 H s       :     0.819181  s :     0.819181
      pz      :     0.010714  p :     0.057855
      px      :     0.034947
      py      :     0.012195

 23 H s       :     0.822442  s :     0.822442
      pz      :     0.009726  p :     0.057681
      px      :     0.012141
      py      :     0.035815

 24 H s       :     0.822864  s :     0.822864
      pz      :     0.026182  p :     0.057638
      px      :     0.018055
      py      :     0.013400

 25 H s       :     0.822671  s :     0.822671
      pz      :     0.033409  p :     0.057659
      px      :     0.010766
      py      :     0.013484

 26 H s       :     0.822635  s :     0.822635
      pz      :     0.011255  p :     0.057652
      px      :     0.011766
      py      :     0.034631

 27 H s       :     0.819134  s :     0.819134
      pz      :     0.016677  p :     0.057863
      px      :     0.029679
      py      :     0.011506

 28 H s       :     0.791462  s :     0.791462
      pz      :     0.027803  p :     0.058625
      px      :     0.011739
      py      :     0.019083

 29 H s       :     0.783653  s :     0.783653
      pz      :     0.016623  p :     0.057595
      px      :     0.022358
      py      :     0.018613

 30 H s       :     0.793704  s :     0.793704
      pz      :     0.027209  p :     0.055637
      px      :     0.011505
      py      :     0.016923

 31 H s       :     0.791686  s :     0.791686
      pz      :     0.017955  p :     0.058651
      px      :     0.020659
      py      :     0.020037

 32 H s       :     0.793508  s :     0.793508
      pz      :     0.027872  p :     0.056089
      px      :     0.018535
      py      :     0.009683

 33 H s       :     0.797327  s :     0.797327
      pz      :     0.014628  p :     0.055706
      px      :     0.012268
      py      :     0.028810

 34 H s       :     0.798180  s :     0.798180
      pz      :     0.014966  p :     0.055790
      px      :     0.014352
      py      :     0.026472

 35 H s       :     0.797282  s :     0.797282
      pz      :     0.027379  p :     0.055690
      px      :     0.018323
      py      :     0.009988

 36 H s       :     0.783970  s :     0.783970
      pz      :     0.014468  p :     0.058490
      px      :     0.012273
      py      :     0.031749

 37 H s       :     0.783206  s :     0.783206
      pz      :     0.011914  p :     0.058757
      px      :     0.033676
      py      :     0.013166

 38 H s       :     0.797563  s :     0.797563
      pz      :     0.023246  p :     0.055654
      px      :     0.015868
      py      :     0.016540

 39 H s       :     0.798180  s :     0.798180
      pz      :     0.016679  p :     0.055772
      px      :     0.015068
      py      :     0.024025

 40 H s       :     0.797292  s :     0.797292
      pz      :     0.012169  p :     0.055714
      px      :     0.031285
      py      :     0.012260

 41 H s       :     0.793326  s :     0.793326
      pz      :     0.023780  p :     0.056113
      px      :     0.015578
      py      :     0.016755



                      *****************************
                      * MAYER POPULATION ANALYSIS *
                      *****************************

  NA   - Mulliken gross atomic population
  ZA   - Total nuclear charge
  QA   - Mulliken gross atomic charge
  VA   - Mayer's total valence
  BVA  - Mayer's bonded valence
  FA   - Mayer's free valence

  ATOM       NA         ZA         QA         VA         BVA        FA
  0 C      6.3782     6.0000    -0.3782     3.8425     3.8425     0.0000
  1 N      7.1568     7.0000    -0.1568     3.0803     3.0803    -0.0000
  2 C      6.3808     6.0000    -0.3808     3.8438     3.8438    -0.0000
  3 C      5.7288     6.0000     0.2712     3.7954     3.7954    -0.0000
  4 C      6.2451     6.0000    -0.2451     4.0127     4.0127    -0.0000
  5 C      6.1676     6.0000    -0.1676     3.9270     3.9270    -0.0000
  6 C      6.1518     6.0000    -0.1518     3.8362     3.8362    -0.0000
  7 C      6.1328     6.0000    -0.1328     4.0021     4.0021    -0.0000
  8 C      6.2509     6.0000    -0.2509     3.9752     3.9752    -0.0000
  9 P     14.8825    15.0000     0.1175     3.1122     3.1122    -0.0000
 10 C      6.0801     6.0000    -0.0801     3.8261     3.8261     0.0000
 11 C      6.1487     6.0000    -0.1487     3.9466     3.9466    -0.0000
 12 C      6.1479     6.0000    -0.1479     3.9529     3.9529    -0.0000
 13 C      6.1382     6.0000    -0.1382     3.9214     3.9214    -0.0000
 14 C      6.1586     6.0000    -0.1586     3.9755     3.9755    -0.0000
 15 C      6.1454     6.0000    -0.1454     3.8243     3.8243     0.0000
 16 C      6.0924     6.0000    -0.0924     3.8342     3.8342    -0.0000
 17 C      6.1195     6.0000    -0.1195     3.8443     3.8443    -0.0000
 18 C      6.1678     6.0000    -0.1678     3.9819     3.9819    -0.0000
 19 C      6.1379     6.0000    -0.1379     3.9192     3.9192    -0.0000
 20 C      6.1409     6.0000    -0.1409     3.9416     3.9416    -0.0000
 21 C      6.1627     6.0000    -0.1627     3.9296     3.9296    -0.0000
 22 H      0.8600     1.0000     0.1400     0.9671     0.9671     0.0000
 23 H      0.8393     1.0000     0.1607     0.9404     0.9404     0.0000
 24 H      0.8401     1.0000     0.1599     0.9404     0.9404     0.0000
 25 H      0.8388     1.0000     0.1612     0.9395     0.9395    -0.0000
 26 H      0.8394     1.0000     0.1606     0.9398     0.9398     0.0000
 27 H      0.8608     1.0000     0.1392     0.9680     0.9680     0.0000
 28 H      0.8362     1.0000     0.1638     0.9558     0.9558    -0.0000
 29 H      0.8204     1.0000     0.1796     0.9505     0.9505    -0.0000
 30 H      0.8500     1.0000     0.1500     0.9715     0.9715    -0.0000
 31 H      0.8348     1.0000     0.1652     0.9545     0.9545    -0.0000
 32 H      0.8474     1.0000     0.1526     0.9688     0.9688    -0.0000
 33 H      0.8567     1.0000     0.1433     0.9651     0.9651    -0.0000
 34 H      0.8564     1.0000     0.1436     0.9642     0.9642    -0.0000
 35 H      0.8559     1.0000     0.1441     0.9659     0.9659    -0.0000
 36 H      0.8169     1.0000     0.1831     0.9516     0.9516     0.0000
 37 H      0.8157     1.0000     0.1843     0.9454     0.9454    -0.0000
 38 H      0.8574     1.0000     0.1426     0.9664     0.9664    -0.0000
 39 H      0.8567     1.0000     0.1433     0.9644     0.9644    -0.0000
 40 H      0.8563     1.0000     0.1437     0.9650     0.9650    -0.0000
 41 H      0.8456     1.0000     0.1544     0.9689     0.9689    -0.0000

  Mayer bond orders larger than 0.100000
B(  0-C ,  1-N ) :   0.9596 B(  0-C , 22-H ) :   0.9686 B(  0-C , 23-H ) :   0.9605 
B(  0-C , 24-H ) :   0.9608 B(  1-N ,  2-C ) :   0.9583 B(  1-N ,  3-C ) :   1.1625 
B(  2-C , 25-H ) :   0.9604 B(  2-C , 26-H ) :   0.9603 B(  2-C , 27-H ) :   0.9690 
B(  3-C ,  4-C ) :   1.3131 B(  3-C ,  8-C ) :   1.3184 B(  4-C ,  5-C ) :   1.5787 
B(  4-C , 28-H ) :   0.9017 B(  5-C ,  6-C ) :   1.3071 B(  5-C , 29-H ) :   0.9212 
B(  6-C ,  7-C ) :   1.3995 B(  6-C ,  9-P ) :   0.9549 B(  7-C ,  8-C ) :   1.5445 
B(  7-C , 30-H ) :   0.9280 B(  8-C , 31-H ) :   0.9128 B(  9-P , 10-C ) :   0.9359 
B(  9-P , 16-C ) :   0.9360 B( 10-C , 11-C ) :   1.4055 B( 10-C , 15-C ) :   1.3354 
B( 11-C , 12-C ) :   1.4651 B( 11-C , 32-H ) :   0.9343 B( 12-C , 13-C ) :   1.4243 
B( 12-C , 33-H ) :   0.9482 B( 13-C , 14-C ) :   1.4432 B( 13-C , 34-H ) :   0.9475 
B( 14-C , 15-C ) :   1.4556 B( 14-C , 35-H ) :   0.9446 B( 15-C , 36-H ) :   0.9284 
B( 16-C , 17-C ) :   1.3610 B( 16-C , 21-C ) :   1.3849 B( 17-C , 18-C ) :   1.4588 
B( 17-C , 37-H ) :   0.9227 B( 18-C , 19-C ) :   1.4418 B( 18-C , 38-H ) :   0.9450 
B( 19-C , 20-C ) :   1.4235 B( 19-C , 39-H ) :   0.9478 B( 20-C , 21-C ) :   1.4602 
B( 20-C , 40-H ) :   0.9484 B( 21-C , 41-H ) :   0.9380 

-------
TIMINGS
-------

Total SCF time: 0 days 0 hours 2 min 35 sec 

Total time                  ....     155.669 sec
Sum of individual times     ....     155.744 sec  (100.0%)

SCF preparation             ....       0.345 sec  (  0.2%)
Fock matrix formation       ....     150.399 sec  ( 96.6%)
  Startup                   ....       0.171 sec  (  0.1% of F)
  Split-RI-J                ....      11.256 sec  (  7.5% of F)
  Chain of spheres X        ....     108.624 sec  ( 72.2% of F)
  XC integration            ....      29.915 sec  ( 19.9% of F)
    Basis function eval.    ....       4.372 sec  ( 14.6% of XC)
    Density eval.           ....      12.495 sec  ( 41.8% of XC)
    XC-Functional eval.     ....       0.490 sec  (  1.6% of XC)
    XC-Potential eval.      ....      10.921 sec  ( 36.5% of XC)
Diagonalization             ....       0.000 sec  (  0.0%)
Density matrix formation    ....       0.438 sec  (  0.3%)
Total Energy calculation    ....       0.154 sec  (  0.1%)
Population analysis         ....       0.270 sec  (  0.2%)
Orbital Transformation      ....       0.565 sec  (  0.4%)
Orbital Orthonormalization  ....       0.000 sec  (  0.0%)
DIIS solution               ....       2.336 sec  (  1.5%)
SOSCF solution              ....       1.237 sec  (  0.8%)
Finished LeanSCF after 155.7 sec

Maximum memory used throughout the entire LEANSCF-calculation: 119.0 MB


-------------------------------------------------------------------------------
                          DFT DISPERSION CORRECTION                            
                                                                               
                              DFTD3 V3.1  Rev 1                                
                              USING zero damping                               
-------------------------------------------------------------------------------
The M062X functional is recognized
Active option DFTDOPT                   ...         3   

molecular C6(AA) [au] = 22510.302731 


            DFT-D V3
 parameters
 s6 scaling factor         :     1.0000 
 rs6 scaling factor        :     1.6190 
 s8 scaling factor         :     0.0000 
 rs8 scaling factor        :     1.0000 
 Damping factor alpha6     :    14.0000 
 Damping factor alpha8     :    16.0000 
 ad hoc parameters k1-k3   :    16.0000     1.3333    -4.0000 

 Edisp/kcal,au: -1.656763998507  -0.002640221208 
 E6   /kcal   :  -1.656763999 
 E8   /kcal   :  -0.000000000 
 % E8         :   0.000000000 

-------------------------   ----------------
Dispersion correction           -0.002640221
-------------------------   ----------------


-------------------------   --------------------
FINAL SINGLE POINT ENERGY     -1170.198681112736
-------------------------   --------------------



           ************************************************************
           *        Program running with 6 parallel MPI-processes     *
           *              working on a common directory               *
           ************************************************************

------------------------------------------------------------------------------
                              ORCA PROPERTY CALCULATIONS
------------------------------------------------------------------------------

GBWName                                 ... data/single_point_P_M06-2x/3333592/3333592.gbw
Number of atoms                         ...     42
Number of basis functions               ...    808
Max core memory                         ...   1024 MB

Electric properties:
Dipole moment                           ... YES
Quadrupole moment                       ...  NO
Static polarizability (Dipole/Dipole)   ...  NO
Static polarizability (Dipole/Quad.)    ...  NO
Static polarizability (Quad./Quad.)     ...  NO
Static polarizability (Velocity)        ...  NO

Atomic electric properties:
Dipole moment                           ...  NO
Quadrupole moment                       ...  NO
Static polarizability                   ...  NO

Choice of electric origin               ... Center of mass
Position of electric origin             ...    -0.732890    -0.018847    -0.579357

General magnetic properties:
Magnetizability                         ...  NO

EPR properties:
g-Tensor (aka g-matrix)                 ...  NO
Zero-Field splitting spin-orbit         ...  NO
Zero-field splitting spin-spin          ...  NO
Hyperfine couplings                     ...  NO (   0 nuclei)
Quadrupole couplings                    ...  NO (   0 nuclei)
Contact density                         ...  NO (   0 nuclei)

NMR properties:
Chemical shifts                         ...  NO (   0 nuclei)
Spin-rotation constants                 ...  NO (   0 nuclei)
Spin-spin couplings                     ...  NO (   0 nuclei,    0 pairs)

Choice of magnetic origin               ... GIAO
Position of magnetic origin             ...     0.000000     0.000000     0.000000

Properties with geometric perturbations:
SCF Hessian                             ...  NO
IR spectrum                             ...  NO
VCD spectrum                            ...  NO
X-ray spectroscopy properties:
SCF XES/XAS/RIXS spectra                ...  NO


-------------
DIPOLE MOMENT
-------------

Method             : SCF
Type of density    : Electron Density
Multiplicity       :   1
Irrep              :   0
Energy             : -1170.1960408915281278 Eh
Relativity type    : 
Basis              : AO
                                X                 Y                 Z
Electronic contribution:    -15.625715467      -0.456308401      -8.440462848
Nuclear contribution   :     16.790101382       0.474812133       9.262020518
                        -----------------------------------------
Total Dipole Moment    :      1.164385915       0.018503733       0.821557670
                        -----------------------------------------
Magnitude (a.u.)       :      1.425164535
Magnitude (Debye)      :      3.622480365



--------------------
Rotational spectrum 
--------------------
 
Rotational constants in cm-1:             0.011158             0.005816             0.004433 
Rotational constants in MHz :           334.508150           174.371610           132.899679 

Dipole components along the rotational axes: 
x,y,z [a.u.] :     1.197540     0.022803     0.772316 
x,y,z [Debye]:     3.043905     0.057961     1.963071 

 

Dipole moment calculation done in   0.0 sec 

Maximum memory used throughout the entire PROP-calculation: 64.7 MB

--------------------------------
SUGGESTED CITATIONS FOR THIS RUN
--------------------------------

Below you find a list of papers that are relevant to this ORCA run
We neither can nor want to force you to cite these papers, but we appreciate if you do
You receive ORCA, which is the product of decades of hard work by many enthusiastic individuals, for free
The only thing we kindly ask in return is that you cite our papers,
We deeply appreciate it, if you show your appreciation for ORCA by not just citing the generic ORCA reference.

Please note that relegating all ORCA citations to the supporting information does *not* help us.
SI sections are not indexed - citations you put there will not count into any citation statistics
But we need these citations in order to attract the funding resources that allow us to do what we are doing

Therefore, if you are a happy ORCA user, please consider citing a few of the papers listed below in the main body of your paper

In addition to the list printed below, the program has created the file data/single_point_P_M06-2x/3333592/3333592.bibtex that contains the list in bibtex format
You can import this file easily into all common literature databanks and citation aid programs


List of essential papers. We consider these as the minimum necessary citations

  1. Neese,F.
     Software update: the ORCA program system, version 5.0
     WIRES Comput. Molec. Sci., 2022 12(1)e1606
     doi.org/10.1002/wcms.1606

List of papers to cite with high priority. The work reported in these papers was absolutely
necessary for this run to complete.
Our perspective: the developers of density functionals and basis sets usually get cited in chemistry papers
Good! But without the algorithms to do something with them, the functionals or basis sets would not do anything.
Hence, in our opinion, the algorithm design and method developments papers are equally worthy of getting cited

  1. Neese,F.
     An improvement of the resolution of the identity approximation for the formation of the Coulomb matrix
     J. Comp. Chem., 2003 24(14)1740-1747
     doi.org/10.1002/jcc.10318
  2. Neese,F.; Wennmohs,F.; Hansen,A.; Becker,U.
     Efficient, approximate and parallel Hartree-Fock and hybrid DFT calculations. A 'chain-of-spheres' algorithm for the Hartree-Fock exchange
     Chem. Phys., 2009 356(1-3)98-109
     doi.org/10.1016/j.chemphys.2008.10.036
  3. Helmich-Paris,B.; de Souza,B.; Neese,F.; Izsák,R.
     An improved chain of spheres for exchange algorithm
     J. Chem. Phys., 2021 155 104109
     doi.org/doi: 10.1063/5.0058766.
  4. Neese,F.
     The SHARK Integral Generation and Digestion System
     J. Comp. Chem., 2022  1-16
     doi.org/10.1002/jcc.26942
  5. Grimme,S.; Antony,J.; Ehrlich,S.; Krieg,H.
     A consistent and accurate ab initio parametrization of density functional dispersion correction (DFT-D) for the 94 elements H-Pu
     J. Chem. Phys., 2010 132 154104-XXXX
     doi.org/10.1063/1.3382344

List of suggested additional citations. These are papers that are important in the 'surrounding' of 
of this run, or papers that preceded the highly important papers. If you like your results we are grateful for a citation.

  1. Izsak,R.; Neese,F.
     An overlap fitted chain of spheres exchange method
     J. Chem. Phys., 2011 135 144105
     doi.org/10.1063/1.3646921
  2. Izsak,R.; Hansen,A.; Neese,F.
     The resolution of identity and chain of spheres approximations for the LPNO-CCSD singles Fock term
     Molec. Phys., 2012 110 2413-2417
     doi.org/10.1080/00268976.2012.687466
  3. Neese,F.
     The ORCA program system
     WIRES Comput. Molec. Sci., 2012 2(1)73-78
     doi.org/10.1002/wcms.81
  4. Izsak,R.; Neese,F.; Klopper,W.
     Robust fitting techniques in the chain of spheres approximation to the Fock exchange: The role of the complementary space
     J. Chem. Phys., 2013 139 
     doi.org/10.1063/1.4819264
  5. Neese,F.
     Software update: the ORCA program system, version 4.0
     WIRES Comput. Molec. Sci., 2018 8(1)1-6
     doi.org/10.1002/wcms.1327
  6. Neese,F.; Wennmohs,F.; Becker,U.; Riplinger,C.
     The ORCA quantum chemistry program package
     J. Chem. Phys., 2020 152 Art. No. L224108
     doi.org/10.1063/5.0004608

List of optional additional citations

  1. Neese,F.
     Approximate second-order SCF convergence for spin unrestricted wavefunctions
     Chem. Phys. Lett., 2000 325(1-3)93-98
     doi.org/10.1016/s0009-2614(00)00662-x

Timings for individual modules:

Sum of individual times          ...      162.733 sec (=   2.712 min)
Startup calculation              ...        4.527 sec (=   0.075 min)   2.8 %
SCF iterations                   ...      157.905 sec (=   2.632 min)  97.0 %
Property calculations            ...        0.301 sec (=   0.005 min)   0.2 %
                             ****ORCA TERMINATED NORMALLY****
TOTAL RUN TIME: 0 days 0 hours 2 minutes 42 seconds 978 msec
