
                                 *****************
                                 * O   R   C   A *
                                 *****************

                                            #,                                       
                                            ###                                      
                                            ####                                     
                                            #####                                    
                                            ######                                   
                                           ########,                                 
                                     ,,################,,,,,                         
                               ,,#################################,,                 
                          ,,##########################################,,             
                       ,#########################################, ''#####,          
                    ,#############################################,,   '####,        
                  ,##################################################,,,,####,       
                ,###########''''           ''''###############################       
              ,#####''   ,,,,##########,,,,          '''####'''          '####       
            ,##' ,,,,###########################,,,                        '##       
           ' ,,###''''                  '''############,,,                           
         ,,##''                                '''############,,,,        ,,,,,,###''
      ,#''                                            '''#######################'''  
     '                                                          ''''####''''         
             ,#######,   #######,   ,#######,      ##                                
            ,#'     '#,  ##    ##  ,#'     '#,    #''#        ,####,   ,####,        
            ##       ##  ##   ,#'  ##            #'  '#       #'       #'  '#        
            ##       ##  #######   ##           ,######,      #####,   #    #        
            '#,     ,#'  ##    ##  '#,     ,#' ,#      #,     #,   #   #,  ,#        
             '#######'   ##     ##  '#######'  #'      '#     '####' # '####'        



                #########################################################
                #                        -***-                          #
                #          Department of theory and spectroscopy        #
                #                                                       #
                #                      Frank Neese                      #
                #                                                       #
                #     Directorship, Architecture, Infrastructure        #
                #                    SHARK, DRIVERS                     #
                #        Core code/Algorithms in most modules           #
                #                                                       #
                #        Max Planck Institute fuer Kohlenforschung      #
                #                Kaiser Wilhelm Platz 1                 #
                #                 D-45470 Muelheim/Ruhr                 #
                #                      Germany                          #
                #                                                       #
                #                  All rights reserved                  #
                #                        -***-                          #
                #########################################################


                         Program Version 6.0.0  -   RELEASE   -


 With contributions from (in alphabetic order):
   Daniel Aravena         : Magnetic Suceptibility
   Michael Atanasov       : Ab Initio Ligand Field Theory (pilot matlab implementation)
   Alexander A. Auer      : GIAO ZORA, VPT2 properties, NMR spectrum
   Ute Becker             : All parallelization in ORCA, NUMFREQ, NUMCALC
   Giovanni Bistoni       : ED, misc. LED, open-shell LED, HFLD
   Martin Brehm           : Molecular dynamics
   Dmytro Bykov           : pre 5.0 version of the SCF Hessian
   Marcos Casanova-Páez   : Triplet and SCS-CIS(D). UHF-(DLPNO)-IP/EA/STEOM-CCSD. UHF-CVS-IP/STEOM-CCSD
   Vijay G. Chilkuri      : MRCI spin determinant printing, contributions to CSF-ICE
   Pauline Colinet        : FMM embedding
   Dipayan Datta          : RHF DLPNO-CCSD density
   Achintya Kumar Dutta   : EOM-CC, STEOM-CC
   Nicolas Foglia         : Exact transition moments, OPA infrastructure, MCD improvements
   Dmitry Ganyushin       : Spin-Orbit,Spin-Spin,Magnetic field MRCI
   Miquel Garcia          : C-PCM and meta-GGA Hessian, CCSD/C-PCM, Gaussian charge scheme
   Tiago L. C. Gouveia    : GS-ROHF, GS-ROCIS
   Yang Guo               : DLPNO-NEVPT2, F12-NEVPT2, CIM, IAO-localization
   Andreas Hansen         : Spin unrestricted coupled pair/coupled cluster methods
   Ingolf Harden          : AUTO-CI MPn and infrastructure 
   Benjamin Helmich-Paris : MC-RPA, TRAH-(SCF,CASSCF), AVAS, COSX integrals, SCF dyn. polar.
   Lee Huntington         : MR-EOM, pCC
   Robert Izsak           : Overlap fitted RIJCOSX, COSX-SCS-MP3, EOM
   Riya Kayal             : Wick's Theorem for AUTO-CI, AUTO-CI UHF-CCSDT
   Emily Kempfer          : AUTO-CI, RHF CISDT and CCSDT
   Christian Kollmar      : KDIIS, OOCD, Brueckner-CCSD(T), CCSD density, CASPT2, CASPT2-K, improved NEVPT2
   Axel Koslowski         : Symmetry handling
   Simone Kossmann        : Meta GGA functionals, TD-DFT gradient, OOMP2, (MP2 Hessian; deprecated post 5.0)
   Lucas Lang             : DCDCAS
   Marvin Lechner         : AUTO-CI (C++ implementation), FIC-MRCC
   Spencer Leger          : CASSCF response
   Dagmar Lenk            : GEPOL surface, SMD, ORCA-2-JSON
   Dimitrios Liakos       : Extrapolation schemes; Compound Job, initial MDCI parallelization
   Dimitrios Manganas     : Further ROCIS development; embedding schemes. LFT, Crystal Embedding
   Dimitrios Pantazis     : SARC Basis sets
   Anastasios Papadopoulos: AUTO-CI, single reference methods and gradients
   Taras Petrenko         : pre 6.0 DFT Hessian and TD-DFT gradient, (ASA, deprecated), ECA, 1-Electron XAS/XES, NRVS
   Peter Pinski           : DLPNO-MP2, DLPNO-MP2 Gradient
   Christoph Reimann      : Effective Core Potentials
   Marius Retegan         : Local ZFS, SOC
   Christoph Riplinger    : Optimizer, TS searches, QM/MM, DLPNO-CCSD(T), (RO)-DLPNO pert. Triples
   Michael Roemelt        : Original ROCIS implementation
   Masaaki Saitow         : Open-shell DLPNO-CCSD energy and density
   Barbara Sandhoefer     : DKH picture change effects
   Kantharuban Sivalingam : CASSCF convergence/infrastructure, NEVPT2 and variants, FIC-MRCI
   Bernardo de Souza      : ESD, SOC TD-DFT
   Georgi Stoychev        : AutoAux, RI-MP2 NMR, DLPNO-MP2 response, X2C
   Van Anh Tran           : RI-MP2 g-tensors
   Willem Van den Heuvel  : Paramagnetic NMR
   Zikuan Wang            : NOTCH, Electric field optimization 
   Frank Wennmohs         : Technical directorship and infrastructure
   Hang Xu                : AUTO-CI-Response properties 


 We gratefully acknowledge several colleagues who have allowed us to
 interface, adapt or use parts of their codes:
   Stefan Grimme, W. Hujo, H. Kruse, P. Pracht,  : VdW corrections, initial TS optimization,
                  C. Bannwarth, S. Ehlert,         DFT functionals, gCP, sTDA/sTD-DF
                  L. Wittmann, M. Mueller
   Ed Valeev, F. Pavosevic, A. Kumar             : LibInt (2-el integral package), F12 methods
   Garnet Chan, S. Sharma, J. Yang, R. Olivares  : DMRG
   Ulf Ekstrom                                   : XCFun DFT Library
   Mihaly Kallay                                 : mrcc  (arbitrary order and MRCC methods)
   Frank Weinhold                                : gennbo (NPA and NBO analysis)
   Simon Mueller                                 : openCOSMO-RS
   Christopher J. Cramer and Donald G. Truhlar   : smd solvation model
   Lars Goerigk                                  : TD-DFT with DH, B97 family of functionals
   V. Asgeirsson, H. Jonsson                     : NEB implementation
   FAccTs GmbH                                   : IRC, NEB, NEB-TS, DLPNO-Multilevel, CI-OPT
                                                   MM, QMMM, 2- and 3-layer-ONIOM, Crystal-QMMM,
                                                   LR-CPCM, SF, NACMEs, symmetry and pop. for TD-DFT,
                                                   nearIR, NL-DFT gradient (VV10), updates on ESD,
                                                   ML-optimized integration grids, MBIS, APM,
                                                   GOAT, DOCKER, SOLVATOR, interface openCOSMO-RS
   S Lehtola, MJT Oliveira, MAL Marques          : LibXC Library
   Liviu Ungur et al                             : ANISO software


 Your calculation uses the libint2 library for the computation of 2-el integrals
 For citations please refer to: http://libint.valeyev.net

 Your ORCA version has been built with support for libXC version: 6.2.2
 For citations please refer to: https://libxc.gitlab.io

 This ORCA versions uses:
   CBLAS   interface :  Fast vector & matrix operations
   LAPACKE interface :  Fast linear algebra routines
   Shared memory     :  Shared parallel matrices


Your calculation utilizes the atom-pairwise dispersion correction
with the Becke-Johnson damping scheme (D3BJ)


Warning: RI is on but no J-basis has been assigned. Assigning Def2/J (nothing to worry about!)
================================================================================

----- Orbital basis set information -----
Your calculation utilizes the basis: def2-SVP
   F. Weigend and R. Ahlrichs, Phys. Chem. Chem. Phys. 7, 3297 (2005).

----- AuxJ basis set information -----
Your calculation utilizes the auxiliary basis: def2/J
   F. Weigend, Phys. Chem. Chem. Phys. 8, 1057 (2006).

================================================================================
                                        WARNINGS
                       Please study these warnings very carefully!
================================================================================


WARNING: Geometry Optimization
  ===> : Switching off AutoStart
         For restart on a previous wavefunction, please use MOREAD

================================================================================
                                       INPUT FILE
================================================================================
NAME = data/geom_opt_P_BP86/521585/521585.inp
|  1> ! RI BP86 def2-SVP D3BJ TIGHTSCF Opt
|  2> %pal
|  3> nprocs 6
|  4> end
|  5> 
|  6> * xyz 0 1
|  7> C     -2.022785   -3.131530    0.450272
|  8> C     -2.577902   -2.139038    1.220651
|  9> O     -2.151621   -0.920613    0.803259
| 10> C     -1.292239   -1.123078   -0.238889
| 11> C     -1.200504   -2.476163   -0.498883
| 12> P     -0.461086    0.207899   -1.182809
| 13> C      1.304306   -0.271761   -1.101444
| 14> C      2.378981    0.555500   -1.361374
| 15> C      3.546824   -0.231993   -1.211236
| 16> C      3.113879   -1.493994   -0.884748
| 17> O      1.758896   -1.530477   -0.828340
| 18> C     -0.551128    1.637896   -0.042501
| 19> C     -1.704095    2.157662    0.511900
| 20> C     -1.314272    3.268942    1.299072
| 21> C      0.049028    3.369255    1.164798
| 22> O      0.517618    2.394774    0.345468
| 23> H     -2.188672   -4.193883    0.557983
| 24> H     -3.260715   -2.133182    2.058589
| 25> H     -0.603195   -2.939074   -1.272796
| 26> H      2.330000    1.605274   -1.617467
| 27> H      4.574207    0.082441   -1.326692
| 28> H      3.615480   -2.427945   -0.673706
| 29> H     -2.706924    1.775733    0.375987
| 30> H     -1.948595    3.914433    1.889572
| 31> H      0.794513    4.042924    1.563334
| 32> **                         ****END OF INPUT****
================================================================================

                       *****************************
                       * Geometry Optimization Run *
                       *****************************

Geometry optimization settings:
Update method            Update   .... BFGS
Choice of coordinates    CoordSys .... (2022) Redundant Internals
Initial Hessian          InHess   .... Almloef's Model
Max. no of cycles        MaxIter  .... 75

Convergence Tolerances:
Energy Change            TolE     ....  5.0000e-06 Eh
Max. Gradient            TolMAXG  ....  3.0000e-04 Eh/bohr
RMS Gradient             TolRMSG  ....  1.0000e-04 Eh/bohr
Max. Displacement        TolMAXD  ....  4.0000e-03 bohr
RMS Displacement         TolRMSD  ....  2.0000e-03 bohr
Strict Convergence                .... False

------------------------------------------------------------------------------
                        ORCA OPTIMIZATION COORDINATE SETUP
------------------------------------------------------------------------------

The optimization will be done in redundant internal coordinates (2022)
Making redundant internal coordinates   ...  (2022 redundants) done
Evaluating the initial hessian          ...  (Almloef) done
Evaluating the coordinates              ...  done
Calculating the B-matrix                .... done
Calculating the G-matrix                .... done
Diagonalizing the G-matrix              .... done
Small eigenvalue found = 7.811e-03
Small eigenvalue found = 7.811e-03
Small eigenvalue found = 2.983e-02
The first mode is                       ....   60
The number of degrees of freedom        ....   69

    -----------------------------------------------------------------
                    Redundant Internal Coordinates


    -----------------------------------------------------------------
         Definition                    Initial Value    Approx d2E/dq
    -----------------------------------------------------------------
      1. B(C   1,C   0)                  1.3736         0.663683   
      2. B(O   2,C   1)                  1.3566         0.632540   
      3. B(C   3,O   2)                  1.3659         0.611467   
      4. B(C   4,C   3)                  1.3809         0.646065   
      5. B(C   4,C   0)                  1.4165         0.566784   
      6. B(P   5,C   3)                  1.8312         0.415263   
      7. B(C   6,P   5)                  1.8312         0.415262   
      8. B(C   7,C   6)                  1.3809         0.646066   
      9. B(C   8,C   7)                  1.4165         0.566786   
     10. B(C   9,C   8)                  1.3736         0.663680   
     11. B(O  10,C   9)                  1.3566         0.632539   
     12. B(O  10,C   6)                  1.3659         0.611465   
     13. B(C  11,P   5)                  1.8312         0.415262   
     14. B(C  12,C  11)                  1.3809         0.646066   
     15. B(C  13,C  12)                  1.4165         0.566785   
     16. B(C  14,C  13)                  1.3736         0.663683   
     17. B(O  15,C  14)                  1.3566         0.632540   
     18. B(O  15,C  11)                  1.3659         0.611466   
     19. B(H  16,C   0)                  1.0806         0.372741   
     20. B(H  17,C   1)                  1.0809         0.372302   
     21. B(H  18,C   4)                  1.0817         0.371292   
     22. B(H  19,C   7)                  1.0817         0.371291   
     23. B(H  20,C   8)                  1.0806         0.372741   
     24. B(H  21,C   9)                  1.0809         0.372302   
     25. B(H  22,C  12)                  1.0817         0.371291   
     26. B(H  23,C  13)                  1.0806         0.372741   
     27. B(H  24,C  14)                  1.0809         0.372301   
     28. A(C   1,C   0,H  16)          126.3285         0.359108   
     29. A(C   1,C   0,C   4)          106.0282         0.432379   
     30. A(C   4,C   0,H  16)          127.6433         0.349630   
     31. A(C   0,C   1,O   2)          110.4508         0.438120   
     32. A(C   0,C   1,H  17)          133.9467         0.359036   
     33. A(O   2,C   1,H  17)          115.6024         0.353917   
     34. A(C   1,O   2,C   3)          107.4165         0.428885   
     35. A(O   2,C   3,P   5)          124.8292         0.427040   
     36. A(O   2,C   3,C   4)          109.3113         0.433350   
     37. A(C   4,C   3,P   5)          125.8026         0.434117   
     38. A(C   3,C   4,H  18)          126.2095         0.357232   
     39. A(C   0,C   4,H  18)          127.0110         0.349400   
     40. A(C   0,C   4,C   3)          106.7754         0.430294   
     41. A(C   3,P   5,C   6)          102.9608         0.427793   
     42. A(C   3,P   5,C  11)          102.9608         0.427794   
     43. A(C   6,P   5,C  11)          102.9608         0.427793   
     44. A(C   7,C   6,O  10)          109.3113         0.433349   
     45. A(P   5,C   6,O  10)          124.8292         0.427040   
     46. A(P   5,C   6,C   7)          125.8027         0.434117   
     47. A(C   6,C   7,H  19)          126.2094         0.357232   
     48. A(C   6,C   7,C   8)          106.7755         0.430294   
     49. A(C   8,C   7,H  19)          127.0109         0.349400   
     50. A(C   7,C   8,C   9)          106.0281         0.432379   
     51. A(C   9,C   8,H  20)          126.3285         0.359108   
     52. A(C   7,C   8,H  20)          127.6434         0.349630   
     53. A(C   8,C   9,O  10)          110.4507         0.438120   
     54. A(O  10,C   9,H  21)          115.6024         0.353917   
     55. A(C   8,C   9,H  21)          133.9467         0.359036   
     56. A(C   6,O  10,C   9)          107.4165         0.428884   
     57. A(C  12,C  11,O  15)          109.3113         0.433350   
     58. A(P   5,C  11,O  15)          124.8292         0.427040   
     59. A(P   5,C  11,C  12)          125.8026         0.434117   
     60. A(C  11,C  12,C  13)          106.7754         0.430294   
     61. A(C  13,C  12,H  22)          127.0110         0.349400   
     62. A(C  11,C  12,H  22)          126.2094         0.357232   
     63. A(C  12,C  13,C  14)          106.0282         0.432379   
     64. A(C  14,C  13,H  23)          126.3284         0.359108   
     65. A(C  12,C  13,H  23)          127.6434         0.349630   
     66. A(C  13,C  14,O  15)          110.4507         0.438120   
     67. A(O  15,C  14,H  24)          115.6024         0.353917   
     68. A(C  13,C  14,H  24)          133.9467         0.359036   
     69. A(C  11,O  15,C  14)          107.4165         0.428884   
     70. D(O   2,C   1,C   0,H  16)   -179.8763         0.030761   
     71. D(H  17,C   1,C   0,C   4)   -179.9960         0.030761   
     72. D(H  17,C   1,C   0,H  16)     -0.0061         0.030761   
     73. D(O   2,C   1,C   0,C   4)      0.1338         0.030761   
     74. D(C   3,O   2,C   1,H  17)    179.1857         0.029443   
     75. D(C   3,O   2,C   1,C   0)     -0.9179         0.029443   
     76. D(P   5,C   3,O   2,C   1)    178.7477         0.027377   
     77. D(C   4,C   3,O   2,C   1)      1.3600         0.027377   
     78. D(H  18,C   4,C   3,O   2)    179.4269         0.029038   
     79. D(C   0,C   4,C   3,P   5)   -178.6287         0.029038   
     80. D(H  18,C   4,C   0,H  16)     -0.0052         0.022026   
     81. D(C   0,C   4,C   3,O   2)     -1.2726         0.029038   
     82. D(H  18,C   4,C   0,C   1)    179.9845         0.022026   
     83. D(C   3,C   4,C   0,C   1)      0.6913         0.022026   
     84. D(C   3,C   4,C   0,H  16)   -179.2984         0.022026   
     85. D(H  18,C   4,C   3,P   5)      2.0709         0.029038   
     86. D(C  11,P   5,C   3,C   4)   -162.6682         0.003642   
     87. D(C  11,P   5,C   3,O   2)     20.3719         0.003642   
     88. D(C   6,P   5,C   3,C   4)    -55.8622         0.003642   
     89. D(C   6,P   5,C   3,O   2)    127.1779         0.003642   
     90. D(O  10,C   6,P   5,C  11)    127.1780         0.003642   
     91. D(O  10,C   6,P   5,C   3)     20.3720         0.003642   
     92. D(C   7,C   6,P   5,C  11)    -55.8622         0.003642   
     93. D(C   7,C   6,P   5,C   3)   -162.6682         0.003642   
     94. D(H  19,C   7,C   6,O  10)    179.4270         0.029038   
     95. D(H  19,C   7,C   6,P   5)      2.0710         0.029038   
     96. D(C   8,C   7,C   6,O  10)     -1.2727         0.029038   
     97. D(C   8,C   7,C   6,P   5)   -178.6287         0.029038   
     98. D(H  20,C   8,C   7,C   6)   -179.2984         0.022026   
     99. D(C   9,C   8,C   7,H  19)    179.9843         0.022026   
    100. D(C   9,C   8,C   7,C   6)      0.6913         0.022026   
    101. D(H  20,C   8,C   7,H  19)     -0.0054         0.022026   
    102. D(H  21,C   9,C   8,H  20)     -0.0060         0.030761   
    103. D(H  21,C   9,C   8,C   7)   -179.9959         0.030761   
    104. D(O  10,C   9,C   8,H  20)   -179.8762         0.030761   
    105. D(O  10,C   9,C   8,C   7)      0.1339         0.030761   
    106. D(C   6,O  10,C   9,H  21)    179.1855         0.029442   
    107. D(C   6,O  10,C   9,C   8)     -0.9181         0.029442   
    108. D(C   9,O  10,C   6,C   7)      1.3602         0.027377   
    109. D(C   9,O  10,C   6,P   5)    178.7478         0.027377   
    110. D(O  15,C  11,P   5,C   6)     20.3719         0.003642   
    111. D(O  15,C  11,P   5,C   3)    127.1779         0.003642   
    112. D(C  12,C  11,P   5,C   6)   -162.6684         0.003642   
    113. D(C  12,C  11,P   5,C   3)    -55.8624         0.003642   
    114. D(H  22,C  12,C  11,O  15)    179.4268         0.029038   
    115. D(H  22,C  12,C  11,P   5)      2.0710         0.029038   
    116. D(C  13,C  12,C  11,O  15)     -1.2729         0.029038   
    117. D(C  13,C  12,C  11,P   5)   -178.6287         0.029038   
    118. D(H  23,C  13,C  12,H  22)     -0.0054         0.022026   
    119. D(H  23,C  13,C  12,C  11)   -179.2984         0.022026   
    120. D(C  14,C  13,C  12,H  22)    179.9844         0.022026   
    121. D(C  14,C  13,C  12,C  11)      0.6914         0.022026   
    122. D(H  24,C  14,C  13,H  23)     -0.0063         0.030761   
    123. D(H  24,C  14,C  13,C  12)   -179.9963         0.030761   
    124. D(O  15,C  14,C  13,H  23)   -179.8761         0.030761   
    125. D(O  15,C  14,C  13,C  12)      0.1339         0.030761   
    126. D(C  11,O  15,C  14,H  24)    179.1857         0.029442   
    127. D(C  11,O  15,C  14,C  13)     -0.9182         0.029442   
    128. D(C  14,O  15,C  11,C  12)      1.3604         0.027377   
    129. D(C  14,O  15,C  11,P   5)    178.7479         0.027377   
    -----------------------------------------------------------------

Number of atoms                         .... 25
Number of degrees of freedom            .... 129


         *************************************************************
         *                GEOMETRY OPTIMIZATION CYCLE   1            *
         *************************************************************
---------------------------------
CARTESIAN COORDINATES (ANGSTROEM)
---------------------------------
  C     -2.022785   -3.131530    0.450272
  C     -2.577902   -2.139038    1.220651
  O     -2.151621   -0.920613    0.803259
  C     -1.292239   -1.123078   -0.238889
  C     -1.200504   -2.476163   -0.498883
  P     -0.461086    0.207899   -1.182809
  C      1.304306   -0.271761   -1.101444
  C      2.378981    0.555500   -1.361374
  C      3.546824   -0.231993   -1.211236
  C      3.113879   -1.493994   -0.884748
  O      1.758896   -1.530477   -0.828340
  C     -0.551128    1.637896   -0.042501
  C     -1.704095    2.157662    0.511900
  C     -1.314272    3.268942    1.299072
  C      0.049028    3.369255    1.164798
  O      0.517618    2.394774    0.345468
  H     -2.188672   -4.193883    0.557983
  H     -3.260715   -2.133182    2.058589
  H     -0.603195   -2.939074   -1.272796
  H      2.330000    1.605274   -1.617467
  H      4.574207    0.082441   -1.326692
  H      3.615480   -2.427945   -0.673706
  H     -2.706924    1.775733    0.375987
  H     -1.948595    3.914433    1.889572
  H      0.794513    4.042924    1.563334

----------------------------
CARTESIAN COORDINATES (A.U.)
----------------------------
  NO LB      ZA    FRAG     MASS         X           Y           Z
   0 C     6.0000    0    12.011   -3.822510   -5.917734    0.850891
   1 C     6.0000    0    12.011   -4.871529   -4.042196    2.306696
   2 O     8.0000    0    15.999   -4.065974   -1.739706    1.517940
   3 C     6.0000    0    12.011   -2.441978   -2.122310   -0.451435
   4 C     6.0000    0    12.011   -2.268624   -4.679270   -0.942752
   5 P    15.0000    0    30.974   -0.871326    0.392872   -2.235185
   6 C     6.0000    0    12.011    2.464781   -0.513554   -2.081428
   7 C     6.0000    0    12.011    4.495623    1.049743   -2.572624
   8 C     6.0000    0    12.011    6.702526   -0.438403   -2.288904
   9 C     6.0000    0    12.011    5.884379   -2.823240   -1.671931
  10 O     8.0000    0    15.999    3.323832   -2.892182   -1.565336
  11 C     6.0000    0    12.011   -1.041481    3.095175   -0.080315
  12 C     6.0000    0    12.011   -3.220273    4.077390    0.967351
  13 C     6.0000    0    12.011   -2.483614    6.177405    2.454890
  14 C     6.0000    0    12.011    0.092649    6.366969    2.201149
  15 O     8.0000    0    15.999    0.978156    4.525467    0.652840
  16 H     1.0000    0     1.008   -4.135991   -7.925290    1.054435
  17 H     1.0000    0     1.008   -6.161858   -4.031130    3.890169
  18 H     1.0000    0     1.008   -1.139873   -5.554045   -2.405236
  19 H     1.0000    0     1.008    4.403062    3.033528   -3.056570
  20 H     1.0000    0     1.008    8.643999    0.155791   -2.507085
  21 H     1.0000    0     1.008    6.832267   -4.588151   -1.273120
  22 H     1.0000    0     1.008   -5.115345    3.355649    0.710512
  23 H     1.0000    0     1.008   -3.682311    7.397206    3.570774
  24 H     1.0000    0     1.008    1.501412    7.640019    2.954273

--------------------------------
INTERNAL COORDINATES (ANGSTROEM)
--------------------------------
 C      0   0   0     0.000000000000     0.00000000     0.00000000
 C      1   0   0     1.373564362305     0.00000000     0.00000000
 O      2   1   0     1.356646989180   110.45077126     0.00000000
 C      3   2   1     1.365870400899   107.41653497   359.08207434
 C      4   3   2     1.380887833057   109.31133734     1.36001370
 P      4   3   2     1.831201804919   124.82918997   178.74771288
 C      6   4   3     1.831202580953   102.96078733   127.17788590
 C      7   6   4     1.380887657504   125.80267382   197.33181950
 C      8   7   6     1.416525296894   106.77551939   181.37132471
 C      9   8   7     1.373565546732   106.02813892     0.69130501
 O     10   9   8     1.356647265151   110.45074944     0.13392011
 C      6   4   3     1.831202150675   102.96083484    20.37191890
 C     12   6   4     1.380887419975   125.80262747   304.13759275
 C     13  12   6     1.416525667721   106.77543801   181.37127210
 C     14  13  12     1.373564376010   106.02819068     0.69140566
 O     15  14  13     1.356647137748   110.45074072     0.13392545
 H      1   2   3     1.080608186578   126.32853505   180.12367951
 H      2   1   3     1.080929219491   133.94668492   179.87017646
 H      5   4   3     1.081668140869   126.20947648   179.42692881
 H      8   7   6     1.081669179595   126.20943574     2.07098706
 H      9   8   7     1.080608466088   127.64339699   180.70161507
 H     10   9   8     1.080928656002   133.94672803   180.00409130
 H     13  12   6     1.081669130488   126.20944703     2.07095522
 H     14  13  12     1.080608416315   127.64336248   180.70160667
 H     15  14  13     1.080929576837   133.94674438   180.00371442

---------------------------
INTERNAL COORDINATES (A.U.)
---------------------------
 C      0   0   0     0.000000000000     0.00000000     0.00000000
 C      1   0   0     2.595660472070     0.00000000     0.00000000
 O      2   1   0     2.563691269958   110.45077126     0.00000000
 C      3   2   1     2.581120992129   107.41653497   359.08207434
 C      4   3   2     2.609499826142   109.31133734     1.36001370
 P      4   3   2     3.460469907239   124.82918997   178.74771288
 C      6   4   3     3.460471373731   102.96078733   127.17788590
 C      7   6   4     2.609499494394   125.80267382   197.33181950
 C      8   7   6     2.676844872902   106.77551939   181.37132471
 C      9   8   7     2.595662710314   106.02813892     0.69130501
 O     10   9   8     2.563691791469   110.45074944     0.13392011
 C      6   4   3     3.460470560623   102.96083484    20.37191890
 C     12   6   4     2.609499045530   125.80262747   304.13759275
 C     13  12   6     2.676845573663   106.77543801   181.37127210
 C     14  13  12     2.595660497970   106.02819068     0.69140566
 O     15  14  13     2.563691550713   110.45074072     0.13392545
 H      1   2   3     2.042053530705   126.32853505   180.12367951
 H      2   1   3     2.042660194991   133.94668492   179.87017646
 H      5   4   3     2.044056554030   126.20947648   179.42692881
 H      8   7   6     2.044058516938   126.20943574     2.07098706
 H      9   8   7     2.042054058903   127.64339699   180.70161507
 H     10   9   8     2.042659130151   133.94672803   180.00409130
 H     13  12   6     2.044058424139   126.20944703     2.07095522
 H     14  13  12     2.042053964845   127.64336248   180.70160667
 H     15  14  13     2.042660870278   133.94674438   180.00371442

---------------------
BASIS SET INFORMATION
---------------------
There are 4 groups of distinct atoms

 Group   1 Type C   : 7s4p1d contracted to 3s2p1d pattern {511/31/1}
 Group   2 Type O   : 7s4p1d contracted to 3s2p1d pattern {511/31/1}
 Group   3 Type P   : 10s7p1d contracted to 4s3p1d pattern {5311/511/1}
 Group   4 Type H   : 4s1p contracted to 2s1p pattern {31/1}

Atom   0C    basis set group =>   1
Atom   1C    basis set group =>   1
Atom   2O    basis set group =>   2
Atom   3C    basis set group =>   1
Atom   4C    basis set group =>   1
Atom   5P    basis set group =>   3
Atom   6C    basis set group =>   1
Atom   7C    basis set group =>   1
Atom   8C    basis set group =>   1
Atom   9C    basis set group =>   1
Atom  10O    basis set group =>   2
Atom  11C    basis set group =>   1
Atom  12C    basis set group =>   1
Atom  13C    basis set group =>   1
Atom  14C    basis set group =>   1
Atom  15O    basis set group =>   2
Atom  16H    basis set group =>   4
Atom  17H    basis set group =>   4
Atom  18H    basis set group =>   4
Atom  19H    basis set group =>   4
Atom  20H    basis set group =>   4
Atom  21H    basis set group =>   4
Atom  22H    basis set group =>   4
Atom  23H    basis set group =>   4
Atom  24H    basis set group =>   4
---------------------------------
AUXILIARY/J BASIS SET INFORMATION
---------------------------------
There are 4 groups of distinct atoms

 Group   1 Type C   : 12s5p4d2f1g contracted to 6s4p3d1f1g pattern {711111/2111/211/2/1}
 Group   2 Type O   : 12s5p4d2f1g contracted to 6s4p3d1f1g pattern {711111/2111/211/2/1}
 Group   3 Type P   : 14s5p5d2f1g contracted to 8s4p3d1f1g pattern {71111111/2111/311/2/1}
 Group   4 Type H   : 5s2p1d contracted to 3s1p1d pattern {311/2/1}

Atom   0C    basis set group =>   1
Atom   1C    basis set group =>   1
Atom   2O    basis set group =>   2
Atom   3C    basis set group =>   1
Atom   4C    basis set group =>   1
Atom   5P    basis set group =>   3
Atom   6C    basis set group =>   1
Atom   7C    basis set group =>   1
Atom   8C    basis set group =>   1
Atom   9C    basis set group =>   1
Atom  10O    basis set group =>   2
Atom  11C    basis set group =>   1
Atom  12C    basis set group =>   1
Atom  13C    basis set group =>   1
Atom  14C    basis set group =>   1
Atom  15O    basis set group =>   2
Atom  16H    basis set group =>   4
Atom  17H    basis set group =>   4
Atom  18H    basis set group =>   4
Atom  19H    basis set group =>   4
Atom  20H    basis set group =>   4
Atom  21H    basis set group =>   4
Atom  22H    basis set group =>   4
Atom  23H    basis set group =>   4
Atom  24H    basis set group =>   4


           ************************************************************
           *        Program running with 6 parallel MPI-processes     *
           *              working on a common directory               *
           ************************************************************
------------------------------------------------------------------------------
                             ORCA STARTUP CALCULATIONS
                           -- RI-GTO INTEGRALS CHOSEN --
------------------------------------------------------------------------------
------------------------------------------------------------------------------
                   ___                                                        
                  /   \      - P O W E R E D   B Y -                         
                 /     \                                                     
                 |  |  |   _    _      __       _____    __    __             
                 |  |  |  | |  | |    /  \     |  _  \  |  |  /  |          
                  \  \/   | |  | |   /    \    | | | |  |  | /  /          
                 / \  \   | |__| |  /  /\  \   | |_| |  |  |/  /          
                |  |  |   |  __  | /  /__\  \  |    /   |      \           
                |  |  |   | |  | | |   __   |  |    \   |  |\   \          
                \     /   | |  | | |  |  |  |  | |\  \  |  | \   \       
                 \___/    |_|  |_| |__|  |__|  |_| \__\ |__|  \__/        
                                                                              
                      - O R C A' S   B I G   F R I E N D -                    
                                      &                                       
                       - I N T E G R A L  F E E D E R -                       
                                                                              
 v1 FN, 2020, v2 2021, v3 2022-2024                                           
------------------------------------------------------------------------------


----------------------
SHARK INTEGRAL PACKAGE
----------------------

Number of atoms                             ...     25
Number of basis functions                   ...    273
Number of shells                            ...    125
Maximum angular momentum                    ...      2
Integral batch strategy                     ... SHARK/LIBINT Hybrid
RI-J (if used) integral strategy            ... SPLIT-RIJ (Revised 2003 algorithm where possible)
Printlevel                                  ...      1
Contraction scheme used                     ... SEGMENTED contraction
Prescreening option                         ... SCHWARTZ
   Thresh                                   ... 2.500e-11
   Tcut                                     ... 2.500e-12
   Tpresel                                  ... 2.500e-12 
Coulomb Range Separation                    ... NOT USED
Exchange Range Separation                   ... NOT USED
Multipole approximations                    ... NOT USED
Finite Nucleus Model                        ... NOT USED
CABS basis                                  ... NOT available
Auxiliary Coulomb fitting basis             ... AVAILABLE
   # of basis functions in Aux-J            ...    885
   # of shells in Aux-J                     ...    287
   Maximum angular momentum in Aux-J        ...      4
Auxiliary J/K fitting basis                 ... NOT available
Auxiliary Correlation fitting basis         ... NOT available
Auxiliary 'external' fitting basis          ... NOT available

Checking pre-screening integrals            ... done (  0.0 sec) Dimension = 125
Check shell pair data                       ... done (  0.0 sec)
Shell pair information
Shell pair cut-off parameter TPreSel        ...   2.5e-12
Total number of shell pairs                 ...      7875
Shell pairs after pre-screening             ...      6336
Total number of primitive shell pairs       ...     29891
Primitive shell pairs kept                  ...     15793
          la=0 lb=0:   1843 shell pairs
          la=1 lb=0:   2314 shell pairs
          la=1 lb=1:    769 shell pairs
          la=2 lb=0:    799 shell pairs
          la=2 lb=1:    517 shell pairs
          la=2 lb=2:     94 shell pairs

Calculating one electron integrals          ... done (  0.0 sec)
Calculating RI/J V-Matrix + Cholesky decomp.... done (  0.0 sec)
Calculating Nuclear repulsion               ... done (  0.0 sec) ENN=   1151.659586735915 Eh

Diagonalization of the overlap matrix:
Smallest eigenvalue                        ... 7.094e-04
Time for diagonalization                   ...    0.008 sec
Threshold for overlap eigenvalues          ... 1.000e-07
Number of eigenvalues below threshold      ... 0
Time for construction of square roots      ...    0.007 sec
Total time needed                          ...    0.016 sec

-------------------
DFT GRID GENERATION
-------------------

General Integration Accuracy     IntAcc      ... 4.388
Radial Grid Type                 RadialGrid  ... OptM3 with GC (2021)
Angular Grid (max. ang.)         AngularGrid ... 4 (Lebedev-302)
Angular grid pruning method      GridPruning ... 4 (adaptive)
Weight generation scheme         WeightScheme... mBecke (2022)
Basis function cutoff            BFCut       ... 1.0000e-11
Integration weight cutoff        WCut        ... 1.0000e-14
Partially contracted basis set               ... off
Rotationally invariant grid construction     ... off
Angular grids for H and He will be reduced by one unit

Total number of grid points                  ...   126415
Total number of batches                      ...     1988
Average number of points per batch           ...       63
Average number of grid points per atom       ...     5057
Initializing property integral containers    ... done (  0.0 sec)

SHARK setup successfully completed in   0.9 seconds

Maximum memory used throughout the entire STARTUP-calculation: 33.9 MB


           ************************************************************
           *        Program running with 6 parallel MPI-processes     *
           *              working on a common directory               *
           ************************************************************
-------------------------------------------------------------------------------
                                 ORCA GUESS
                   Start orbitals & Density for SCF / CASSCF
-------------------------------------------------------------------------------

------------
SCF SETTINGS
------------
Hamiltonian:
 Density Functional     Method          .... DFT(GTOs)
 Exchange Functional    Exchange        .... B88
   X-Alpha parameter    XAlpha          ....  0.666667
   Becke's b parameter  XBeta           ....  0.004200
 Correlation Functional Correlation     .... P86
 LDA part of GGA corr.  LDAOpt          .... PW91-LDA
 Gradients option       PostSCFGGA      .... off
   NL short-range parameter             ....  4.400000
 RI-approximation to the Coulomb term is turned on
   Number of AuxJ basis functions       .... 885


General Settings:
 Integral files         IntName         .... data/geom_opt_P_BP86/521585/521585
 Hartree-Fock type      HFTyp           .... RHF
 Total Charge           Charge          ....    0
 Multiplicity           Mult            ....    1
 Number of Electrons    NEL             ....  120
 Basis Dimension        Dim             ....  273
 Nuclear Repulsion      ENuc            ....   1151.6595867359 Eh

Convergence Acceleration:
 AO-DIIS                CNVDIIS         .... on
   Start iteration      DIISMaxIt       ....    12
   Startup error        DIISStart       ....  0.200000
   # of expansion vecs  DIISMaxEq       ....     5
   Bias factor          DIISBfac        ....   1.050
   Max. coefficient     DIISMaxC        ....  10.000
 MO-DIIS                CNVKDIIS        .... off
 Trust-Rad. Augm. Hess. CNVTRAH         .... auto
   Auto Start mean grad. ratio tolernc. ....  1.125000
   Auto Start start iteration           ....    50
   Auto Start num. interpolation iter.  ....    10
   Max. Number of Micro iterations      ....    24
   Max. Number of Macro iterations      .... Maxiter - #DIIS iter
   Number of Davidson start vectors     ....     2
   Converg. threshold    (grad. norm)   ....   1.000e-05
   Grad. Scal. Fac. for Micro threshold ....   0.100
   Minimum threshold for Micro iter.    ....   1.000e-02
   NR start threshold (gradient norm)   ....   1.000e-04
   Initial trust radius                 ....   0.400
   Minimum AH scaling param. (alpha)    ....   1.000
   Maximum AH scaling param. (alpha)    .... 1000.000
   Quad. conv. algorithm                .... NR
   White noise on init. David. guess    .... on
   Maximum white noise                  ....   0.010
   Pseudo random numbers                .... off
   Inactive MOs                         .... canonical
   Orbital update algorithm             .... Taylor
   Preconditioner                       .... Diag
   Full preconditioner red. dimension   ....   250
 SOSCF                  CNVSOSCF        .... on
   Start iteration      SOSCFMaxIt      ....   150
   Startup grad/error   SOSCFStart      ....  0.003300
   Hessian update       SOSCFHessUp     .... L-BFGS
 Level Shifting         CNVShift        .... on
   Level shift para.    LevelShift      ....    0.2500
   Turn off err/grad.   ShiftErr        ....    0.0010
 Zerner damping         CNVZerner       .... off
 Static damping         CNVDamp         .... on
   Fraction old density DampFac         ....    0.7000
   Max. Damping (<1)    DampMax         ....    0.9800
   Min. Damping (>=0)   DampMin         ....    0.0000
   Turn off err/grad.   DampErr         ....    0.1000

SCF Procedure:
 Maximum # iterations   MaxIter         ....   125
 SCF integral mode      SCFMode         .... Direct
   Integral package                     .... SHARK and LIBINT hybrid scheme
 Reset frequency        DirectResetFreq ....    20
 Integral Threshold     Thresh          ....  2.500e-11 Eh
 Primitive CutOff       TCut            ....  2.500e-12 Eh

Convergence Tolerance:
 Convergence Check Mode ConvCheckMode   .... Total+1el-Energy
 Convergence forced     ConvForced      .... 0
 Energy Change          TolE            ....  1.000e-08 Eh
 1-El. energy change                    ....  1.000e-05 Eh
 Orbital Gradient       TolG            ....  1.000e-05
 Orbital Rotation angle TolX            ....  1.000e-05
 DIIS Error             TolErr          ....  5.000e-07

------------------------------
INITIAL GUESS: MODEL POTENTIAL
------------------------------
Loading Hartree-Fock densities                     ... done
Calculating cut-offs                               ... done
Initializing the effective Hamiltonian             ... done
Setting up the integral package (SHARK)            ... done
Starting the Coulomb interaction                   ... done (   0.1 sec)
Making the grid                                    ... done (   0.2 sec)
Mapping shells                                     ... done
Starting the XC term evaluation                    ... done (   0.1 sec)
  promolecular density results
     # of electrons  =    119.995375978
     EX              =   -111.640231370
     EC              =     -4.526587117
     EX+EC           =   -116.166818487
Transforming the Hamiltonian                       ... done (   0.0 sec)
Diagonalizing the Hamiltonian                      ... done (   0.0 sec)
Back transforming the eigenvectors                 ... done (   0.0 sec)
Now organizing SCF variables                       ... done
                      ------------------
                      INITIAL GUESS DONE (   0.4 sec)
                      ------------------
             **** ENERGY FILE WAS UPDATED (data/geom_opt_P_BP86/521585/521585.en.tmp) ****
Finished Guess after   0.5 sec
Maximum memory used throughout the entire GUESS-calculation: 18.7 MB


           ************************************************************
           *        Program running with 6 parallel MPI-processes     *
           *              working on a common directory               *
           ************************************************************

-------------------------------------------------------------------------------------------
                                      ORCA LEAN-SCF
                              memory conserving SCF solver
-------------------------------------------------------------------------------------------

----------------------------------------D-I-I-S--------------------------------------------
Iteration    Energy (Eh)           Delta-E    RMSDP     MaxDP     DIISErr   Damp  Time(sec)
-------------------------------------------------------------------------------------------
               ***  Starting incremental Fock matrix formation  ***
    1    -1028.8044311705343716     0.00e+00  2.32e-03  6.49e-02  1.25e-01  0.700   0.5
    2    -1028.9370929066440112    -1.33e-01  1.62e-03  5.44e-02  5.69e-02  0.700   0.5
                               ***Turning on AO-DIIS***
    3    -1028.9795725812900855    -4.25e-02  7.79e-04  4.85e-02  1.86e-02  0.700   0.5
    4    -1029.0057242778743785    -2.62e-02  1.44e-03  1.02e-01  9.95e-03  0.000   0.5
    5    -1029.0664228362606991    -6.07e-02  3.20e-04  2.03e-02  5.64e-03  0.000   0.5
                              *** Initializing SOSCF ***
---------------------------------------S-O-S-C-F--------------------------------------
Iteration    Energy (Eh)           Delta-E    RMSDP     MaxDP     MaxGrad    Time(sec)
--------------------------------------------------------------------------------------
    6    -1029.0672200079852701    -7.97e-04  1.35e-04  1.03e-02  1.75e-03     0.5
               *** Restarting incremental Fock matrix formation ***
    7    -1029.0672857083854979    -6.57e-05  1.37e-04  1.09e-02  7.39e-04     0.5
    8    -1029.0672476876970904     3.80e-05  6.72e-05  2.00e-03  1.43e-03     0.4
    9    -1029.0672996208163568    -5.19e-05  3.69e-05  2.45e-03  1.15e-04     0.4
   10    -1029.0672977701187847     1.85e-06  1.60e-05  5.61e-04  2.37e-04     0.4
   11    -1029.0673005543017098    -2.78e-06  1.74e-05  1.24e-03  8.24e-05     0.4
   12    -1029.0673002762637225     2.78e-07  8.80e-06  5.08e-04  1.08e-04     0.5
   13    -1029.0673008241046773    -5.48e-07  6.40e-06  4.40e-04  2.55e-05     0.4
   14    -1029.0673007678510658     5.63e-08  4.12e-06  2.81e-04  2.86e-05     0.4
   15    -1029.0673008584521995    -9.06e-08  3.38e-07  1.33e-05  1.41e-06     0.8
                  *** Gradient check signals convergence ***

               *****************************************************
               *                     SUCCESS                       *
               *           SCF CONVERGED AFTER  15 CYCLES          *
               *****************************************************

             **** ENERGY FILE WAS UPDATED (data/geom_opt_P_BP86/521585/521585.en.tmp) ****

----------------
TOTAL SCF ENERGY
----------------

Total Energy       :      -1029.06730085845220 Eh          -28002.34487 eV

Components:
Nuclear Repulsion  :       1151.65958673591467 Eh           31338.25056 eV
Electronic Energy  :      -2180.72688759436642 Eh          -59340.59543 eV
One Electron Energy:      -3694.50798724470542 Eh         -100532.67332 eV
Two Electron Energy:       1513.78109965033877 Eh           41192.07789 eV

Virial components:
Potential Energy   :      -2050.30655118410732 Eh          -55791.67765 eV
Kinetic Energy     :       1021.23925032565501 Eh           27789.33278 eV
Virial Ratio       :          2.00766524644475

DFT components:
N(Alpha)           :       60.000005423340 electrons
N(Beta)            :       60.000005423340 electrons
N(Total)           :      120.000010846679 electrons
E(X)               :     -112.871374001074 Eh       
E(C)               :       -4.533059169541 Eh       
E(XC)              :     -117.404433170615 Eh       

---------------
SCF CONVERGENCE
---------------

  Last Energy change         ...    9.0601e-08  Tolerance :   1.0000e-08
  Last MAX-Density change    ...    1.3272e-05  Tolerance :   1.0000e-07
  Last RMS-Density change    ...    3.3786e-07  Tolerance :   5.0000e-09
  Last DIIS Error            ...    1.7542e-03  Tolerance :   5.0000e-07
  Last Orbital Gradient      ...    1.4091e-06  Tolerance :   1.0000e-05
  Last Orbital Rotation      ...    1.1463e-05  Tolerance :   1.0000e-05


----------------
ORBITAL ENERGIES
----------------

  NO   OCC          E(Eh)            E(eV) 
   0   2.0000     -76.372045     -2078.1890 
   1   2.0000     -18.853133      -513.0198 
   2   2.0000     -18.853130      -513.0197 
   3   2.0000     -18.853111      -513.0192 
   4   2.0000      -9.966396      -271.1994 
   5   2.0000      -9.966393      -271.1993 
   6   2.0000      -9.966351      -271.1982 
   7   2.0000      -9.962111      -271.0828 
   8   2.0000      -9.962108      -271.0827 
   9   2.0000      -9.962106      -271.0827 
  10   2.0000      -9.915373      -269.8110 
  11   2.0000      -9.915372      -269.8110 
  12   2.0000      -9.915371      -269.8110 
  13   2.0000      -9.914239      -269.7802 
  14   2.0000      -9.914227      -269.7798 
  15   2.0000      -9.914226      -269.7798 
  16   2.0000      -6.340707      -172.5394 
  17   2.0000      -4.562365      -124.1483 
  18   2.0000      -4.562363      -124.1482 
  19   2.0000      -4.557997      -124.0294 
  20   2.0000      -1.022588       -27.8260 
  21   2.0000      -1.021452       -27.7951 
  22   2.0000      -1.021449       -27.7951 
  23   2.0000      -0.726471       -19.7683 
  24   2.0000      -0.725370       -19.7383 
  25   2.0000      -0.725368       -19.7383 
  26   2.0000      -0.707964       -19.2647 
  27   2.0000      -0.672774       -18.3071 
  28   2.0000      -0.672772       -18.3070 
  29   2.0000      -0.594085       -16.1659 
  30   2.0000      -0.549982       -14.9658 
  31   2.0000      -0.549980       -14.9657 
  32   2.0000      -0.540740       -14.7143 
  33   2.0000      -0.504361       -13.7244 
  34   2.0000      -0.504360       -13.7243 
  35   2.0000      -0.496864       -13.5204 
  36   2.0000      -0.482688       -13.1346 
  37   2.0000      -0.482687       -13.1346 
  38   2.0000      -0.447132       -12.1671 
  39   2.0000      -0.416339       -11.3292 
  40   2.0000      -0.409758       -11.1501 
  41   2.0000      -0.409757       -11.1501 
  42   2.0000      -0.397762       -10.8237 
  43   2.0000      -0.397761       -10.8236 
  44   2.0000      -0.371796       -10.1171 
  45   2.0000      -0.363716        -9.8972 
  46   2.0000      -0.363715        -9.8972 
  47   2.0000      -0.357433        -9.7263 
  48   2.0000      -0.349783        -9.5181 
  49   2.0000      -0.349781        -9.5180 
  50   2.0000      -0.333978        -9.0880 
  51   2.0000      -0.319053        -8.6819 
  52   2.0000      -0.319052        -8.6819 
  53   2.0000      -0.275390        -7.4937 
  54   2.0000      -0.255453        -6.9512 
  55   2.0000      -0.255452        -6.9512 
  56   2.0000      -0.251853        -6.8533 
  57   2.0000      -0.208491        -5.6733 
  58   2.0000      -0.208490        -5.6733 
  59   2.0000      -0.175817        -4.7842 
  60   0.0000      -0.038769        -1.0549 
  61   0.0000      -0.038768        -1.0549 
  62   0.0000      -0.033633        -0.9152 
  63   0.0000      -0.002187        -0.0595 
  64   0.0000      -0.002182        -0.0594 
  65   0.0000       0.019422         0.5285 
  66   0.0000       0.031696         0.8625 
  67   0.0000       0.031697         0.8625 
  68   0.0000       0.062051         1.6885 
  69   0.0000       0.072772         1.9802 
  70   0.0000       0.072774         1.9803 
*Only the first 10 virtual orbitals were printed.

                    ********************************
                    * MULLIKEN POPULATION ANALYSIS *
                    ********************************

-----------------------
MULLIKEN ATOMIC CHARGES
-----------------------
   0 C :   -0.022499
   1 C :    0.094486
   2 O :   -0.166898
   3 C :   -0.007823
   4 C :   -0.037475
   5 P :    0.297895
   6 C :   -0.007751
   7 C :   -0.037534
   8 C :   -0.022510
   9 C :    0.094514
  10 O :   -0.166912
  11 C :   -0.007767
  12 C :   -0.037544
  13 C :   -0.022468
  14 C :    0.094478
  15 O :   -0.166906
  16 H :    0.008566
  17 H :    0.023016
  18 H :    0.009329
  19 H :    0.009337
  20 H :    0.008549
  21 H :    0.023027
  22 H :    0.009325
  23 H :    0.008544
  24 H :    0.023019
Sum of atomic charges:   -0.0000000

--------------------------------
MULLIKEN REDUCED ORBITAL CHARGES
--------------------------------
  0 C s       :     3.189614  s :     3.189614
      pz      :     0.978506  p :     2.800443
      px      :     1.004695
      py      :     0.817242
      dz2     :     0.007169  d :     0.032442
      dxz     :     0.003746
      dyz     :     0.008075
      dx2y2   :     0.006699
      dxy     :     0.006754

  1 C s       :     3.165788  s :     3.165788
      pz      :     0.936580  p :     2.679600
      px      :     0.978194
      py      :     0.764825
      dz2     :     0.009046  d :     0.060126
      dxz     :     0.006673
      dyz     :     0.015330
      dx2y2   :     0.014115
      dxy     :     0.014961

  2 O s       :     3.735006  s :     3.735006
      pz      :     1.430210  p :     4.411598
      px      :     1.483259
      py      :     1.498129
      dz2     :     0.004608  d :     0.020294
      dxz     :     0.003017
      dyz     :     0.004049
      dx2y2   :     0.004836
      dxy     :     0.003784

  3 C s       :     3.092550  s :     3.092550
      pz      :     0.889156  p :     2.854138
      px      :     0.984848
      py      :     0.980133
      dz2     :     0.013164  d :     0.061136
      dxz     :     0.013001
      dyz     :     0.013387
      dx2y2   :     0.010512
      dxy     :     0.011072

  4 C s       :     3.214766  s :     3.214766
      pz      :     0.918632  p :     2.790482
      px      :     0.960427
      py      :     0.911423
      dz2     :     0.005843  d :     0.032228
      dxz     :     0.005063
      dyz     :     0.007415
      dx2y2   :     0.007079
      dxy     :     0.006829

  5 P s       :     5.676168  s :     5.676168
      pz      :     3.253212  p :     8.848110
      px      :     2.827832
      py      :     2.767065
      dz2     :     0.027772  d :     0.177828
      dxz     :     0.025759
      dyz     :     0.051420
      dx2y2   :     0.042450
      dxy     :     0.030426

  6 C s       :     3.092569  s :     3.092569
      pz      :     1.080837  p :     2.854047
      px      :     0.960120
      py      :     0.813090
      dz2     :     0.006125  d :     0.061135
      dxz     :     0.007026
      dyz     :     0.011671
      dx2y2   :     0.019769
      dxy     :     0.016543

  7 C s       :     3.214786  s :     3.214786
      pz      :     1.033448  p :     2.790520
      px      :     0.910966
      py      :     0.846105
      dz2     :     0.002777  d :     0.032228
      dxz     :     0.006813
      dyz     :     0.003729
      dx2y2   :     0.008562
      dxy     :     0.010347

  8 C s       :     3.189625  s :     3.189625
      pz      :     1.046584  p :     2.800443
      px      :     0.829571
      py      :     0.924289
      dz2     :     0.003261  d :     0.032442
      dxz     :     0.004090
      dyz     :     0.006015
      dx2y2   :     0.010762
      dxy     :     0.008314

  9 C s       :     3.165756  s :     3.165756
      pz      :     1.072950  p :     2.679603
      px      :     0.720689
      py      :     0.885964
      dz2     :     0.005526  d :     0.060126
      dxz     :     0.011082
      dyz     :     0.005044
      dx2y2   :     0.022380
      dxy     :     0.016094

 10 O s       :     3.735020  s :     3.735020
      pz      :     1.629252  p :     4.411597
      px      :     1.316043
      py      :     1.466302
      dz2     :     0.002296  d :     0.020294
      dxz     :     0.003915
      dyz     :     0.003283
      dx2y2   :     0.006696
      dxy     :     0.004105

 11 C s       :     3.092513  s :     3.092513
      pz      :     1.028747  p :     2.854119
      px      :     0.851258
      py      :     0.974114
      dz2     :     0.007915  d :     0.061136
      dxz     :     0.012957
      dyz     :     0.008019
      dx2y2   :     0.013732
      dxy     :     0.018511

 12 C s       :     3.214822  s :     3.214822
      pz      :     0.995123  p :     2.790495
      px      :     0.856437
      py      :     0.938934
      dz2     :     0.005991  d :     0.032228
      dxz     :     0.006336
      dyz     :     0.003913
      dx2y2   :     0.007363
      dxy     :     0.008624

 13 C s       :     3.189601  s :     3.189601
      pz      :     0.973463  p :     2.800425
      px      :     0.886892
      py      :     0.940070
      dz2     :     0.004552  d :     0.032442
      dxz     :     0.006740
      dyz     :     0.005157
      dx2y2   :     0.008835
      dxy     :     0.007158

 14 C s       :     3.165788  s :     3.165788
      pz      :     0.944275  p :     2.679607
      px      :     0.871013
      py      :     0.864319
      dz2     :     0.008798  d :     0.060127
      dxz     :     0.011855
      dyz     :     0.011524
      dx2y2   :     0.011733
      dxy     :     0.016215

 15 O s       :     3.735007  s :     3.735007
      pz      :     1.494071  p :     4.411605
      px      :     1.555525
      py      :     1.362010
      dz2     :     0.003963  d :     0.020294
      dxz     :     0.004056
      dyz     :     0.002651
      dx2y2   :     0.004331
      dxy     :     0.005293

 16 H s       :     0.968237  s :     0.968237
      pz      :     0.004559  p :     0.023197
      px      :     0.005061
      py      :     0.013577

 17 H s       :     0.954314  s :     0.954314
      pz      :     0.011048  p :     0.022670
      px      :     0.009457
      py      :     0.002165

 18 H s       :     0.967404  s :     0.967404
      pz      :     0.009486  p :     0.023268
      px      :     0.008227
      py      :     0.005554

 19 H s       :     0.967395  s :     0.967395
      pz      :     0.005982  p :     0.023268
      px      :     0.003632
      py      :     0.013653

 20 H s       :     0.968253  s :     0.968253
      pz      :     0.005611  p :     0.023197
      px      :     0.012918
      py      :     0.004669

 21 H s       :     0.954303  s :     0.954303
      pz      :     0.006541  p :     0.022670
      px      :     0.004666
      py      :     0.011463

 22 H s       :     0.967407  s :     0.967407
      pz      :     0.004953  p :     0.023267
      px      :     0.012547
      py      :     0.005768

 23 H s       :     0.968258  s :     0.968258
      pz      :     0.007943  p :     0.023198
      px      :     0.007253
      py      :     0.008001

 24 H s       :     0.954311  s :     0.954311
      pz      :     0.006286  p :     0.022670
      px      :     0.008065
      py      :     0.008320



                     *******************************
                     * LOEWDIN POPULATION ANALYSIS *
                     *******************************

----------------------
LOEWDIN ATOMIC CHARGES
----------------------
   0 C :   -0.077170
   1 C :    0.017600
   2 O :    0.024747
   3 C :   -0.142601
   4 C :   -0.080582
   5 P :    0.502070
   6 C :   -0.142590
   7 C :   -0.080592
   8 C :   -0.077177
   9 C :    0.017609
  10 O :    0.024747
  11 C :   -0.142587
  12 C :   -0.080589
  13 C :   -0.077169
  14 C :    0.017602
  15 O :    0.024745
  16 H :    0.034133
  17 H :    0.024250
  18 H :    0.032264
  19 H :    0.032265
  20 H :    0.034130
  21 H :    0.024251
  22 H :    0.032263
  23 H :    0.034129
  24 H :    0.024251

-------------------------------
LOEWDIN REDUCED ORBITAL CHARGES
-------------------------------
  0 C s       :     2.868674  s :     2.868674
      pz      :     1.042114  p :     3.119144
      px      :     1.035894
      py      :     1.041136
      dz2     :     0.017968  d :     0.089351
      dxz     :     0.011187
      dyz     :     0.023946
      dx2y2   :     0.018258
      dxy     :     0.017991

  1 C s       :     2.878466  s :     2.878466
      pz      :     1.041350  p :     2.965678
      px      :     1.042896
      py      :     0.881432
      dz2     :     0.019199  d :     0.138256
      dxz     :     0.013536
      dyz     :     0.037423
      dx2y2   :     0.033201
      dxy     :     0.034897

  2 O s       :     3.438996  s :     3.438996
      pz      :     1.458267  p :     4.497728
      px      :     1.496262
      py      :     1.543199
      dz2     :     0.008860  d :     0.038529
      dxz     :     0.006818
      dyz     :     0.007316
      dx2y2   :     0.008997
      dxy     :     0.006537

  3 C s       :     2.925210  s :     2.925210
      pz      :     0.968459  p :     3.079409
      px      :     1.019000
      py      :     1.091950
      dz2     :     0.028744  d :     0.137982
      dxz     :     0.029062
      dyz     :     0.030140
      dx2y2   :     0.026541
      dxy     :     0.023495

  4 C s       :     2.870432  s :     2.870432
      pz      :     1.037592  p :     3.120946
      px      :     1.032099
      py      :     1.051255
      dz2     :     0.014233  d :     0.089204
      dxz     :     0.012745
      dyz     :     0.022046
      dx2y2   :     0.021395
      dxy     :     0.018786

  5 P s       :     5.257417  s :     5.257417
      pz      :     3.296138  p :     8.987756
      px      :     2.875816
      py      :     2.815802
      dz2     :     0.038247  d :     0.252757
      dxz     :     0.034252
      dyz     :     0.074407
      dx2y2   :     0.062824
      dxy     :     0.043027

  6 C s       :     2.925213  s :     2.925213
      pz      :     1.090606  p :     3.079397
      px      :     1.084419
      py      :     0.904371
      dz2     :     0.012659  d :     0.137981
      dxz     :     0.013047
      dyz     :     0.024588
      dx2y2   :     0.045675
      dxy     :     0.042012

  7 C s       :     2.870433  s :     2.870433
      pz      :     1.033145  p :     3.120955
      px      :     1.045554
      py      :     1.042256
      dz2     :     0.006494  d :     0.089204
      dxz     :     0.016220
      dyz     :     0.007014
      dx2y2   :     0.025752
      dxy     :     0.033724

  8 C s       :     2.868674  s :     2.868674
      pz      :     1.033076  p :     3.119152
      px      :     1.033489
      py      :     1.052586
      dz2     :     0.007765  d :     0.089351
      dxz     :     0.007744
      dyz     :     0.014412
      dx2y2   :     0.031345
      dxy     :     0.028085

  9 C s       :     2.878464  s :     2.878464
      pz      :     1.068704  p :     2.965670
      px      :     0.830554
      py      :     1.066412
      dz2     :     0.011416  d :     0.138256
      dxz     :     0.022361
      dyz     :     0.010345
      dx2y2   :     0.055653
      dxy     :     0.038481

 10 O s       :     3.439000  s :     3.439000
      pz      :     1.609442  p :     4.497724
      px      :     1.379781
      py      :     1.508502
      dz2     :     0.003970  d :     0.038529
      dxz     :     0.006995
      dyz     :     0.004981
      dx2y2   :     0.014464
      dxy     :     0.008119

 11 C s       :     2.925211  s :     2.925211
      pz      :     1.082901  p :     3.079395
      px      :     0.950952
      py      :     1.045541
      dz2     :     0.015788  d :     0.137981
      dxz     :     0.030638
      dyz     :     0.015694
      dx2y2   :     0.031608
      dxy     :     0.044254

 12 C s       :     2.870436  s :     2.870436
      pz      :     1.037230  p :     3.120949
      px      :     1.048492
      py      :     1.035227
      dz2     :     0.014177  d :     0.089204
      dxz     :     0.016933
      dyz     :     0.011541
      dx2y2   :     0.022266
      dxy     :     0.024288

 13 C s       :     2.868674  s :     2.868674
      pz      :     1.033161  p :     3.119144
      px      :     1.054077
      py      :     1.031906
      dz2     :     0.010413  d :     0.089351
      dxz     :     0.017738
      dyz     :     0.013525
      dx2y2   :     0.027519
      dxy     :     0.020156

 14 C s       :     2.878466  s :     2.878466
      pz      :     0.978849  p :     2.965676
      px      :     1.042926
      py      :     0.943901
      dz2     :     0.018506  d :     0.138256
      dxz     :     0.027087
      dyz     :     0.024850
      dx2y2   :     0.030246
      dxy     :     0.037567

 15 O s       :     3.438994  s :     3.438994
      pz      :     1.505531  p :     4.497732
      px      :     1.591476
      py      :     1.400725
      dz2     :     0.007187  d :     0.038529
      dxz     :     0.006657
      dyz     :     0.006420
      dx2y2   :     0.007808
      dxy     :     0.010457

 16 H s       :     0.895409  s :     0.895409
      pz      :     0.013868  p :     0.070458
      px      :     0.015204
      py      :     0.041387

 17 H s       :     0.903419  s :     0.903419
      pz      :     0.034686  p :     0.072331
      px      :     0.029482
      py      :     0.008163

 18 H s       :     0.896541  s :     0.896541
      pz      :     0.029403  p :     0.071195
      px      :     0.024539
      py      :     0.017254

 19 H s       :     0.896540  s :     0.896540
      pz      :     0.017633  p :     0.071195
      px      :     0.011712
      py      :     0.041850

 20 H s       :     0.895413  s :     0.895413
      pz      :     0.016380  p :     0.070458
      px      :     0.039599
      py      :     0.014479

 21 H s       :     0.903418  s :     0.903418
      pz      :     0.019583  p :     0.072331
      px      :     0.015771
      py      :     0.036977

 22 H s       :     0.896542  s :     0.896542
      pz      :     0.015036  p :     0.071195
      px      :     0.038595
      py      :     0.017564

 23 H s       :     0.895413  s :     0.895413
      pz      :     0.023829  p :     0.070457
      px      :     0.022209
      py      :     0.024420

 24 H s       :     0.903418  s :     0.903418
      pz      :     0.019439  p :     0.072331
      px      :     0.026527
      py      :     0.026365



                      *****************************
                      * MAYER POPULATION ANALYSIS *
                      *****************************

  NA   - Mulliken gross atomic population
  ZA   - Total nuclear charge
  QA   - Mulliken gross atomic charge
  VA   - Mayer's total valence
  BVA  - Mayer's bonded valence
  FA   - Mayer's free valence

  ATOM       NA         ZA         QA         VA         BVA        FA
  0 C      6.0225     6.0000    -0.0225     3.8099     3.8099    -0.0000
  1 C      5.9055     6.0000     0.0945     3.8039     3.8039    -0.0000
  2 O      8.1669     8.0000    -0.1669     2.4512     2.4512    -0.0000
  3 C      6.0078     6.0000    -0.0078     3.7719     3.7719    -0.0000
  4 C      6.0375     6.0000    -0.0375     3.8999     3.8999    -0.0000
  5 P     14.7021    15.0000     0.2979     3.0548     3.0548    -0.0000
  6 C      6.0078     6.0000    -0.0078     3.7718     3.7718    -0.0000
  7 C      6.0375     6.0000    -0.0375     3.8999     3.8999    -0.0000
  8 C      6.0225     6.0000    -0.0225     3.8099     3.8099    -0.0000
  9 C      5.9055     6.0000     0.0945     3.8039     3.8039    -0.0000
 10 O      8.1669     8.0000    -0.1669     2.4512     2.4512    -0.0000
 11 C      6.0078     6.0000    -0.0078     3.7718     3.7718    -0.0000
 12 C      6.0375     6.0000    -0.0375     3.8999     3.8999    -0.0000
 13 C      6.0225     6.0000    -0.0225     3.8099     3.8099    -0.0000
 14 C      5.9055     6.0000     0.0945     3.8039     3.8039    -0.0000
 15 O      8.1669     8.0000    -0.1669     2.4513     2.4513    -0.0000
 16 H      0.9914     1.0000     0.0086     0.9902     0.9902    -0.0000
 17 H      0.9770     1.0000     0.0230     0.9974     0.9974    -0.0000
 18 H      0.9907     1.0000     0.0093     1.0058     1.0058    -0.0000
 19 H      0.9907     1.0000     0.0093     1.0058     1.0058    -0.0000
 20 H      0.9915     1.0000     0.0085     0.9902     0.9902    -0.0000
 21 H      0.9770     1.0000     0.0230     0.9974     0.9974    -0.0000
 22 H      0.9907     1.0000     0.0093     1.0058     1.0058    -0.0000
 23 H      0.9915     1.0000     0.0085     0.9902     0.9902    -0.0000
 24 H      0.9770     1.0000     0.0230     0.9974     0.9974    -0.0000

  Mayer bond orders larger than 0.100000
B(  0-C ,  1-C ) :   1.5098 B(  0-C ,  4-C ) :   1.2651 B(  0-C , 16-H ) :   0.9985 
B(  1-C ,  2-O ) :   1.1425 B(  1-C ,  3-C ) :   0.1100 B(  1-C , 17-H ) :   0.9944 
B(  2-O ,  3-C ) :   1.1358 B(  3-C ,  4-C ) :   1.5245 B(  3-C ,  5-P ) :   0.9327 
B(  4-C , 18-H ) :   0.9919 B(  5-P ,  6-C ) :   0.9326 B(  5-P , 11-C ) :   0.9326 
B(  6-C ,  7-C ) :   1.5246 B(  6-C ,  9-C ) :   0.1100 B(  6-C , 10-O ) :   1.1357 
B(  7-C ,  8-C ) :   1.2651 B(  7-C , 19-H ) :   0.9919 B(  8-C ,  9-C ) :   1.5098 
B(  8-C , 20-H ) :   0.9985 B(  9-C , 10-O ) :   1.1426 B(  9-C , 21-H ) :   0.9944 
B( 11-C , 12-C ) :   1.5246 B( 11-C , 14-C ) :   0.1100 B( 11-C , 15-O ) :   1.1358 
B( 12-C , 13-C ) :   1.2651 B( 12-C , 22-H ) :   0.9919 B( 13-C , 14-C ) :   1.5098 
B( 13-C , 23-H ) :   0.9985 B( 14-C , 15-O ) :   1.1426 B( 14-C , 24-H ) :   0.9944 


-------
TIMINGS
-------

Total SCF time: 0 days 0 hours 0 min 7 sec 

Total time                  ....       7.704 sec
Sum of individual times     ....       7.628 sec  ( 99.0%)

SCF preparation             ....       0.100 sec  (  1.3%)
Fock matrix formation       ....       6.796 sec  ( 88.2%)
  Startup                   ....       0.040 sec  (  0.6% of F)
  Split-RI-J                ....       2.229 sec  ( 32.8% of F)
  XC integration            ....       4.269 sec  ( 62.8% of F)
    Basis function eval.    ....       1.180 sec  ( 27.6% of XC)
    Density eval.           ....       1.013 sec  ( 23.7% of XC)
    XC-Functional eval.     ....       0.140 sec  (  3.3% of XC)
    XC-Potential eval.      ....       0.955 sec  ( 22.4% of XC)
Diagonalization             ....       0.000 sec  (  0.0%)
Density matrix formation    ....       0.101 sec  (  1.3%)
Total Energy calculation    ....       0.096 sec  (  1.2%)
Population analysis         ....       0.057 sec  (  0.7%)
Orbital Transformation      ....       0.053 sec  (  0.7%)
Orbital Orthonormalization  ....       0.000 sec  (  0.0%)
DIIS solution               ....       0.212 sec  (  2.8%)
SOSCF solution              ....       0.213 sec  (  2.8%)
Finished LeanSCF after   7.7 sec

Maximum memory used throughout the entire LEANSCF-calculation: 25.5 MB


-------------------------------------------------------------------------------
                          DFT DISPERSION CORRECTION                            
                                                                               
                              DFTD3 V3.1  Rev 1                                
                          USING Becke-Johnson damping                          
-------------------------------------------------------------------------------
The BP86 functional is recognized
Active option DFTDOPT                   ...         4   

molecular C6(AA) [au] = 9272.213165 


            DFT-D V3
 parameters
 s6 scaling factor         :     1.0000 
 a1 scaling factor         :     0.3946 
 s8 scaling factor         :     3.2822 
 a2 scaling factor         :     4.8516 
 ad hoc parameters k1-k3   :    16.0000     1.3333    -4.0000 

 Edisp/kcal,au: -31.874075603091  -0.050794567286 
 E6   /kcal   : -11.358488956 
 E8   /kcal   : -20.515586647 
 % E8         :  64.364491390 

-------------------------   ----------------
Dispersion correction           -0.050794567
-------------------------   ----------------


-------------------------   --------------------
FINAL SINGLE POINT ENERGY     -1029.118095425738
-------------------------   --------------------



           ************************************************************
           *        Program running with 6 parallel MPI-processes     *
           *              working on a common directory               *
           ************************************************************
------------------------------------------------------------------------------
                         ORCA SCF GRADIENT CALCULATION
------------------------------------------------------------------------------

Nuc. rep. gradient        (SHARK) ... done (  0.0 sec)
HCore & Overlap gradient  (SHARK) ... done (  0.1 sec)
Split-RIJ-J gradient      (SHARK) ... done (  0.6 sec)
XC gradient                       ... done (  2.1 sec)
Dispersion correction             ... done (  0.1 sec)

-------------------
DISPERSION GRADIENT
-------------------

   1   C   :    0.000010118    0.000384293   -0.000088699
   2   C   :    0.001085908    0.000136985   -0.001374293
   3   O   :   -0.000248342   -0.000513931    0.000079416
   4   C   :   -0.001518670   -0.001890813    0.001214606
   5   C   :   -0.000955394   -0.000092933    0.000744064
   6   P   :   -0.000347158    0.000156529   -0.000890548
   7   C   :    0.002566997   -0.000853743   -0.000195800
   8   C   :    0.000639348   -0.001031731   -0.000042609
   9   C   :   -0.000373928   -0.000122610   -0.000028083
  10   C   :   -0.000941687    0.001440114   -0.000354841
  11   O   :    0.000558343    0.000018308   -0.000141498
  12   C   :   -0.000104216    0.002318863    0.001403147
  13   C   :    0.000699624    0.000951712    0.000282521
  14   C   :    0.000213243   -0.000193792   -0.000269490
  15   C   :   -0.001108238   -0.001142429   -0.000743852
  16   O   :   -0.000237890    0.000463108    0.000247072
  17   H   :   -0.000050567   -0.000175330    0.000033241
  18   H   :   -0.000122698   -0.000054965    0.000139615
  19   H   :   -0.000108634   -0.000291203   -0.000091981
  20   H   :    0.000257968    0.000106181   -0.000165042
  21   H   :    0.000182165    0.000027197   -0.000021885
  22   H   :    0.000135725   -0.000136169    0.000024603
  23   H   :   -0.000231536    0.000222086    0.000046148
  24   H   :   -0.000087753    0.000128364    0.000101116
  25   H   :    0.000087270    0.000145910    0.000093072

Difference to translation invariance:
           :   -0.0000000000   -0.0000000000   -0.0000000000

Difference to rotation invariance:
           :    0.0000000000    0.0000000000   -0.0000000000

Norm of the Dispersion gradient    ...    0.0062199518
RMS gradient                       ...    0.0007182182
MAX gradient                       ...    0.0025669967

------------------
CARTESIAN GRADIENT
------------------

   1   C   :    0.005380305   -0.002264333   -0.006867855
   2   C   :    0.000841561    0.004490760    0.001414154
   3   O   :   -0.004852499   -0.011500506    0.000209397
   4   C   :   -0.008199607    0.002172042    0.003093990
   5   C   :   -0.001647115   -0.003672727    0.003700909
   6   P   :    0.002903715   -0.001328055    0.007477795
   7   C   :    0.001694696   -0.008464406   -0.002633603
   8   C   :    0.005082617   -0.001449391    0.001472338
   9   C   :   -0.002082938    0.008514951   -0.002055661
  10   C   :   -0.003725864   -0.002222700    0.002012079
  11   O   :    0.011733190    0.001747254   -0.003912629
  12   C   :    0.006015437    0.006523765   -0.001719861
  13   C   :    0.000235650    0.003473065    0.004229274
  14   C   :   -0.007589532   -0.004308987   -0.002148947
  15   C   :    0.003807768   -0.002707778   -0.001005438
  16   O   :   -0.006522750    0.009616775    0.004585063
  17   H   :    0.001385155    0.010501719   -0.000986831
  18   H   :    0.006637273    0.000097738   -0.007109142
  19   H   :   -0.005906941    0.003444286    0.006648107
  20   H   :    0.001111102   -0.009329627    0.001655394
  21   H   :   -0.010045355   -0.003331949    0.001039456
  22   H   :   -0.004648774    0.008453969   -0.001240483
  23   H   :    0.008475583    0.004216769    0.001172770
  24   H   :    0.006396853   -0.006147444   -0.005870202
  25   H   :   -0.006479531   -0.006525190   -0.003160073

Difference to translation invariance:
           :   -0.0000000000    0.0000000000   -0.0000000000

Difference to rotation invariance:
           :   -0.0000396554   -0.0000118625   -0.0000898841

Norm of the Cartesian gradient     ...    0.0455696057
RMS gradient                       ...    0.0052619248
MAX gradient                       ...    0.0117331899

-------
TIMINGS
-------

Total SCF gradient time     ....        2.990 sec

Densities                   ....       0.001 sec  (  0.0%)
One electron gradient       ....       0.145 sec  (  4.8%)
RI-J Coulomb gradient       ....       0.645 sec  ( 21.6%)
XC gradient                 ....       2.134 sec  ( 71.4%)

Maximum memory used throughout the entire SCFGRAD-calculation: 33.8 MB
------------------------------------------------------------------------------
                         ORCA GEOMETRY RELAXATION STEP
------------------------------------------------------------------------------

Reading the OPT-File                    .... done
Getting information on internals        .... done
Copying old internal coords+grads       .... done
Making the new internal coordinates     .... (2022 redundants) done
Validating the new internal coordinates .... (2022 redundants) done
Calculating the B-matrix                .... done
Calculating the G,G- and P matrices     .... done
Transforming gradient to internals      .... done
Projecting the internal gradient        .... done
Number of atoms                         ....  25
Number of internal coordinates          .... 129
[...]
      px      :     1.603967
      py      :     1.463143
      dz2     :     0.011196  d :     0.037593
      dxz     :     0.007426
      dyz     :     0.006056
      dx2y2   :     0.005375
      dxy     :     0.007540

  3 C s       :     2.936388  s :     2.936388
      pz      :     0.905325  p :     3.073500
      px      :     1.073567
      py      :     1.094608
      dz2     :     0.045397  d :     0.136346
      dxz     :     0.026813
      dyz     :     0.033340
      dx2y2   :     0.014181
      dxy     :     0.016614

  4 C s       :     2.883456  s :     2.883456
      pz      :     1.032197  p :     3.103552
      px      :     1.033237
      py      :     1.038118
      dz2     :     0.019736  d :     0.086343
      dxz     :     0.014804
      dyz     :     0.021099
      dx2y2   :     0.015079
      dxy     :     0.015625

  5 P s       :     5.253015  s :     5.253015
      pz      :     3.317585  p :     9.007567
      px      :     2.876422
      py      :     2.813560
      dz2     :     0.024379  d :     0.271855
      dxz     :     0.023068
      dyz     :     0.073170
      dx2y2   :     0.092448
      dxy     :     0.058789

  6 C s       :     2.936401  s :     2.936401
      pz      :     0.919032  p :     3.073469
      px      :     1.073189
      py      :     1.081248
      dz2     :     0.039075  d :     0.136342
      dxz     :     0.050779
      dyz     :     0.024536
      dx2y2   :     0.012979
      dxy     :     0.008973

  7 C s       :     2.883457  s :     2.883457
      pz      :     1.044347  p :     3.103563
      px      :     1.043261
      py      :     1.015955
      dz2     :     0.020129  d :     0.086343
      dxz     :     0.033446
      dyz     :     0.006714
      dx2y2   :     0.011414
      dxy     :     0.014639

  8 C s       :     2.878928  s :     2.878928
      pz      :     1.053049  p :     3.122721
      px      :     1.030067
      py      :     1.039604
      dz2     :     0.026800  d :     0.085446
      dxz     :     0.026032
      dyz     :     0.012517
      dx2y2   :     0.012679
      dxy     :     0.007417

  9 C s       :     2.886790  s :     2.886790
      pz      :     1.060252  p :     2.947974
      px      :     0.845643
      py      :     1.042079
      dz2     :     0.033910  d :     0.136491
      dxz     :     0.041749
      dyz     :     0.012909
      dx2y2   :     0.027859
      dxy     :     0.020064

 10 O s       :     3.452181  s :     3.452181
      pz      :     1.555116  p :     4.490991
      px      :     1.344818
      py      :     1.591056
      dz2     :     0.009401  d :     0.037591
      dxz     :     0.009965
      dyz     :     0.004127
      dx2y2   :     0.007271
      dxy     :     0.006828

 11 C s       :     2.936400  s :     2.936400
      pz      :     0.911220  p :     3.073473
      px      :     1.061972
      py      :     1.100281
      dz2     :     0.046412  d :     0.136345
      dxz     :     0.026392
      dyz     :     0.032328
      dx2y2   :     0.016957
      dxy     :     0.014256

 12 C s       :     2.883455  s :     2.883455
      pz      :     1.030836  p :     3.103564
      px      :     1.025481
      py      :     1.047246
      dz2     :     0.023474  d :     0.086344
      dxz     :     0.012471
      dyz     :     0.021333
      dx2y2   :     0.012997
      dxy     :     0.016069

 13 C s       :     2.878935  s :     2.878935
      pz      :     1.041618  p :     3.122712
      px      :     1.042876
      py      :     1.038218
      dz2     :     0.019545  d :     0.085442
      dxz     :     0.015744
      dyz     :     0.028709
      dx2y2   :     0.010135
      dxy     :     0.011309

 14 C s       :     2.886796  s :     2.886796
      pz      :     1.007235  p :     2.947977
      px      :     1.035522
      py      :     0.905220
      dz2     :     0.028143  d :     0.136490
      dxz     :     0.015953
      dyz     :     0.040096
      dx2y2   :     0.028750
      dxy     :     0.023548

 15 O s       :     3.452188  s :     3.452188
      pz      :     1.350889  p :     4.490994
      px      :     1.606843
      py      :     1.533262
      dz2     :     0.010052  d :     0.037590
      dxz     :     0.008539
      dyz     :     0.008565
      dx2y2   :     0.005374
      dxy     :     0.005060

 16 H s       :     0.894929  s :     0.894929
      pz      :     0.011496  p :     0.068245
      px      :     0.024382
      py      :     0.032366

 17 H s       :     0.901759  s :     0.901759
      pz      :     0.040681  p :     0.069564
      px      :     0.014274
      py      :     0.014608

 18 H s       :     0.894464  s :     0.894464
      pz      :     0.036997  p :     0.068202
      px      :     0.019101
      py      :     0.012104

 19 H s       :     0.894464  s :     0.894464
      pz      :     0.040403  p :     0.068205
      px      :     0.011939
      py      :     0.015863

 20 H s       :     0.894930  s :     0.894930
      pz      :     0.016750  p :     0.068244
      px      :     0.035993
      py      :     0.015502

 21 H s       :     0.901761  s :     0.901761
      pz      :     0.032052  p :     0.069564
      px      :     0.019490
      py      :     0.018022

 22 H s       :     0.894463  s :     0.894463
      pz      :     0.033727  p :     0.068203
      px      :     0.019979
      py      :     0.014498

 23 H s       :     0.894929  s :     0.894929
      pz      :     0.012949  p :     0.068245
      px      :     0.018674
      py      :     0.036621

 24 H s       :     0.901761  s :     0.901761
      pz      :     0.042388  p :     0.069564
      px      :     0.017570
      py      :     0.009607



                      *****************************
                      * MAYER POPULATION ANALYSIS *
                      *****************************

  NA   - Mulliken gross atomic population
  ZA   - Total nuclear charge
  QA   - Mulliken gross atomic charge
  VA   - Mayer's total valence
  BVA  - Mayer's bonded valence
  FA   - Mayer's free valence

  ATOM       NA         ZA         QA         VA         BVA        FA
  0 C      6.0419     6.0000    -0.0419     3.7853     3.7853    -0.0000
  1 C      5.8974     6.0000     0.1026     3.8170     3.8170    -0.0000
  2 O      8.1649     8.0000    -0.1649     2.4370     2.4370    -0.0000
  3 C      6.0049     6.0000    -0.0049     3.7562     3.7562    -0.0000
  4 C      6.0459     6.0000    -0.0459     3.8815     3.8815    -0.0000
  5 P     14.7239    15.0000     0.2761     3.0006     3.0006    -0.0000
  6 C      6.0049     6.0000    -0.0049     3.7563     3.7563    -0.0000
  7 C      6.0459     6.0000    -0.0459     3.8814     3.8814    -0.0000
  8 C      6.0419     6.0000    -0.0419     3.7853     3.7853    -0.0000
  9 C      5.8974     6.0000     0.1026     3.8170     3.8170    -0.0000
 10 O      8.1649     8.0000    -0.1649     2.4370     2.4370    -0.0000
 11 C      6.0048     6.0000    -0.0048     3.7561     3.7561    -0.0000
 12 C      6.0459     6.0000    -0.0459     3.8814     3.8814    -0.0000
 13 C      6.0419     6.0000    -0.0419     3.7853     3.7853    -0.0000
 14 C      5.8974     6.0000     0.1026     3.8171     3.8171    -0.0000
 15 O      8.1649     8.0000    -0.1649     2.4369     2.4369    -0.0000
 16 H      0.9825     1.0000     0.0175     0.9895     0.9895    -0.0000
 17 H      0.9679     1.0000     0.0321     0.9953     0.9953     0.0000
 18 H      0.9867     1.0000     0.0133     0.9961     0.9961    -0.0000
 19 H      0.9867     1.0000     0.0133     0.9961     0.9961    -0.0000
 20 H      0.9825     1.0000     0.0175     0.9895     0.9895     0.0000
 21 H      0.9679     1.0000     0.0321     0.9953     0.9953    -0.0000
 22 H      0.9867     1.0000     0.0133     0.9961     0.9961    -0.0000
 23 H      0.9825     1.0000     0.0175     0.9895     0.9895    -0.0000
 24 H      0.9679     1.0000     0.0321     0.9953     0.9953    -0.0000

  Mayer bond orders larger than 0.100000
B(  0-C ,  1-C ) :   1.5101 B(  0-C ,  4-C ) :   1.2386 B(  0-C , 16-H ) :   0.9920 
B(  1-C ,  2-O ) :   1.1665 B(  1-C ,  3-C ) :   0.1073 B(  1-C , 17-H ) :   0.9904 
B(  2-O ,  3-C ) :   1.1091 B(  3-C ,  4-C ) :   1.5407 B(  3-C ,  5-P ) :   0.9348 
B(  4-C , 18-H ) :   0.9984 B(  5-P ,  6-C ) :   0.9349 B(  5-P , 11-C ) :   0.9348 
B(  6-C ,  7-C ) :   1.5407 B(  6-C ,  9-C ) :   0.1073 B(  6-C , 10-O ) :   1.1091 
B(  7-C ,  8-C ) :   1.2386 B(  7-C , 19-H ) :   0.9985 B(  8-C ,  9-C ) :   1.5101 
B(  8-C , 20-H ) :   0.9920 B(  9-C , 10-O ) :   1.1665 B(  9-C , 21-H ) :   0.9904 
B( 11-C , 12-C ) :   1.5407 B( 11-C , 14-C ) :   0.1073 B( 11-C , 15-O ) :   1.1091 
B( 12-C , 13-C ) :   1.2386 B( 12-C , 22-H ) :   0.9985 B( 13-C , 14-C ) :   1.5101 
B( 13-C , 23-H ) :   0.9920 B( 14-C , 15-O ) :   1.1665 B( 14-C , 24-H ) :   0.9904 


-------
TIMINGS
-------

Total SCF time: 0 days 0 hours 0 min 3 sec 

Total time                  ....       3.049 sec
Sum of individual times     ....       2.992 sec  ( 98.1%)

SCF preparation             ....       0.097 sec  (  3.2%)
Fock matrix formation       ....       2.601 sec  ( 85.3%)
  Startup                   ....       0.017 sec  (  0.7% of F)
  Split-RI-J                ....       0.882 sec  ( 33.9% of F)
  XC integration            ....       1.635 sec  ( 62.9% of F)
    Basis function eval.    ....       0.470 sec  ( 28.7% of XC)
    Density eval.           ....       0.412 sec  ( 25.2% of XC)
    XC-Functional eval.     ....       0.063 sec  (  3.9% of XC)
    XC-Potential eval.      ....       0.352 sec  ( 21.5% of XC)
Diagonalization             ....       0.000 sec  (  0.0%)
Density matrix formation    ....       0.034 sec  (  1.1%)
Total Energy calculation    ....       0.016 sec  (  0.5%)
Population analysis         ....       0.074 sec  (  2.4%)
Orbital Transformation      ....       0.021 sec  (  0.7%)
Orbital Orthonormalization  ....       0.000 sec  (  0.0%)
DIIS solution               ....       0.032 sec  (  1.0%)
SOSCF solution              ....       0.117 sec  (  3.8%)
Finished LeanSCF after   3.1 sec

Maximum memory used throughout the entire LEANSCF-calculation: 27.1 MB


-------------------------------------------------------------------------------
                          DFT DISPERSION CORRECTION                            
                                                                               
                              DFTD3 V3.1  Rev 1                                
                          USING Becke-Johnson damping                          
-------------------------------------------------------------------------------
The BP86 functional is recognized
Active option DFTDOPT                   ...         4   

molecular C6(AA) [au] = 9335.306328 


            DFT-D V3
 parameters
 s6 scaling factor         :     1.0000 
 a1 scaling factor         :     0.3946 
 s8 scaling factor         :     3.2822 
 a2 scaling factor         :     4.8516 
 ad hoc parameters k1-k3   :    16.0000     1.3333    -4.0000 

 Edisp/kcal,au: -31.262388544598  -0.049819782014 
 E6   /kcal   : -11.141320236 
 E8   /kcal   : -20.121068309 
 % E8         :  64.361903378 

-------------------------   ----------------
Dispersion correction           -0.049819782
-------------------------   ----------------


-------------------------   --------------------
FINAL SINGLE POINT ENERGY     -1029.135288802145
-------------------------   --------------------

                                *** OPTIMIZATION RUN DONE ***



           ************************************************************
           *        Program running with 6 parallel MPI-processes     *
           *              working on a common directory               *
           ************************************************************

------------------------------------------------------------------------------
                              ORCA PROPERTY CALCULATIONS
------------------------------------------------------------------------------

GBWName                                 ... data/geom_opt_P_BP86/521585/521585.gbw
Number of atoms                         ...     25
Number of basis functions               ...    273
Max core memory                         ...   1024 MB

Electric properties:
Dipole moment                           ... YES
Quadrupole moment                       ...  NO
Static polarizability (Dipole/Dipole)   ...  NO
Static polarizability (Dipole/Quad.)    ...  NO
Static polarizability (Quad./Quad.)     ...  NO
Static polarizability (Velocity)        ...  NO

Atomic electric properties:
Dipole moment                           ...  NO
Quadrupole moment                       ...  NO
Static polarizability                   ...  NO

Choice of electric origin               ... Center of mass
Position of electric origin             ...    -0.039827     0.017393    -0.101025

General magnetic properties:
Magnetizability                         ...  NO

EPR properties:
g-Tensor (aka g-matrix)                 ...  NO
Zero-Field splitting spin-orbit         ...  NO
Zero-field splitting spin-spin          ...  NO
Hyperfine couplings                     ...  NO (   0 nuclei)
Quadrupole couplings                    ...  NO (   0 nuclei)
Contact density                         ...  NO (   0 nuclei)

NMR properties:
Chemical shifts                         ...  NO (   0 nuclei)
Spin-rotation constants                 ...  NO (   0 nuclei)
Spin-spin couplings                     ...  NO (   0 nuclei,    0 pairs)

Choice of magnetic origin               ... GIAO
Position of magnetic origin             ...     0.000000     0.000000     0.000000

Properties with geometric perturbations:
SCF Hessian                             ...  NO
IR spectrum                             ...  NO
VCD spectrum                            ...  NO
X-ray spectroscopy properties:
SCF XES/XAS/RIXS spectra                ...  NO


-------------
DIPOLE MOMENT
-------------

Method             : SCF
Type of density    : Electron Density
Multiplicity       :   1
Irrep              :   0
Energy             : -1029.0854690201306312 Eh
Relativity type    : 
Basis              : AO
                                X                 Y                 Z
Electronic contribution:     -0.477257476       0.209241987      -1.212127030
Nuclear contribution   :      0.573323106      -0.252011244       1.457108082
                        -----------------------------------------
Total Dipole Moment    :      0.096065631      -0.042769257       0.244981053
                        -----------------------------------------
Magnitude (a.u.)       :      0.266596194
Magnitude (Debye)      :      0.677633674



--------------------
Rotational spectrum 
--------------------
 
Rotational constants in cm-1:             0.016892             0.016881             0.010775 
Rotational constants in MHz :           506.404547           506.085954           323.029793 

Dipole components along the rotational axes: 
x,y,z [a.u.] :     0.000258    -0.000535     0.266596 
x,y,z [Debye]:     0.000655    -0.001361     0.677632 

 

Dipole moment calculation done in   0.0 sec 

Maximum memory used throughout the entire PROP-calculation: 13.7 MB

--------------------------------
SUGGESTED CITATIONS FOR THIS RUN
--------------------------------

Below you find a list of papers that are relevant to this ORCA run
We neither can nor want to force you to cite these papers, but we appreciate if you do
You receive ORCA, which is the product of decades of hard work by many enthusiastic individuals, for free
The only thing we kindly ask in return is that you cite our papers,
We deeply appreciate it, if you show your appreciation for ORCA by not just citing the generic ORCA reference.

Please note that relegating all ORCA citations to the supporting information does *not* help us.
SI sections are not indexed - citations you put there will not count into any citation statistics
But we need these citations in order to attract the funding resources that allow us to do what we are doing

Therefore, if you are a happy ORCA user, please consider citing a few of the papers listed below in the main body of your paper

In addition to the list printed below, the program has created the file data/geom_opt_P_BP86/521585/521585.bibtex that contains the list in bibtex format
You can import this file easily into all common literature databanks and citation aid programs


List of essential papers. We consider these as the minimum necessary citations

  1. Neese,F.
     Software update: the ORCA program system, version 5.0
     WIRES Comput. Molec. Sci., 2022 12(1)e1606
     doi.org/10.1002/wcms.1606

List of papers to cite with high priority. The work reported in these papers was absolutely
necessary for this run to complete.
Our perspective: the developers of density functionals and basis sets usually get cited in chemistry papers
Good! But without the algorithms to do something with them, the functionals or basis sets would not do anything.
Hence, in our opinion, the algorithm design and method developments papers are equally worthy of getting cited

  1. Neese,F.
     An improvement of the resolution of the identity approximation for the formation of the Coulomb matrix
     J. Comp. Chem., 2003 24(14)1740-1747
     doi.org/10.1002/jcc.10318
  2. Neese,F.
     The SHARK Integral Generation and Digestion System
     J. Comp. Chem., 2022  1-16
     doi.org/10.1002/jcc.26942
  3. Grimme,S.; Antony,J.; Ehrlich,S.; Krieg,H.
     A consistent and accurate ab initio parametrization of density functional dispersion correction (DFT-D) for the 94 elements H-Pu
     J. Chem. Phys., 2010 132 154104-XXXX
     doi.org/10.1063/1.3382344
  4. Grimme,S.; Ehrlich,S.; Goerigk,L.
     Effect of the damping function in dispersion corrected density functional theory
     J. Comput. Chem., 2011 32(7)1456-1465
     doi.org/10.1002/jcc.21759

List of suggested additional citations. These are papers that are important in the 'surrounding' of 
of this run, or papers that preceded the highly important papers. If you like your results we are grateful for a citation.

  1. Neese,F.
     The ORCA program system
     WIRES Comput. Molec. Sci., 2012 2(1)73-78
     doi.org/10.1002/wcms.81
  2. Neese,F.
     Software update: the ORCA program system, version 4.0
     WIRES Comput. Molec. Sci., 2018 8(1)1-6
     doi.org/10.1002/wcms.1327
  3. Neese,F.; Wennmohs,F.; Becker,U.; Riplinger,C.
     The ORCA quantum chemistry program package
     J. Chem. Phys., 2020 152 Art. No. L224108
     doi.org/10.1063/5.0004608

List of optional additional citations

  1. Neese,F.
     Approximate second-order SCF convergence for spin unrestricted wavefunctions
     Chem. Phys. Lett., 2000 325(1-3)93-98
     doi.org/10.1016/s0009-2614(00)00662-x

Timings for individual modules:

Sum of individual times          ...      181.495 sec (=   3.025 min)
Startup calculation              ...       16.751 sec (=   0.279 min)   9.2 %
SCF iterations                   ...      112.194 sec (=   1.870 min)  61.8 %
Property calculations            ...        0.156 sec (=   0.003 min)   0.1 %
SCF Gradient evaluation          ...       52.220 sec (=   0.870 min)  28.8 %
Geometry relaxation              ...        0.174 sec (=   0.003 min)   0.1 %
                             ****ORCA TERMINATED NORMALLY****
TOTAL RUN TIME: 0 days 0 hours 3 minutes 4 seconds 640 msec
