
                                 *****************
                                 * O   R   C   A *
                                 *****************

                                            #,                                       
                                            ###                                      
                                            ####                                     
                                            #####                                    
                                            ######                                   
                                           ########,                                 
                                     ,,################,,,,,                         
                               ,,#################################,,                 
                          ,,##########################################,,             
                       ,#########################################, ''#####,          
                    ,#############################################,,   '####,        
                  ,##################################################,,,,####,       
                ,###########''''           ''''###############################       
              ,#####''   ,,,,##########,,,,          '''####'''          '####       
            ,##' ,,,,###########################,,,                        '##       
           ' ,,###''''                  '''############,,,                           
         ,,##''                                '''############,,,,        ,,,,,,###''
      ,#''                                            '''#######################'''  
     '                                                          ''''####''''         
             ,#######,   #######,   ,#######,      ##                                
            ,#'     '#,  ##    ##  ,#'     '#,    #''#        ,####,   ,####,        
            ##       ##  ##   ,#'  ##            #'  '#       #'       #'  '#        
            ##       ##  #######   ##           ,######,      #####,   #    #        
            '#,     ,#'  ##    ##  '#,     ,#' ,#      #,     #,   #   #,  ,#        
             '#######'   ##     ##  '#######'  #'      '#     '####' # '####'        



                #########################################################
                #                        -***-                          #
                #          Department of theory and spectroscopy        #
                #                                                       #
                #                      Frank Neese                      #
                #                                                       #
                #     Directorship, Architecture, Infrastructure        #
                #                    SHARK, DRIVERS                     #
                #        Core code/Algorithms in most modules           #
                #                                                       #
                #        Max Planck Institute fuer Kohlenforschung      #
                #                Kaiser Wilhelm Platz 1                 #
                #                 D-45470 Muelheim/Ruhr                 #
                #                      Germany                          #
                #                                                       #
                #                  All rights reserved                  #
                #                        -***-                          #
                #########################################################


                         Program Version 6.0.0  -   RELEASE   -


 With contributions from (in alphabetic order):
   Daniel Aravena         : Magnetic Suceptibility
   Michael Atanasov       : Ab Initio Ligand Field Theory (pilot matlab implementation)
   Alexander A. Auer      : GIAO ZORA, VPT2 properties, NMR spectrum
   Ute Becker             : All parallelization in ORCA, NUMFREQ, NUMCALC
   Giovanni Bistoni       : ED, misc. LED, open-shell LED, HFLD
   Martin Brehm           : Molecular dynamics
   Dmytro Bykov           : pre 5.0 version of the SCF Hessian
   Marcos Casanova-Páez   : Triplet and SCS-CIS(D). UHF-(DLPNO)-IP/EA/STEOM-CCSD. UHF-CVS-IP/STEOM-CCSD
   Vijay G. Chilkuri      : MRCI spin determinant printing, contributions to CSF-ICE
   Pauline Colinet        : FMM embedding
   Dipayan Datta          : RHF DLPNO-CCSD density
   Achintya Kumar Dutta   : EOM-CC, STEOM-CC
   Nicolas Foglia         : Exact transition moments, OPA infrastructure, MCD improvements
   Dmitry Ganyushin       : Spin-Orbit,Spin-Spin,Magnetic field MRCI
   Miquel Garcia          : C-PCM and meta-GGA Hessian, CCSD/C-PCM, Gaussian charge scheme
   Tiago L. C. Gouveia    : GS-ROHF, GS-ROCIS
   Yang Guo               : DLPNO-NEVPT2, F12-NEVPT2, CIM, IAO-localization
   Andreas Hansen         : Spin unrestricted coupled pair/coupled cluster methods
   Ingolf Harden          : AUTO-CI MPn and infrastructure 
   Benjamin Helmich-Paris : MC-RPA, TRAH-(SCF,CASSCF), AVAS, COSX integrals, SCF dyn. polar.
   Lee Huntington         : MR-EOM, pCC
   Robert Izsak           : Overlap fitted RIJCOSX, COSX-SCS-MP3, EOM
   Riya Kayal             : Wick's Theorem for AUTO-CI, AUTO-CI UHF-CCSDT
   Emily Kempfer          : AUTO-CI, RHF CISDT and CCSDT
   Christian Kollmar      : KDIIS, OOCD, Brueckner-CCSD(T), CCSD density, CASPT2, CASPT2-K, improved NEVPT2
   Axel Koslowski         : Symmetry handling
   Simone Kossmann        : Meta GGA functionals, TD-DFT gradient, OOMP2, (MP2 Hessian; deprecated post 5.0)
   Lucas Lang             : DCDCAS
   Marvin Lechner         : AUTO-CI (C++ implementation), FIC-MRCC
   Spencer Leger          : CASSCF response
   Dagmar Lenk            : GEPOL surface, SMD, ORCA-2-JSON
   Dimitrios Liakos       : Extrapolation schemes; Compound Job, initial MDCI parallelization
   Dimitrios Manganas     : Further ROCIS development; embedding schemes. LFT, Crystal Embedding
   Dimitrios Pantazis     : SARC Basis sets
   Anastasios Papadopoulos: AUTO-CI, single reference methods and gradients
   Taras Petrenko         : pre 6.0 DFT Hessian and TD-DFT gradient, (ASA, deprecated), ECA, 1-Electron XAS/XES, NRVS
   Peter Pinski           : DLPNO-MP2, DLPNO-MP2 Gradient
   Christoph Reimann      : Effective Core Potentials
   Marius Retegan         : Local ZFS, SOC
   Christoph Riplinger    : Optimizer, TS searches, QM/MM, DLPNO-CCSD(T), (RO)-DLPNO pert. Triples
   Michael Roemelt        : Original ROCIS implementation
   Masaaki Saitow         : Open-shell DLPNO-CCSD energy and density
   Barbara Sandhoefer     : DKH picture change effects
   Kantharuban Sivalingam : CASSCF convergence/infrastructure, NEVPT2 and variants, FIC-MRCI
   Bernardo de Souza      : ESD, SOC TD-DFT
   Georgi Stoychev        : AutoAux, RI-MP2 NMR, DLPNO-MP2 response, X2C
   Van Anh Tran           : RI-MP2 g-tensors
   Willem Van den Heuvel  : Paramagnetic NMR
   Zikuan Wang            : NOTCH, Electric field optimization 
   Frank Wennmohs         : Technical directorship and infrastructure
   Hang Xu                : AUTO-CI-Response properties 


 We gratefully acknowledge several colleagues who have allowed us to
 interface, adapt or use parts of their codes:
   Stefan Grimme, W. Hujo, H. Kruse, P. Pracht,  : VdW corrections, initial TS optimization,
                  C. Bannwarth, S. Ehlert,         DFT functionals, gCP, sTDA/sTD-DF
                  L. Wittmann, M. Mueller
   Ed Valeev, F. Pavosevic, A. Kumar             : LibInt (2-el integral package), F12 methods
   Garnet Chan, S. Sharma, J. Yang, R. Olivares  : DMRG
   Ulf Ekstrom                                   : XCFun DFT Library
   Mihaly Kallay                                 : mrcc  (arbitrary order and MRCC methods)
   Frank Weinhold                                : gennbo (NPA and NBO analysis)
   Simon Mueller                                 : openCOSMO-RS
   Christopher J. Cramer and Donald G. Truhlar   : smd solvation model
   Lars Goerigk                                  : TD-DFT with DH, B97 family of functionals
   V. Asgeirsson, H. Jonsson                     : NEB implementation
   FAccTs GmbH                                   : IRC, NEB, NEB-TS, DLPNO-Multilevel, CI-OPT
                                                   MM, QMMM, 2- and 3-layer-ONIOM, Crystal-QMMM,
                                                   LR-CPCM, SF, NACMEs, symmetry and pop. for TD-DFT,
                                                   nearIR, NL-DFT gradient (VV10), updates on ESD,
                                                   ML-optimized integration grids, MBIS, APM,
                                                   GOAT, DOCKER, SOLVATOR, interface openCOSMO-RS
   S Lehtola, MJT Oliveira, MAL Marques          : LibXC Library
   Liviu Ungur et al                             : ANISO software


 Your calculation uses the libint2 library for the computation of 2-el integrals
 For citations please refer to: http://libint.valeyev.net

 Your ORCA version has been built with support for libXC version: 6.2.2
 For citations please refer to: https://libxc.gitlab.io

 This ORCA versions uses:
   CBLAS   interface :  Fast vector & matrix operations
   LAPACKE interface :  Fast linear algebra routines
   Shared memory     :  Shared parallel matrices


Your calculation utilizes the atom-pairwise dispersion correction
with the zero-damping scheme (D30)


XCFun DFT library Copyright 2009-2010 Ulf Ekstrom and contributors.
See http://admol.org/xcfun for more information.
This is free software; see the source code for copying conditions.
There is ABSOLUTELY NO WARRANTY; not even for MERCHANTABILITY or FITNESS FOR A PARTICULAR PURPOSE.
For details see the documentation.
Scientific users of this library should cite U. Ekstrom, L. Visscher, R. Bast, A. J. Thorvaldsen and K. Ruud;
J.Chem.Theor.Comp. 2010, DOI: 10.1021/ct100117s
XCFun Version 0.99 

Warning: RI is on but no J-basis has been assigned. Assigning Def2/J (nothing to worry about!)
================================================================================

----- Orbital basis set information -----
Your calculation utilizes the basis: def2-TZVP
   F. Weigend and R. Ahlrichs, Phys. Chem. Chem. Phys. 7, 3297 (2005).

----- AuxJ basis set information -----
Your calculation utilizes the auxiliary basis: def2/J
   F. Weigend, Phys. Chem. Chem. Phys. 8, 1057 (2006).

================================================================================
                                        WARNINGS
                       Please study these warnings very carefully!
================================================================================

WARNING: Functional chosen is sensitive to the integration grid.
         DEFGRID3 seems to be a minimum grid for robust results!

================================================================================
                                       INPUT FILE
================================================================================
NAME = data/single_point_P_M06-2x/621893/621893.inp
|  1> ! RIJCOSX M062X def2-TZVP D3ZERO NormalSCF
|  2> %pal
|  3> nprocs 6
|  4> end
|  5> 
|  6> * xyz 0 1
|  7>   C           3.83665287309291     -1.59030718898198     -0.95662977432021
|  8>   C           2.87373230816347     -2.52431752946255     -0.53593996752609
|  9>   C           1.74460728956754     -2.10143556500003      0.18013410466262
| 10>   C           1.55386440623236     -0.73409505298150      0.47754681530826
| 11>   C           2.52796646406554      0.19617120747878      0.05849767414131
| 12>   C           3.66095092339938     -0.23045292808860     -0.65369288570597
| 13>   P           0.12891232934950     -0.21955677026527      1.53456966167203
| 14>   C          -0.18603393682460      1.49532444372591      0.90060377229407
| 15>   C          -0.36358149948310      1.77220210962212     -0.47322024438249
| 16>   C          -0.59664499125536      3.08748817192750     -0.89976167886985
| 17>   C          -0.65119374730055      4.13721944486483      0.03625931400469
| 18>   C          -0.47437457551865      3.86822753800842      1.40275755612148
| 19>   C          -0.24418952617751      2.54977837534570      1.83388644385273
| 20>   C          -1.26700768774408     -1.11993495324531      0.66551576758722
| 21>   C          -2.33860540492625     -1.58760322211418      1.45429964107558
| 22>   C          -3.41087526569995     -2.23831405059207      0.82449244344832
| 23>   C          -3.36997607061183     -2.40821705473412     -0.56718134082970
| 24>   C          -2.25427638047328     -1.91245595864523     -1.26630157455511
| 25>   N          -1.22936629333843     -1.28355802507792     -0.67178466781476
| 26>   H           4.72177952062839     -1.92308366154806     -1.52020165809166
| 27>   H           3.00173327600178     -3.59257798886645     -0.77053815849237
| 28>   H           0.99708964054475     -2.84309707772556      0.50248047525669
| 29>   H           2.39437600047287      1.26590090854005      0.28041497275697
| 30>   H           4.40905437326706      0.50919651643428     -0.97910411608094
| 31>   H          -0.32551781778712      0.94032234574755     -1.19371345000623
| 32>   H          -0.73657235924296      3.29833724150314     -1.97156775713365
| 33>   H          -0.83195835576585      5.16901822642009     -0.30310877283641
| 34>   H          -0.51521228572256      4.68704473835187      2.13772239899522
| 35>   H          -0.10453303653188      2.33211853109212      2.90487575254109
| 36>   H          -2.31829466019180     -1.44021497492652      2.54500570493710
| 37>   H          -4.26254457731128     -2.61344847953560      1.41315606485148
| 38>   H          -4.18330505306596     -2.91716160608547     -1.10602548445022
| 39>   H          -2.18665487981257     -2.02851671118594     -2.36303903241120
| 40> **                         ****END OF INPUT****
================================================================================

                       ****************************
                       * Single Point Calculation *
                       ****************************

---------------------------------
CARTESIAN COORDINATES (ANGSTROEM)
---------------------------------
  C      3.836653   -1.590307   -0.956630
  C      2.873732   -2.524318   -0.535940
  C      1.744607   -2.101436    0.180134
  C      1.553864   -0.734095    0.477547
  C      2.527966    0.196171    0.058498
  C      3.660951   -0.230453   -0.653693
  P      0.128912   -0.219557    1.534570
  C     -0.186034    1.495324    0.900604
  C     -0.363581    1.772202   -0.473220
  C     -0.596645    3.087488   -0.899762
  C     -0.651194    4.137219    0.036259
  C     -0.474375    3.868228    1.402758
  C     -0.244190    2.549778    1.833886
  C     -1.267008   -1.119935    0.665516
  C     -2.338605   -1.587603    1.454300
  C     -3.410875   -2.238314    0.824492
  C     -3.369976   -2.408217   -0.567181
  C     -2.254276   -1.912456   -1.266302
  N     -1.229366   -1.283558   -0.671785
  H      4.721780   -1.923084   -1.520202
  H      3.001733   -3.592578   -0.770538
  H      0.997090   -2.843097    0.502480
  H      2.394376    1.265901    0.280415
  H      4.409054    0.509197   -0.979104
  H     -0.325518    0.940322   -1.193713
  H     -0.736572    3.298337   -1.971568
  H     -0.831958    5.169018   -0.303109
  H     -0.515212    4.687045    2.137722
  H     -0.104533    2.332119    2.904876
  H     -2.318295   -1.440215    2.545006
  H     -4.262545   -2.613448    1.413156
  H     -4.183305   -2.917162   -1.106025
  H     -2.186655   -2.028517   -2.363039

----------------------------
CARTESIAN COORDINATES (A.U.)
----------------------------
  NO LB      ZA    FRAG     MASS         X           Y           Z
   0 C     6.0000    0    12.011    7.250223   -3.005245   -1.807768
   1 C     6.0000    0    12.011    5.430567   -4.770269   -1.012780
   2 C     6.0000    0    12.011    3.296830   -3.971138    0.340404
   3 C     6.0000    0    12.011    2.936378   -1.387239    0.902433
   4 C     6.0000    0    12.011    4.777164    0.370710    0.110545
   5 C     6.0000    0    12.011    6.918195   -0.435493   -1.235301
   6 P    15.0000    0    30.974    0.243609   -0.414902    2.899916
   7 C     6.0000    0    12.011   -0.351553    2.825754    1.701894
   8 C     6.0000    0    12.011   -0.687069    3.348977   -0.894257
   9 C     6.0000    0    12.011   -1.127496    5.834507   -1.700303
  10 C     6.0000    0    12.011   -1.230578    7.818212    0.068520
  11 C     6.0000    0    12.011   -0.896438    7.309891    2.650828
  12 C     6.0000    0    12.011   -0.461451    4.818383    3.465543
  13 C     6.0000    0    12.011   -2.394298   -2.116370    1.257643
  14 C     6.0000    0    12.011   -4.419324   -3.000135    2.748228
  15 C     6.0000    0    12.011   -6.445620   -4.229801    1.558065
  16 C     6.0000    0    12.011   -6.368332   -4.550871   -1.071817
  17 C     6.0000    0    12.011   -4.259965   -3.614018   -2.392963
  18 N     7.0000    0    14.007   -2.323166   -2.425573   -1.269489
  19 H     1.0000    0     1.008    8.922870   -3.634101   -2.872765
  20 H     1.0000    0     1.008    5.672454   -6.788989   -1.456106
  21 H     1.0000    0     1.008    1.884226   -5.372675    0.949550
  22 H     1.0000    0     1.008    4.524715    2.392206    0.529908
  23 H     1.0000    0     1.008    8.331905    0.962242   -1.850239
  24 H     1.0000    0     1.008   -0.615140    1.776952   -2.255792
  25 H     1.0000    0     1.008   -1.391920    6.232954   -3.725723
  26 H     1.0000    0     1.008   -1.572173    9.768029   -0.572793
  27 H     1.0000    0     1.008   -0.973610    8.857231    4.039710
  28 H     1.0000    0     1.008   -0.197539    4.407065    5.489420
  29 H     1.0000    0     1.008   -4.380942   -2.721612    4.809364
  30 H     1.0000    0     1.008   -8.055042   -4.938702    2.670478
  31 H     1.0000    0     1.008   -7.905301   -5.512637   -2.090085
  32 H     1.0000    0     1.008   -4.132179   -3.833341   -4.465497

--------------------------------
INTERNAL COORDINATES (ANGSTROEM)
--------------------------------
 C      0   0   0     0.000000000000     0.00000000     0.00000000
 C      1   0   0     1.405905844653     0.00000000     0.00000000
 C      2   1   0     1.402324691485   120.26069425     0.00000000
 C      3   2   1     1.412252542502   120.54762979     0.55476178
 C      4   3   2     1.410628341250   118.85991748   359.10966653
 C      1   2   3     1.404224178854   119.54477348     0.06509320
 P      4   3   2     1.847304891870   119.62765787   184.77923704
 C      7   4   3     1.855241622423   101.12092606   208.36066318
 C      8   7   4     1.412648862129   122.33245287    52.20597939
 C      9   8   7     1.402224522759   120.03743518   180.11833390
 C     10   9   8     1.407496575936   120.24653761     0.17324671
 C     11  10   9     1.403901389405   119.96864459   359.87960929
 C     12  11  10     1.406117160589   119.91508465   359.94396922
 C      7   4   3     1.874707507142   100.09845181   309.88206594
 C     14   7   4     1.410395432583   117.75797726   147.16964423
 C     15  14   7     1.403511433087   118.89724096   178.57763533
 C     16  15  14     1.402603185802   118.62820376     0.50679591
 C     17  16  15     1.406888042516   118.26130134   359.79724402
 N     18  17  16     1.341418521550   123.42745346   359.85619098
 H      1   2   3     1.100819072804   120.20347541   180.10600584
 H      2   1   3     1.101181623574   120.07437036   179.80918170
 H      3   2   1     1.101250025060   119.53303337   179.90749167
 H      5   4   3     1.100643145039   119.81732967   179.89827827
 H      6   1   2     1.101195959555   120.11259486   180.03317763
 H      9   8   7     1.101173576126   118.94054348     0.71864706
 H     10   9   8     1.101274383547   119.78565367   180.12742849
 H     11  10   9     1.101115465180   120.01742513   179.84872698
 H     12  11  10     1.101046159983   120.17014833   179.92762719
 H     13  12  11     1.101770321903   120.26708027   179.99358229
 H     15  14   7     1.100806767560   119.71707739   358.37455594
 H     16  15  14     1.101177240631   120.59344140   180.07829802
 H     17  16  15     1.100400654836   121.35488560   179.62691049
 H     18  17  16     1.104932494362   120.31544646   179.95028099

---------------------------
INTERNAL COORDINATES (A.U.)
---------------------------
 C      0   0   0     0.000000000000     0.00000000     0.00000000
 C      1   0   0     2.656777016473     0.00000000     0.00000000
 C      2   1   0     2.650009617742   120.26069425     0.00000000
 C      3   2   1     2.668770537263   120.54762979     0.55476178
 C      4   3   2     2.665701241711   118.85991748   359.10966653
 C      1   2   3     2.653599128665   119.54477348     0.06509320
 P      4   3   2     3.490900331488   119.62765787   184.77923704
 C      7   4   3     3.505898578632   101.12092606   208.36066318
 C      8   7   4     2.669519472820   122.33245287    52.20597939
 C      9   8   7     2.649820326283   120.03743518   180.11833390
 C     10   9   8     2.659783062950   120.24653761     0.17324671
 C     11  10   9     2.652989145006   119.96864459   359.87960929
 C     12  11  10     2.657176345720   119.91508465   359.94396922
 C      7   4   3     3.542683769704   100.09845181   309.88206594
 C     14   7   4     2.665261108116   117.75797726   147.16964423
 C     15  14   7     2.652252234361   118.89724096   178.57763533
 C     16  15  14     2.650535895731   118.62820376     0.50679591
 C     17  16  15     2.658633101444   118.26130134   359.79724402
 N     18  17  16     2.534913636698   123.42745346   359.85619098
 H      1   2   3     2.080246570596   120.20347541   180.10600584
 H      2   1   3     2.080931692262   120.07437036   179.80918170
 H      3   2   1     2.081060952337   119.53303337   179.90749167
 H      5   4   3     2.079914115301   119.81732967   179.89827827
 H      6   1   2     2.080958783340   120.11259486   180.03317763
 H      9   8   7     2.080916484789   118.94054348     0.71864706
 H     10   9   8     2.081106983206   119.78565367   180.12742849
 H     11  10   9     2.080806671016   120.01742513   179.84872698
 H     12  11  10     2.080675703174   120.17014833   179.92762719
 H     13  12  11     2.082044170878   120.26708027   179.99358229
 H     15  14   7     2.080223317055   119.71707739   358.37455594
 H     16  15  14     2.080923409699   120.59344140   180.07829802
 H     17  16  15     2.079455875228   121.35488560   179.62691049
 H     18  17  16     2.088019810814   120.31544646   179.95028099

---------------------
BASIS SET INFORMATION
---------------------
There are 4 groups of distinct atoms

 Group   1 Type C   : 11s6p2d1f contracted to 5s3p2d1f pattern {62111/411/11/1}
 Group   2 Type P   : 14s9p3d1f contracted to 5s5p2d1f pattern {73211/51111/21/1}
 Group   3 Type N   : 11s6p2d1f contracted to 5s3p2d1f pattern {62111/411/11/1}
 Group   4 Type H   : 5s1p contracted to 3s1p pattern {311/1}

Atom   0C    basis set group =>   1
Atom   1C    basis set group =>   1
Atom   2C    basis set group =>   1
Atom   3C    basis set group =>   1
Atom   4C    basis set group =>   1
Atom   5C    basis set group =>   1
Atom   6P    basis set group =>   2
Atom   7C    basis set group =>   1
Atom   8C    basis set group =>   1
Atom   9C    basis set group =>   1
Atom  10C    basis set group =>   1
Atom  11C    basis set group =>   1
Atom  12C    basis set group =>   1
Atom  13C    basis set group =>   1
Atom  14C    basis set group =>   1
Atom  15C    basis set group =>   1
Atom  16C    basis set group =>   1
Atom  17C    basis set group =>   1
Atom  18N    basis set group =>   3
Atom  19H    basis set group =>   4
Atom  20H    basis set group =>   4
Atom  21H    basis set group =>   4
Atom  22H    basis set group =>   4
Atom  23H    basis set group =>   4
Atom  24H    basis set group =>   4
Atom  25H    basis set group =>   4
Atom  26H    basis set group =>   4
Atom  27H    basis set group =>   4
Atom  28H    basis set group =>   4
Atom  29H    basis set group =>   4
Atom  30H    basis set group =>   4
Atom  31H    basis set group =>   4
Atom  32H    basis set group =>   4
---------------------------------
AUXILIARY/J BASIS SET INFORMATION
---------------------------------
There are 4 groups of distinct atoms

 Group   1 Type C   : 12s5p4d2f1g contracted to 6s4p3d1f1g pattern {711111/2111/211/2/1}
 Group   2 Type P   : 14s5p5d2f1g contracted to 8s4p3d1f1g pattern {71111111/2111/311/2/1}
 Group   3 Type N   : 12s5p4d2f1g contracted to 6s4p3d1f1g pattern {711111/2111/211/2/1}
 Group   4 Type H   : 5s2p1d contracted to 3s1p1d pattern {311/2/1}

Atom   0C    basis set group =>   1
Atom   1C    basis set group =>   1
Atom   2C    basis set group =>   1
Atom   3C    basis set group =>   1
Atom   4C    basis set group =>   1
Atom   5C    basis set group =>   1
Atom   6P    basis set group =>   2
Atom   7C    basis set group =>   1
Atom   8C    basis set group =>   1
Atom   9C    basis set group =>   1
Atom  10C    basis set group =>   1
Atom  11C    basis set group =>   1
Atom  12C    basis set group =>   1
Atom  13C    basis set group =>   1
Atom  14C    basis set group =>   1
Atom  15C    basis set group =>   1
Atom  16C    basis set group =>   1
Atom  17C    basis set group =>   1
Atom  18N    basis set group =>   3
Atom  19H    basis set group =>   4
Atom  20H    basis set group =>   4
Atom  21H    basis set group =>   4
Atom  22H    basis set group =>   4
Atom  23H    basis set group =>   4
Atom  24H    basis set group =>   4
Atom  25H    basis set group =>   4
Atom  26H    basis set group =>   4
Atom  27H    basis set group =>   4
Atom  28H    basis set group =>   4
Atom  29H    basis set group =>   4
Atom  30H    basis set group =>   4
Atom  31H    basis set group =>   4
Atom  32H    basis set group =>   4


           ************************************************************
           *        Program running with 6 parallel MPI-processes     *
           *              working on a common directory               *
           ************************************************************
------------------------------------------------------------------------------
                             ORCA STARTUP CALCULATIONS
                           -- RI-GTO INTEGRALS CHOSEN --
------------------------------------------------------------------------------
------------------------------------------------------------------------------
                   ___                                                        
                  /   \      - P O W E R E D   B Y -                         
                 /     \                                                     
                 |  |  |   _    _      __       _____    __    __             
                 |  |  |  | |  | |    /  \     |  _  \  |  |  /  |          
                  \  \/   | |  | |   /    \    | | | |  |  | /  /          
                 / \  \   | |__| |  /  /\  \   | |_| |  |  |/  /          
                |  |  |   |  __  | /  /__\  \  |    /   |      \           
                |  |  |   | |  | | |   __   |  |    \   |  |\   \          
                \     /   | |  | | |  |  |  |  | |\  \  |  | \   \       
                 \___/    |_|  |_| |__|  |__|  |_| \__\ |__|  \__/        
                                                                              
                      - O R C A' S   B I G   F R I E N D -                    
                                      &                                       
                       - I N T E G R A L  F E E D E R -                       
                                                                              
 v1 FN, 2020, v2 2021, v3 2022-2024                                           
------------------------------------------------------------------------------


----------------------
SHARK INTEGRAL PACKAGE
----------------------

Number of atoms                             ...     33
Number of basis functions                   ...    679
Number of shells                            ...    267
Maximum angular momentum                    ...      3
Integral batch strategy                     ... SHARK/LIBINT Hybrid
RI-J (if used) integral strategy            ... SPLIT-RIJ (Revised 2003 algorithm where possible)
Printlevel                                  ...      1
Contraction scheme used                     ... SEGMENTED contraction
Prescreening option                         ... SCHWARTZ
   Thresh                                   ... 1.000e-10
   Tcut                                     ... 1.000e-11
   Tpresel                                  ... 1.000e-11 
Coulomb Range Separation                    ... NOT USED
Exchange Range Separation                   ... NOT USED
Multipole approximations                    ... NOT USED
Finite Nucleus Model                        ... NOT USED
CABS basis                                  ... NOT available
Auxiliary Coulomb fitting basis             ... AVAILABLE
   # of basis functions in Aux-J            ...   1087
   # of shells in Aux-J                     ...    357
   Maximum angular momentum in Aux-J        ...      4
Auxiliary J/K fitting basis                 ... NOT available
Auxiliary Correlation fitting basis         ... NOT available
Auxiliary 'external' fitting basis          ... NOT available

Checking pre-screening integrals            ... done (  0.0 sec) Dimension = 267
Check shell pair data                       ... done (  0.0 sec)
Shell pair information
Shell pair cut-off parameter TPreSel        ...   1.0e-11
Total number of shell pairs                 ...     35778
Shell pairs after pre-screening             ...     26413
Total number of primitive shell pairs       ...    111630
Primitive shell pairs kept                  ...     54985
          la=0 lb=0:   6667 shell pairs
          la=1 lb=0:   7617 shell pairs
          la=1 lb=1:   2207 shell pairs
          la=2 lb=0:   3737 shell pairs
          la=2 lb=1:   2180 shell pairs
          la=2 lb=2:    572 shell pairs
          la=3 lb=0:   1764 shell pairs
          la=3 lb=1:   1035 shell pairs
          la=3 lb=2:    514 shell pairs
          la=3 lb=3:    120 shell pairs

Calculating one electron integrals          ... done (  0.0 sec)
Calculating RI/J V-Matrix + Cholesky decomp.... done (  0.1 sec)
Calculating Nuclear repulsion               ... done (  0.0 sec) ENN=   1411.189717697682 Eh

Diagonalization of the overlap matrix:
Smallest eigenvalue                        ... 8.608e-06
Time for diagonalization                   ...    0.090 sec
Threshold for overlap eigenvalues          ... 1.000e-07
Number of eigenvalues below threshold      ... 0
Time for construction of square roots      ...    0.049 sec
Total time needed                          ...    0.144 sec

-------------------
DFT GRID GENERATION
-------------------

General Integration Accuracy     IntAcc      ... 4.388
Radial Grid Type                 RadialGrid  ... OptM3 with GC (2021)
Angular Grid (max. ang.)         AngularGrid ... 4 (Lebedev-302)
Angular grid pruning method      GridPruning ... 4 (adaptive)
Weight generation scheme         WeightScheme... mBecke (2022)
Basis function cutoff            BFCut       ... 1.0000e-10
Integration weight cutoff        WCut        ... 1.0000e-14
Partially contracted basis set               ... off
Rotationally invariant grid construction     ... off
Angular grids for H and He will be reduced by one unit

Total number of grid points                  ...   159648
Total number of batches                      ...     2510
Average number of points per batch           ...       63
Average number of grid points per atom       ...     4838

--------------------
COSX GRID GENERATION
--------------------

GRIDX 1
-------
General Integration Accuracy     IntAcc      ... 3.816
Radial Grid Type                 RadialGrid  ... OptM3 with GC (2021)
Angular Grid (max. ang.)         AngularGrid ... 1 (Lebedev-50)
Angular grid pruning method      GridPruning ... 4 (adaptive)
Weight generation scheme         WeightScheme... mBecke (2022)
Basis function cutoff            BFCut       ... 1.0000e-10
Integration weight cutoff        WCut        ... 1.0000e-14
Partially contracted basis set               ... on
Rotationally invariant grid construction     ... off
Angular grids for H and He will be reduced by one unit

Total number of grid points                  ...    21297
Total number of batches                      ...      178
Average number of points per batch           ...      119
Average number of grid points per atom       ...      645
UseSFitting                                  ... on

GRIDX 2
-------
General Integration Accuracy     IntAcc      ... 4.020
Radial Grid Type                 RadialGrid  ... OptM3 with GC (2021)
Angular Grid (max. ang.)         AngularGrid ... 2 (Lebedev-110)
Angular grid pruning method      GridPruning ... 4 (adaptive)
Weight generation scheme         WeightScheme... mBecke (2022)
Basis function cutoff            BFCut       ... 1.0000e-10
Integration weight cutoff        WCut        ... 1.0000e-14
Partially contracted basis set               ... on
Rotationally invariant grid construction     ... off
Angular grids for H and He will be reduced by one unit

Total number of grid points                  ...    44062
Total number of batches                      ...      359
Average number of points per batch           ...      122
Average number of grid points per atom       ...     1335
UseSFitting                                  ... on

GRIDX 3
-------
General Integration Accuracy     IntAcc      ... 4.338
Radial Grid Type                 RadialGrid  ... OptM3 with GC (2021)
Angular Grid (max. ang.)         AngularGrid ... 3 (Lebedev-194)
Angular grid pruning method      GridPruning ... 4 (adaptive)
Weight generation scheme         WeightScheme... mBecke (2022)
Basis function cutoff            BFCut       ... 1.0000e-10
Integration weight cutoff        WCut        ... 1.0000e-14
Partially contracted basis set               ... on
Rotationally invariant grid construction     ... off
Angular grids for H and He will be reduced by one unit

Total number of grid points                  ...    96938
Total number of batches                      ...      773
Average number of points per batch           ...      125
Average number of grid points per atom       ...     2938
UseSFitting                                  ... on
Initializing property integral containers    ... done (  0.0 sec)

SHARK setup successfully completed in   3.5 seconds

Maximum memory used throughout the entire STARTUP-calculation: 63.6 MB


           ************************************************************
           *        Program running with 6 parallel MPI-processes     *
           *              working on a common directory               *
           ************************************************************
-------------------------------------------------------------------------------
                                 ORCA GUESS
                   Start orbitals & Density for SCF / CASSCF
-------------------------------------------------------------------------------

------------
SCF SETTINGS
------------
Hamiltonian:
 Density Functional     Method          .... DFT(GTOs)
 Exchange Functional    Exchange        .... M062X
 Correlation Functional Correlation     .... M062X
 Gradients option       PostSCFGGA      .... off
 Hybrid DFT is turned on
   Fraction HF Exchange ScalHFX         ....  0.540000
   Scaling of DF-GGA-X  ScalDFX         ....  0.460000
   Scaling of DF-GGA-C  ScalDFC         ....  1.000000
   Scaling of DF-LDA-C  ScalLDAC        ....  1.000000
   Perturbative correction              ....  0.000000
 RI-approximation to the Coulomb term is turned on
   Number of AuxJ basis functions       .... 1087
   RIJ-COSX (HFX calculated with COS-X)).... on


General Settings:
 Integral files         IntName         .... data/single_point_P_M06-2x/621893/621893
 Hartree-Fock type      HFTyp           .... RHF
 Total Charge           Charge          ....    0
 Multiplicity           Mult            ....    1
 Number of Electrons    NEL             ....  138
 Basis Dimension        Dim             ....  679
 Nuclear Repulsion      ENuc            ....   1411.1897176977 Eh

Convergence Acceleration:
 AO-DIIS                CNVDIIS         .... on
   Start iteration      DIISMaxIt       ....    12
   Startup error        DIISStart       ....  0.200000
   # of expansion vecs  DIISMaxEq       ....     5
   Bias factor          DIISBfac        ....   1.050
   Max. coefficient     DIISMaxC        ....  10.000
 MO-DIIS                CNVKDIIS        .... off
 Trust-Rad. Augm. Hess. CNVTRAH         .... auto
   Auto Start mean grad. ratio tolernc. ....  1.125000
   Auto Start start iteration           ....    50
   Auto Start num. interpolation iter.  ....    10
   Max. Number of Micro iterations      ....    24
   Max. Number of Macro iterations      .... Maxiter - #DIIS iter
   Number of Davidson start vectors     ....     2
   Converg. threshold    (grad. norm)   ....   5.000e-05
   Grad. Scal. Fac. for Micro threshold ....   0.100
   Minimum threshold for Micro iter.    ....   1.000e-02
   NR start threshold (gradient norm)   ....   1.000e-04
   Initial trust radius                 ....   0.400
   Minimum AH scaling param. (alpha)    ....   1.000
   Maximum AH scaling param. (alpha)    .... 1000.000
   Quad. conv. algorithm                .... NR
   White noise on init. David. guess    .... on
   Maximum white noise                  ....   0.010
   Pseudo random numbers                .... off
   Inactive MOs                         .... canonical
   Orbital update algorithm             .... Taylor
   Preconditioner                       .... Diag
   Full preconditioner red. dimension   ....   250
 SOSCF                  CNVSOSCF        .... on
   Start iteration      SOSCFMaxIt      ....   150
   Startup grad/error   SOSCFStart      ....  0.003300
   Hessian update       SOSCFHessUp     .... L-BFGS
 Level Shifting         CNVShift        .... on
   Level shift para.    LevelShift      ....    0.2500
   Turn off err/grad.   ShiftErr        ....    0.0010
 Zerner damping         CNVZerner       .... off
 Static damping         CNVDamp         .... on
   Fraction old density DampFac         ....    0.7000
   Max. Damping (<1)    DampMax         ....    0.9800
   Min. Damping (>=0)   DampMin         ....    0.0000
   Turn off err/grad.   DampErr         ....    0.1000

SCF Procedure:
 Maximum # iterations   MaxIter         ....   125
 SCF integral mode      SCFMode         .... Direct
   Integral package                     .... SHARK and LIBINT hybrid scheme
 Reset frequency        DirectResetFreq ....    20
 Integral Threshold     Thresh          ....  1.000e-10 Eh
 Primitive CutOff       TCut            ....  1.000e-11 Eh

Convergence Tolerance:
 Convergence Check Mode ConvCheckMode   .... Total+1el-Energy
 Convergence forced     ConvForced      .... 0
 Energy Change          TolE            ....  1.000e-06 Eh
 1-El. energy change                    ....  1.000e-03 Eh
 Orbital Gradient       TolG            ....  5.000e-05
 Orbital Rotation angle TolX            ....  5.000e-05
 DIIS Error             TolErr          ....  1.000e-05

------------------------------
INITIAL GUESS: MODEL POTENTIAL
------------------------------
Loading Hartree-Fock densities                     ... done
Calculating cut-offs                               ... done
Initializing the effective Hamiltonian             ... done
Setting up the integral package (SHARK)            ... done
Starting the Coulomb interaction                   ... done (   0.3 sec)
Making the grid                                    ... done (   0.3 sec)
Mapping shells                                     ... done
Starting the XC term evaluation                    ... done (   0.4 sec)
  promolecular density results
     # of electrons  =    137.994087707
     EX              =   -119.997024653
     EC              =     -4.652873621
     EX+EC           =   -124.649898274
Transforming the Hamiltonian                       ... done (   0.0 sec)
Diagonalizing the Hamiltonian                      ... done (   0.1 sec)
Back transforming the eigenvectors                 ... done (   0.0 sec)
Now organizing SCF variables                       ... done
                      ------------------
                      INITIAL GUESS DONE (   1.3 sec)
                      ------------------
             **** ENERGY FILE WAS UPDATED (data/single_point_P_M06-2x/621893/621893.en.tmp) ****
Finished Guess after   1.5 sec
Maximum memory used throughout the entire GUESS-calculation: 47.9 MB


           ************************************************************
           *        Program running with 6 parallel MPI-processes     *
           *              working on a common directory               *
           ************************************************************

-------------------------------------------------------------------------------------------
                                      ORCA LEAN-SCF
                              memory conserving SCF solver
-------------------------------------------------------------------------------------------

----------------------------------------D-I-I-S--------------------------------------------
Iteration    Energy (Eh)           Delta-E    RMSDP     MaxDP     DIISErr   Damp  Time(sec)
-------------------------------------------------------------------------------------------
               ***  Starting incremental Fock matrix formation  ***
    1    -1051.8477126868820051     0.00e+00  1.14e-03  3.90e-02  1.81e-01  0.700  12.8
    2    -1052.0280786771422754    -1.80e-01  9.17e-04  2.91e-02  9.51e-02  0.700   7.4
                               ***Turning on AO-DIIS***
    3    -1052.1155552714653822    -8.75e-02  6.24e-04  2.16e-02  4.01e-02  0.700   7.1
    4    -1052.1671667349246491    -5.16e-02  1.46e-03  5.29e-02  2.79e-02  0.000   6.8
    5    -1052.2774194638959671    -1.10e-01  1.23e-04  1.58e-02  3.43e-03  0.000   7.1
                              *** Initializing SOSCF ***
---------------------------------------S-O-S-C-F--------------------------------------
Iteration    Energy (Eh)           Delta-E    RMSDP     MaxDP     MaxGrad    Time(sec)
--------------------------------------------------------------------------------------
    6    -1052.2776924950580906    -2.73e-04  5.52e-05  6.21e-03  1.34e-03     6.5
               *** Restarting incremental Fock matrix formation ***
    7    -1052.2776708992123531     2.16e-05  1.04e-04  4.93e-03  4.08e-04    12.7
    8    -1052.2776766036654408    -5.70e-06  4.66e-05  2.10e-03  3.66e-04     9.1
    9    -1052.2776809837496330    -4.38e-06  3.78e-05  1.91e-03  7.79e-05     8.6
   10    -1052.2776812065453669    -2.23e-07  8.08e-06  3.74e-04  3.57e-05     8.2
                 **** Energy Check signals convergence ****

               *****************************************************
               *                     SUCCESS                       *
               *           SCF CONVERGED AFTER  10 CYCLES          *
               *****************************************************

Recomputing exchange energy using gridx3       ... done (   18.206 sec)
Old exchange energy                            :    -65.978758252 Eh
New exchange energy                            :    -65.978715469 Eh
Exchange energy change after final integration :      0.000042783 Eh
Total energy after final integration           :  -1052.277638424 Eh
             **** ENERGY FILE WAS UPDATED (data/single_point_P_M06-2x/621893/621893.en.tmp) ****

----------------
TOTAL SCF ENERGY
----------------

Total Energy       :      -1052.27763842376999 Eh          -28633.93026 eV

Components:
Nuclear Repulsion  :       1411.18971769768177 Eh           38400.42446 eV
Electronic Energy  :      -2463.46739890422668 Eh          -67034.35588 eV
One Electron Energy:      -4236.68674064397328 Eh         -115286.10725 eV
Two Electron Energy:       1773.21934173974637 Eh           48251.75136 eV

Virial components:
Potential Energy   :      -2099.34720643862875 Eh          -57126.14172 eV
Kinetic Energy     :       1047.06956801485899 Eh           28492.21146 eV
Virial Ratio       :          2.00497394878813

DFT components:
N(Alpha)           :       68.999954474499 electrons
N(Beta)            :       68.999954474499 electrons
N(Total)           :      137.999908948998 electrons
E(XC)              :      -61.233557572873 Eh       

---------------
SCF CONVERGENCE
---------------

  Last Energy change         ...    2.2280e-07  Tolerance :   1.0000e-06
  Last MAX-Density change    ...    3.7424e-04  Tolerance :   1.0000e-05
  Last RMS-Density change    ...    8.0754e-06  Tolerance :   1.0000e-06
  Last DIIS Error            ...    1.3397e-03  Tolerance :   1.0000e-05
  Last Orbital Gradient      ...    3.5716e-05  Tolerance :   5.0000e-05
  Last Orbital Rotation      ...    9.3111e-05  Tolerance :   5.0000e-05


----------------
ORBITAL ENERGIES
----------------

  NO   OCC          E(Eh)            E(eV) 
   0   2.0000     -78.030095     -2123.3068 
   1   2.0000     -14.758133      -401.5892 
   2   2.0000     -10.589115      -288.1445 
   3   2.0000     -10.588224      -288.1202 
   4   2.0000     -10.572565      -287.6941 
   5   2.0000     -10.563707      -287.4531 
   6   2.0000     -10.562676      -287.4250 
   7   2.0000     -10.552054      -287.1360 
   8   2.0000     -10.551003      -287.1074 
   9   2.0000     -10.550843      -287.1030 
  10   2.0000     -10.549490      -287.0662 
  11   2.0000     -10.548467      -287.0384 
  12   2.0000     -10.547491      -287.0118 
  13   2.0000     -10.545341      -286.9533 
  14   2.0000     -10.544311      -286.9253 
  15   2.0000     -10.543151      -286.8937 
  16   2.0000     -10.542923      -286.8875 
  17   2.0000     -10.542412      -286.8736 
  18   2.0000     -10.541893      -286.8595 
  19   2.0000      -6.846314      -186.2977 
  20   2.0000      -4.960884      -134.9925 
  21   2.0000      -4.960547      -134.9833 
  22   2.0000      -4.960413      -134.9797 
  23   2.0000      -1.054218       -28.6867 
  24   2.0000      -0.955087       -25.9892 
  25   2.0000      -0.947203       -25.7747 
  26   2.0000      -0.906819       -24.6758 
  27   2.0000      -0.871259       -23.7082 
  28   2.0000      -0.846252       -23.0277 
  29   2.0000      -0.838451       -22.8154 
  30   2.0000      -0.833371       -22.6772 
  31   2.0000      -0.829374       -22.5684 
  32   2.0000      -0.740694       -20.1553 
  33   2.0000      -0.718076       -19.5398 
  34   2.0000      -0.695581       -18.9277 
  35   2.0000      -0.684100       -18.6153 
  36   2.0000      -0.678734       -18.4693 
  37   2.0000      -0.670682       -18.2502 
  38   2.0000      -0.635054       -17.2807 
  39   2.0000      -0.592259       -16.1162 
  40   2.0000      -0.584142       -15.8953 
  41   2.0000      -0.568042       -15.4572 
  42   2.0000      -0.554218       -15.0810 
  43   2.0000      -0.531389       -14.4598 
  44   2.0000      -0.520426       -14.1615 
  45   2.0000      -0.514493       -14.0001 
  46   2.0000      -0.509579       -13.8663 
  47   2.0000      -0.507084       -13.7985 
  48   2.0000      -0.487538       -13.2666 
  49   2.0000      -0.485559       -13.2127 
  50   2.0000      -0.482207       -13.1215 
  51   2.0000      -0.478155       -13.0113 
  52   2.0000      -0.465046       -12.6545 
  53   2.0000      -0.457112       -12.4386 
  54   2.0000      -0.440813       -11.9951 
  55   2.0000      -0.431293       -11.7361 
  56   2.0000      -0.428858       -11.6698 
  57   2.0000      -0.401327       -10.9207 
  58   2.0000      -0.398810       -10.8522 
  59   2.0000      -0.390665       -10.6305 
  60   2.0000      -0.376274       -10.2389 
  61   2.0000      -0.352315        -9.5870 
  62   2.0000      -0.334608        -9.1051 
  63   2.0000      -0.324381        -8.8269 
  64   2.0000      -0.320024        -8.7083 
  65   2.0000      -0.307440        -8.3659 
  66   2.0000      -0.304307        -8.2806 
  67   2.0000      -0.297017        -8.0822 
  68   2.0000      -0.270032        -7.3479 
  69   0.0000      -0.020007        -0.5444 
  70   0.0000      -0.000583        -0.0159 
  71   0.0000       0.003612         0.0983 
  72   0.0000       0.015158         0.4125 
  73   0.0000       0.018201         0.4953 
  74   0.0000       0.030821         0.8387 
  75   0.0000       0.073201         1.9919 
  76   0.0000       0.078414         2.1337 
  77   0.0000       0.082290         2.2392 
  78   0.0000       0.095318         2.5937 
  79   0.0000       0.100269         2.7285 
*Only the first 10 virtual orbitals were printed.

                    ********************************
                    * MULLIKEN POPULATION ANALYSIS *
                    ********************************

-----------------------
MULLIKEN ATOMIC CHARGES
-----------------------
   0 C :   -0.145696
   1 C :   -0.155344
   2 C :   -0.184545
   3 C :    0.022915
   4 C :   -0.164013
   5 C :   -0.161556
   6 P :    0.132402
   7 C :   -0.096221
   8 C :   -0.180923
   9 C :   -0.144375
  10 C :   -0.136725
  11 C :   -0.152618
  12 C :   -0.126458
  13 C :    0.045225
  14 C :   -0.160736
  15 C :   -0.105894
  16 C :   -0.143206
  17 C :   -0.061911
  18 N :   -0.257180
  19 H :    0.141870
  20 H :    0.140322
  21 H :    0.164829
  22 H :    0.182861
  23 H :    0.142359
  24 H :    0.205158
  25 H :    0.145759
  26 H :    0.145340
  27 H :    0.143974
  28 H :    0.154944
  29 H :    0.159665
  30 H :    0.153948
  31 H :    0.149711
  32 H :    0.146121
Sum of atomic charges:    0.0000000

--------------------------------
MULLIKEN REDUCED ORBITAL CHARGES
--------------------------------
  0 C s       :     3.224404  s :     3.224404
      pz      :     0.976556  p :     2.853785
      px      :     0.982964
      py      :     0.894266
      dz2     :     0.005167  d :     0.061185
      dxz     :     0.008177
      dyz     :     0.018388
      dx2y2   :     0.013983
      dxy     :     0.015470
      f0      :     0.000827  f :     0.006322
      f+1     :     0.000668
      f-1     :     0.000816
      f+2     :     0.000978
      f-2     :     0.000825
      f+3     :     0.001257
      f-3     :     0.000951

  1 C s       :     3.229961  s :     3.229961
      pz      :     0.963354  p :     2.858439
      px      :     0.903655
      py      :     0.991430
      dz2     :     0.013766  d :     0.060610
      dxz     :     0.010222
      dyz     :     0.008373
      dx2y2   :     0.015985
      dxy     :     0.012263
      f0      :     0.000606  f :     0.006333
      f+1     :     0.001365
      f-1     :     0.000645
      f+2     :     0.000721
      f-2     :     0.001024
      f+3     :     0.000942
      f-3     :     0.001031

  2 C s       :     3.209471  s :     3.209471
      pz      :     0.984736  p :     2.902861
      px      :     0.990491
      py      :     0.927634
      dz2     :     0.011391  d :     0.065524
      dxz     :     0.008000
      dyz     :     0.014159
      dx2y2   :     0.012844
      dxy     :     0.019132
      f0      :     0.000772  f :     0.006688
      f+1     :     0.001192
      f-1     :     0.000650
      f+2     :     0.001057
      f-2     :     0.000831
      f+3     :     0.001349
      f-3     :     0.000838

  3 C s       :     3.243500  s :     3.243500
      pz      :     0.903392  p :     2.649231
      px      :     0.913152
      py      :     0.832688
      dz2     :     0.011214  d :     0.077372
      dxz     :     0.012349
      dyz     :     0.018338
      dx2y2   :     0.017607
      dxy     :     0.017863
      f0      :     0.000841  f :     0.006982
      f+1     :     0.000995
      f-1     :     0.000749
      f+2     :     0.001087
      f-2     :     0.000917
      f+3     :     0.001407
      f-3     :     0.000984

  4 C s       :     3.200721  s :     3.200721
      pz      :     0.984308  p :     2.891561
      px      :     0.887114
      py      :     1.020139
      dz2     :     0.013075  d :     0.065150
      dxz     :     0.011907
      dyz     :     0.008729
      dx2y2   :     0.019153
      dxy     :     0.012285
      f0      :     0.000642  f :     0.006582
      f+1     :     0.001395
      f-1     :     0.000615
      f+2     :     0.000792
      f-2     :     0.001040
      f+3     :     0.001031
      f-3     :     0.001069

  5 C s       :     3.231671  s :     3.231671
      pz      :     0.970449  p :     2.862167
      px      :     0.957636
      py      :     0.934083
      dz2     :     0.011803  d :     0.061393
      dxz     :     0.007569
      dyz     :     0.013097
      dx2y2   :     0.012823
      dxy     :     0.016100
      f0      :     0.000725  f :     0.006325
      f+1     :     0.001123
      f-1     :     0.000666
      f+2     :     0.001042
      f-2     :     0.000738
      f+3     :     0.001255
      f-3     :     0.000777

  6 P s       :     5.735061  s :     5.735061
      pz      :     3.364321  p :     8.861090
      px      :     2.748041
      py      :     2.748728
      dz2     :     0.028519  d :     0.246734
      dxz     :     0.055020
      dyz     :     0.039342
      dx2y2   :     0.060347
      dxy     :     0.063507
      f0      :     0.002601  f :     0.024712
      f+1     :     0.003106
      f-1     :     0.002139
      f+2     :     0.004886
      f-2     :     0.004844
      f+3     :     0.003978
      f-3     :     0.003158

  7 C s       :     3.251989  s :     3.251989
      pz      :     0.880683  p :     2.761095
      px      :     0.988025
      py      :     0.892387
      dz2     :     0.015143  d :     0.076168
      dxz     :     0.020051
      dyz     :     0.019596
      dx2y2   :     0.009346
      dxy     :     0.012031
      f0      :     0.001163  f :     0.006969
      f+1     :     0.001100
      f-1     :     0.001688
      f+2     :     0.000806
      f-2     :     0.000661
      f+3     :     0.000857
      f-3     :     0.000694

  8 C s       :     3.221632  s :     3.221632
      pz      :     0.921530  p :     2.884441
      px      :     0.929496
      py      :     1.033416
      dz2     :     0.011912  d :     0.068353
      dxz     :     0.013141
      dyz     :     0.022069
      dx2y2   :     0.008579
      dxy     :     0.012652
      f0      :     0.000968  f :     0.006497
      f+1     :     0.000958
      f-1     :     0.001458
      f+2     :     0.000987
      f-2     :     0.000304
      f+3     :     0.000969
      f-3     :     0.000853

  9 C s       :     3.222726  s :     3.222726
      pz      :     1.001924  p :     2.855436
      px      :     0.962249
      py      :     0.891262
      dz2     :     0.013086  d :     0.059976
      dxz     :     0.005918
      dyz     :     0.015037
      dx2y2   :     0.007483
      dxy     :     0.018452
      f0      :     0.000919  f :     0.006237
      f+1     :     0.000276
      f-1     :     0.001254
      f+2     :     0.000940
      f-2     :     0.000795
      f+3     :     0.001184
      f-3     :     0.000870

 10 C s       :     3.225026  s :     3.225026
      pz      :     0.893628  p :     2.843835
      px      :     0.958115
      py      :     0.992093
      dz2     :     0.012634  d :     0.061571
      dxz     :     0.019632
      dyz     :     0.015089
      dx2y2   :     0.007355
      dxy     :     0.006859
      f0      :     0.001112  f :     0.006293
      f+1     :     0.001051
      f-1     :     0.001422
      f+2     :     0.000734
      f-2     :     0.000688
      f+3     :     0.000614
      f-3     :     0.000673

 11 C s       :     3.228729  s :     3.228729
      pz      :     0.934102  p :     2.857042
      px      :     0.970233
      py      :     0.952707
      dz2     :     0.012115  d :     0.060543
      dxz     :     0.013217
      dyz     :     0.015397
      dx2y2   :     0.008572
      dxy     :     0.011241
      f0      :     0.000962  f :     0.006305
      f+1     :     0.001033
      f-1     :     0.001387
      f+2     :     0.000915
      f-2     :     0.000246
      f+3     :     0.000951
      f-3     :     0.000811

 12 C s       :     3.187878  s :     3.187878
      pz      :     1.006055  p :     2.866594
      px      :     0.951606
      py      :     0.908933
      dz2     :     0.014977  d :     0.065513
      dxz     :     0.005431
      dyz     :     0.016572
      dx2y2   :     0.008031
      dxy     :     0.020502
      f0      :     0.000899  f :     0.006473
      f+1     :     0.000250
      f-1     :     0.001388
      f+2     :     0.000925
      f-2     :     0.000815
      f+3     :     0.001220
      f-3     :     0.000976

 13 C s       :     3.180816  s :     3.180816
      pz      :     0.766047  p :     2.647323
      px      :     0.959262
      py      :     0.922014
      dz2     :     0.022621  d :     0.116577
      dxz     :     0.040414
      dyz     :     0.029176
      dx2y2   :     0.013071
      dxy     :     0.011295
      f0      :     0.001771  f :     0.010059
      f+1     :     0.003177
      f-1     :     0.002263
      f+2     :     0.000536
      f-2     :     0.000723
      f+3     :     0.000857
      f-3     :     0.000730

 14 C s       :     3.205510  s :     3.205510
      pz      :     1.017875  p :     2.884155
      px      :     0.919991
      py      :     0.946290
      dz2     :     0.017609  d :     0.064601
      dxz     :     0.012726
      dyz     :     0.007315
      dx2y2   :     0.015730
      dxy     :     0.011220
      f0      :     0.000796  f :     0.006469
      f+1     :     0.001338
      f-1     :     0.000498
      f+2     :     0.000817
      f-2     :     0.000867
      f+3     :     0.001269
      f-3     :     0.000885

 15 C s       :     3.224849  s :     3.224849
      pz      :     0.917799  p :     2.813433
      px      :     0.966895
      py      :     0.928739
      dz2     :     0.011100  d :     0.061309
      dxz     :     0.016637
      dyz     :     0.015787
      dx2y2   :     0.010218
      dxy     :     0.007567
      f0      :     0.000869  f :     0.006304
      f+1     :     0.001510
      f-1     :     0.001223
      f+2     :     0.000523
      f-2     :     0.000598
      f+3     :     0.000889
      f-3     :     0.000690

 16 C s       :     3.221574  s :     3.221574
      pz      :     0.911185  p :     2.856523
      px      :     0.963424
      py      :     0.981914
      dz2     :     0.010760  d :     0.058893
      dxz     :     0.016831
      dyz     :     0.016116
      dx2y2   :     0.006725
      dxy     :     0.008461
      f0      :     0.000861  f :     0.006216
      f+1     :     0.001534
      f-1     :     0.001145
      f+2     :     0.000438
      f-2     :     0.000714
      f+3     :     0.000716
      f-3     :     0.000807

 17 C s       :     3.216555  s :     3.216555
      pz      :     0.987810  p :     2.734257
      px      :     0.857139
      py      :     0.889308
      dz2     :     0.028284  d :     0.101749
      dxz     :     0.018316
      dyz     :     0.011078
      dx2y2   :     0.024422
      dxy     :     0.019650
      f0      :     0.000720  f :     0.009349
      f+1     :     0.002131
      f-1     :     0.000762
      f+2     :     0.001193
      f-2     :     0.001286
      f+3     :     0.001844
      f-3     :     0.001414

 18 N s       :     3.655414  s :     3.655414
      pz      :     1.074277  p :     3.538228
      px      :     1.323724
      py      :     1.140228
      dz2     :     0.013575  d :     0.059867
      dxz     :     0.014322
      dyz     :     0.012184
      dx2y2   :     0.010555
      dxy     :     0.009231
      f0      :     0.000698  f :     0.003670
      f+1     :     0.000832
      f-1     :     0.000748
      f+2     :     0.000365
      f-2     :     0.000392
      f+3     :     0.000391
      f-3     :     0.000244

 19 H s       :     0.838553  s :     0.838553
      pz      :     0.006266  p :     0.019578
      px      :     0.009676
      py      :     0.003635

 20 H s       :     0.840077  s :     0.840077
      pz      :     0.004009  p :     0.019600
      px      :     0.003117
      py      :     0.012474

 21 H s       :     0.815490  s :     0.815490
      pz      :     0.004358  p :     0.019681
      px      :     0.007945
      py      :     0.007378

 22 H s       :     0.797056  s :     0.797056
      pz      :     0.003954  p :     0.020083
      px      :     0.003285
      py      :     0.012844

 23 H s       :     0.838062  s :     0.838062
      pz      :     0.004429  p :     0.019579
      px      :     0.007771
      py      :     0.007379

 24 H s       :     0.773982  s :     0.773982
      pz      :     0.007094  p :     0.020860
      px      :     0.003457
      py      :     0.010309

 25 H s       :     0.834598  s :     0.834598
      pz      :     0.012633  p :     0.019643
      px      :     0.003948
      py      :     0.003062

 26 H s       :     0.835066  s :     0.835066
      pz      :     0.003674  p :     0.019593
      px      :     0.004030
      py      :     0.011890

 27 H s       :     0.836344  s :     0.836344
      pz      :     0.007330  p :     0.019682
      px      :     0.003856
      py      :     0.008496

 28 H s       :     0.825161  s :     0.825161
      pz      :     0.012782  p :     0.019895
      px      :     0.003874
      py      :     0.003240

 29 H s       :     0.820145  s :     0.820145
      pz      :     0.013509  p :     0.020190
      px      :     0.002926
      py      :     0.003755

 30 H s       :     0.826346  s :     0.826346
      pz      :     0.005789  p :     0.019706
      px      :     0.009343
      py      :     0.004574

 31 H s       :     0.830436  s :     0.830436
      pz      :     0.005235  p :     0.019853
      px      :     0.008781
      py      :     0.005837

 32 H s       :     0.834335  s :     0.834335
      pz      :     0.013801  p :     0.019544
      px      :     0.002510
      py      :     0.003233



                     *******************************
                     * LOEWDIN POPULATION ANALYSIS *
                     *******************************

----------------------
LOEWDIN ATOMIC CHARGES
----------------------
   0 C :   -0.146343
   1 C :   -0.145300
   2 C :   -0.136869
   3 C :   -0.271432
   4 C :   -0.137697
   5 C :   -0.145211
   6 P :    0.697092
   7 C :   -0.279735
   8 C :   -0.125822
   9 C :   -0.142807
  10 C :   -0.138687
  11 C :   -0.146129
  12 C :   -0.146853
  13 C :   -0.335826
  14 C :   -0.149546
  15 C :   -0.120632
  16 C :   -0.148052
  17 C :   -0.198316
  18 N :    0.131111
  19 H :    0.145633
  20 H :    0.146449
  21 H :    0.150191
  22 H :    0.154870
  23 H :    0.146760
  24 H :    0.159751
  25 H :    0.147559
  26 H :    0.146904
  27 H :    0.147021
  28 H :    0.147764
  29 H :    0.151465
  30 H :    0.150809
  31 H :    0.149691
  32 H :    0.142186

-------------------------------
LOEWDIN REDUCED ORBITAL CHARGES
-------------------------------
  0 C s       :     2.778356  s :     2.778356
      pz      :     0.918181  p :     2.952709
      px      :     0.974835
      py      :     1.059693
      dz2     :     0.027268  d :     0.374653
      dxz     :     0.044726
      dyz     :     0.079861
      dx2y2   :     0.113829
      dxy     :     0.108969
      f0      :     0.003601  f :     0.040626
      f+1     :     0.001907
      f-1     :     0.005924
      f+2     :     0.005374
      f-2     :     0.005622
      f+3     :     0.010470
      f-3     :     0.007728

  1 C s       :     2.777733  s :     2.777733
      pz      :     0.934803  p :     2.949844
      px      :     1.021670
      py      :     0.993372
      dz2     :     0.052739  d :     0.377015
      dxz     :     0.067532
      dyz     :     0.043186
      dx2y2   :     0.130332
      dxy     :     0.083227
      f0      :     0.003738  f :     0.040708
      f+1     :     0.004387
      f-1     :     0.003963
      f+2     :     0.005109
      f-2     :     0.007249
      f+3     :     0.008581
      f-3     :     0.007681

  2 C s       :     2.775579  s :     2.775579
      pz      :     0.927886  p :     2.939271
      px      :     0.989757
      py      :     1.021629
      dz2     :     0.044796  d :     0.381144
      dxz     :     0.042353
      dyz     :     0.074016
      dx2y2   :     0.082672
      dxy     :     0.137307
      f0      :     0.004062  f :     0.040875
      f+1     :     0.004147
      f-1     :     0.003696
      f+2     :     0.007019
      f-2     :     0.005057
      f+3     :     0.010189
      f-3     :     0.006704

  3 C s       :     2.780805  s :     2.780805
      pz      :     0.930499  p :     2.990817
      px      :     1.000185
      py      :     1.060133
      dz2     :     0.056467  d :     0.454984
      dxz     :     0.070458
      dyz     :     0.086103
      dx2y2   :     0.123342
      dxy     :     0.118614
      f0      :     0.003534  f :     0.044826
      f+1     :     0.003603
      f-1     :     0.005801
      f+2     :     0.006135
      f-2     :     0.006154
      f+3     :     0.011433
      f-3     :     0.008166

  4 C s       :     2.775278  s :     2.775278
      pz      :     0.928953  p :     2.941223
      px      :     1.017107
      py      :     0.995163
      dz2     :     0.051407  d :     0.380495
      dxz     :     0.068376
      dyz     :     0.042167
      dx2y2   :     0.133941
      dxy     :     0.084604
      f0      :     0.003636  f :     0.040701
      f+1     :     0.004443
      f-1     :     0.003904
      f+2     :     0.005078
      f-2     :     0.007160
      f+3     :     0.008688
      f-3     :     0.007792

  5 C s       :     2.777966  s :     2.777966
      pz      :     0.930229  p :     2.949542
      px      :     0.987235
      py      :     1.032078
      dz2     :     0.046164  d :     0.377049
      dxz     :     0.040524
      dyz     :     0.074364
      dx2y2   :     0.082259
      dxy     :     0.133738
      f0      :     0.004103  f :     0.040653
      f+1     :     0.004035
      f-1     :     0.003670
      f+2     :     0.007095
      f-2     :     0.004978
      f+3     :     0.010055
      f-3     :     0.006718

  6 P s       :     4.942023  s :     4.942023
      pz      :     3.304738  p :     8.794987
      px      :     2.741239
      py      :     2.749011
      dz2     :     0.071940  d :     0.472989
      dxz     :     0.096113
      dyz     :     0.071220
      dx2y2   :     0.116673
      dxy     :     0.117043
      f0      :     0.007769  f :     0.092909
      f+1     :     0.011409
      f-1     :     0.007765
      f+2     :     0.019048
      f-2     :     0.017854
      f+3     :     0.014048
      f-3     :     0.015016

  7 C s       :     2.779492  s :     2.779492
      pz      :     1.080553  p :     3.001255
      px      :     0.887765
      py      :     1.032936
      dz2     :     0.125527  d :     0.454258
      dxz     :     0.072322
      dyz     :     0.159981
      dx2y2   :     0.054831
      dxy     :     0.041597
      f0      :     0.009142  f :     0.044730
      f+1     :     0.004319
      f-1     :     0.013820
      f+2     :     0.006264
      f-2     :     0.005378
      f+3     :     0.002844
      f-3     :     0.002964

  8 C s       :     2.778622  s :     2.778622
      pz      :     1.030259  p :     2.927214
      px      :     0.865222
      py      :     1.031733
      dz2     :     0.082787  d :     0.379306
      dxz     :     0.048814
      dyz     :     0.160927
      dx2y2   :     0.046083
      dxy     :     0.040695
      f0      :     0.008036  f :     0.040680
      f+1     :     0.005666
      f-1     :     0.011224
      f+2     :     0.005110
      f-2     :     0.002039
      f+3     :     0.004149
      f-3     :     0.004455

  9 C s       :     2.778529  s :     2.778529
      pz      :     0.994486  p :     2.949466
      px      :     0.893013
      py      :     1.061966
      dz2     :     0.110592  d :     0.374399
      dxz     :     0.018523
      dyz     :     0.109121
      dx2y2   :     0.065862
      dxy     :     0.070301
      f0      :     0.005735  f :     0.040413
      f+1     :     0.001153
      f-1     :     0.011075
      f+2     :     0.006769
      f-2     :     0.006243
      f+3     :     0.004136
      f-3     :     0.005302

 10 C s       :     2.779533  s :     2.779533
      pz      :     1.061826  p :     2.943203
      px      :     0.882270
      py      :     0.999107
      dz2     :     0.117873  d :     0.375457
      dxz     :     0.070299
      dyz     :     0.120382
      dx2y2   :     0.044093
      dxy     :     0.022810
      f0      :     0.008489  f :     0.040493
      f+1     :     0.004464
      f-1     :     0.012085
      f+2     :     0.005299
      f-2     :     0.005266
      f+3     :     0.001988
      f-3     :     0.002902

 11 C s       :     2.778388  s :     2.778388
      pz      :     1.034372  p :     2.954102
      px      :     0.897789
      py      :     1.021941
      dz2     :     0.082248  d :     0.373241
      dxz     :     0.047822
      dyz     :     0.158778
      dx2y2   :     0.044720
      dxy     :     0.039673
      f0      :     0.008082  f :     0.040398
      f+1     :     0.005564
      f-1     :     0.011227
      f+2     :     0.005080
      f-2     :     0.001961
      f+3     :     0.004042
      f-3     :     0.004442

 12 C s       :     2.779477  s :     2.779477
      pz      :     0.996442  p :     2.942475
      px      :     0.881334
      py      :     1.064700
      dz2     :     0.113863  d :     0.384314
      dxz     :     0.018223
      dyz     :     0.108205
      dx2y2   :     0.068468
      dxy     :     0.075556
      f0      :     0.005647  f :     0.040586
      f+1     :     0.001112
      f-1     :     0.011032
      f+2     :     0.006843
      f-2     :     0.006508
      f+3     :     0.004182
      f-3     :     0.005261

 13 C s       :     2.794473  s :     2.794473
      pz      :     1.015248  p :     2.924035
      px      :     1.014914
      py      :     0.893873
      dz2     :     0.153345  d :     0.554162
      dxz     :     0.194327
      dyz     :     0.108844
      dx2y2   :     0.045246
      dxy     :     0.052400
      f0      :     0.012579  f :     0.063157
      f+1     :     0.022268
      f-1     :     0.012184
      f+2     :     0.004487
      f-2     :     0.004713
      f+3     :     0.003202
      f-3     :     0.003722

 14 C s       :     2.782900  s :     2.782900
      pz      :     1.000670  p :     2.956801
      px      :     1.031484
      py      :     0.924646
      dz2     :     0.115156  d :     0.369314
      dxz     :     0.082126
      dyz     :     0.035043
      dx2y2   :     0.068174
      dxy     :     0.068815
      f0      :     0.004031  f :     0.040530
      f+1     :     0.010719
      f-1     :     0.003177
      f+2     :     0.006504
      f-2     :     0.006743
      f+3     :     0.003954
      f-3     :     0.005402

 15 C s       :     2.781525  s :     2.781525
      pz      :     1.048375  p :     2.918944
      px      :     0.978431
      py      :     0.892139
      dz2     :     0.093108  d :     0.378875
      dxz     :     0.129695
      dyz     :     0.078742
      dx2y2   :     0.040130
      dxy     :     0.037200
      f0      :     0.006873  f :     0.041288
      f+1     :     0.012123
      f-1     :     0.007735
      f+2     :     0.002948
      f-2     :     0.004045
      f+3     :     0.003452
      f-3     :     0.004111

 16 C s       :     2.783841  s :     2.783841
      pz      :     1.049833  p :     2.962824
      px      :     0.993642
      py      :     0.919349
      dz2     :     0.092593  d :     0.360905
      dxz     :     0.126857
      dyz     :     0.072376
      dx2y2   :     0.028309
      dxy     :     0.040770
      f0      :     0.006898  f :     0.040482
      f+1     :     0.012212
      f-1     :     0.006763
      f+2     :     0.003577
      f-2     :     0.003965
      f+3     :     0.002861
      f-3     :     0.004205

 17 C s       :     2.790773  s :     2.790773
      pz      :     0.987786  p :     2.866721
      px      :     0.989978
      py      :     0.888957
      dz2     :     0.151814  d :     0.482056
      dxz     :     0.094627
      dyz     :     0.041316
      dx2y2   :     0.095448
      dxy     :     0.098851
      f0      :     0.004558  f :     0.058766
      f+1     :     0.016621
      f-1     :     0.005121
      f+2     :     0.008843
      f-2     :     0.008996
      f+3     :     0.005911
      f-3     :     0.008717

 18 N s       :     3.049158  s :     3.049158
      pz      :     1.231855  p :     3.582913
      px      :     1.281901
      py      :     1.069157
      dz2     :     0.064994  d :     0.219262
      dxz     :     0.061267
      dyz     :     0.045557
      dx2y2   :     0.023111
      dxy     :     0.024332
      f0      :     0.003337  f :     0.017555
      f+1     :     0.005057
      f-1     :     0.003266
      f+2     :     0.001139
      f-2     :     0.001819
      f+3     :     0.001472
      f-3     :     0.001466

 19 H s       :     0.798565  s :     0.798565
      pz      :     0.017808  p :     0.055802
      px      :     0.025881
      py      :     0.012112

 20 H s       :     0.797920  s :     0.797920
      pz      :     0.012599  p :     0.055631
      px      :     0.010717
      py      :     0.032316

 21 H s       :     0.793684  s :     0.793684
      pz      :     0.013583  p :     0.056124
      px      :     0.021770
      py      :     0.020771

 22 H s       :     0.787636  s :     0.787636
      pz      :     0.012769  p :     0.057494
      px      :     0.010850
      py      :     0.033875

 23 H s       :     0.797574  s :     0.797574
      pz      :     0.013594  p :     0.055666
      px      :     0.021376
      py      :     0.020696

 24 H s       :     0.780481  s :     0.780481
      pz      :     0.020664  p :     0.059768
      px      :     0.011304
      py      :     0.027801

 25 H s       :     0.796697  s :     0.796697
      pz      :     0.032700  p :     0.055744
      px      :     0.012304
      py      :     0.010740

 26 H s       :     0.797402  s :     0.797402
      pz      :     0.012201  p :     0.055694
      px      :     0.012418
      py      :     0.031075

 27 H s       :     0.797114  s :     0.797114
      pz      :     0.020569  p :     0.055865
      px      :     0.012100
      py      :     0.023196

 28 H s       :     0.795949  s :     0.795949
      pz      :     0.033310  p :     0.056287
      px      :     0.012233
      py      :     0.010744

 29 H s       :     0.791456  s :     0.791456
      pz      :     0.034928  p :     0.057078
      px      :     0.010097
      py      :     0.012053

 30 H s       :     0.793534  s :     0.793534
      pz      :     0.017040  p :     0.055657
      px      :     0.025019
      py      :     0.013598

 31 H s       :     0.793751  s :     0.793751
      pz      :     0.015748  p :     0.056558
      px      :     0.023937
      py      :     0.016873

 32 H s       :     0.803181  s :     0.803181
      pz      :     0.035590  p :     0.054633
      px      :     0.008731
      py      :     0.010311



                      *****************************
                      * MAYER POPULATION ANALYSIS *
                      *****************************

  NA   - Mulliken gross atomic population
  ZA   - Total nuclear charge
  QA   - Mulliken gross atomic charge
  VA   - Mayer's total valence
  BVA  - Mayer's bonded valence
  FA   - Mayer's free valence

  ATOM       NA         ZA         QA         VA         BVA        FA
  0 C      6.1457     6.0000    -0.1457     3.9391     3.9391     0.0000
  1 C      6.1553     6.0000    -0.1553     3.9781     3.9781     0.0000
  2 C      6.1845     6.0000    -0.1845     3.9492     3.9492     0.0000
  3 C      5.9771     6.0000     0.0229     3.7724     3.7724     0.0000
  4 C      6.1640     6.0000    -0.1640     3.8883     3.8883    -0.0000
  5 C      6.1616     6.0000    -0.1616     3.9730     3.9730     0.0000
  6 P     14.8676    15.0000     0.1324     3.0976     3.0976     0.0000
  7 C      6.0962     6.0000    -0.0962     3.7871     3.7871    -0.0000
  8 C      6.1809     6.0000    -0.1809     3.8509     3.8509     0.0000
  9 C      6.1444     6.0000    -0.1444     3.9459     3.9459     0.0000
 10 C      6.1367     6.0000    -0.1367     3.9363     3.9363     0.0000
 11 C      6.1526     6.0000    -0.1526     3.9603     3.9603    -0.0000
 12 C      6.1265     6.0000    -0.1265     3.9121     3.9121    -0.0000
 13 C      5.9548     6.0000     0.0452     3.8255     3.8255     0.0000
 14 C      6.1607     6.0000    -0.1607     3.9222     3.9222    -0.0000
 15 C      6.1059     6.0000    -0.1059     3.9326     3.9326    -0.0000
 16 C      6.1432     6.0000    -0.1432     3.8512     3.8512    -0.0000
 17 C      6.0619     6.0000    -0.0619     3.9983     3.9983    -0.0000
 18 N      7.2572     7.0000    -0.2572     2.8631     2.8631     0.0000
 19 H      0.8581     1.0000     0.1419     0.9643     0.9643     0.0000
 20 H      0.8597     1.0000     0.1403     0.9660     0.9660     0.0000
 21 H      0.8352     1.0000     0.1648     0.9520     0.9520    -0.0000
 22 H      0.8171     1.0000     0.1829     0.9467     0.9467    -0.0000
 23 H      0.8576     1.0000     0.1424     0.9660     0.9660     0.0000
 24 H      0.7948     1.0000     0.2052     0.9675     0.9675     0.0000
 25 H      0.8542     1.0000     0.1458     0.9657     0.9657    -0.0000
 26 H      0.8547     1.0000     0.1453     0.9637     0.9637     0.0000
 27 H      0.8560     1.0000     0.1440     0.9658     0.9658    -0.0000
 28 H      0.8451     1.0000     0.1549     0.9727     0.9727    -0.0000
 29 H      0.8403     1.0000     0.1597     0.9710     0.9710    -0.0000
 30 H      0.8461     1.0000     0.1539     0.9631     0.9631    -0.0000
 31 H      0.8503     1.0000     0.1497     0.9646     0.9646    -0.0000
 32 H      0.8539     1.0000     0.1461     0.9590     0.9590     0.0000

  Mayer bond orders larger than 0.100000
B(  0-C ,  1-C ) :   1.4315 B(  0-C ,  5-C ) :   1.4455 B(  0-C , 19-H ) :   0.9471 
B(  1-C ,  2-C ) :   1.4790 B(  1-C , 20-H ) :   0.9465 B(  2-C ,  3-C ) :   1.3673 
B(  2-C , 21-H ) :   0.9246 B(  3-C ,  4-C ) :   1.3580 B(  3-C ,  6-P ) :   0.9694 
B(  4-C ,  5-C ) :   1.4600 B(  4-C , 22-H ) :   0.9250 B(  5-C , 23-H ) :   0.9454 
B(  6-P ,  7-C ) :   0.9414 B(  6-P , 13-C ) :   0.9595 B(  7-C ,  8-C ) :   1.3294 
B(  7-C , 12-C ) :   1.4091 B(  8-C ,  9-C ) :   1.4639 B(  8-C , 24-H ) :   0.9138 
B(  9-C , 10-C ) :   1.4182 B(  9-C , 25-H ) :   0.9447 B( 10-C , 11-C ) :   1.4552 
B( 10-C , 26-H ) :   0.9471 B( 11-C , 12-C ) :   1.4484 B( 11-C , 27-H ) :   0.9498 
B( 12-C , 28-H ) :   0.9248 B( 13-C , 14-C ) :   1.4263 B( 13-C , 18-N ) :   1.2520 
B( 14-C , 15-C ) :   1.4339 B( 14-C , 29-H ) :   0.9245 B( 15-C , 16-C ) :   1.4349 
B( 15-C , 30-H ) :   0.9481 B( 16-C , 17-C ) :   1.3748 B( 16-C , 31-H ) :   0.9483 
B( 17-C , 18-N ) :   1.5050 B( 17-C , 32-H ) :   0.9724 

-------
TIMINGS
-------

Total SCF time: 0 days 0 hours 1 min 45 sec 

Total time                  ....     105.248 sec
Sum of individual times     ....     105.281 sec  (100.0%)

SCF preparation             ....       0.278 sec  (  0.3%)
Fock matrix formation       ....     101.747 sec  ( 96.7%)
  Startup                   ....       0.109 sec  (  0.1% of F)
  Split-RI-J                ....       7.192 sec  (  7.1% of F)
  Chain of spheres X        ....      72.214 sec  ( 71.0% of F)
  XC integration            ....      21.924 sec  ( 21.5% of F)
    Basis function eval.    ....       3.123 sec  ( 14.2% of XC)
    Density eval.           ....       8.820 sec  ( 40.2% of XC)
    XC-Functional eval.     ....       0.419 sec  (  1.9% of XC)
    XC-Potential eval.      ....       8.306 sec  ( 37.9% of XC)
Diagonalization             ....       0.000 sec  (  0.0%)
Density matrix formation    ....       0.298 sec  (  0.3%)
Total Energy calculation    ....       0.100 sec  (  0.1%)
Population analysis         ....       0.173 sec  (  0.2%)
Orbital Transformation      ....       0.368 sec  (  0.3%)
Orbital Orthonormalization  ....       0.000 sec  (  0.0%)
DIIS solution               ....       1.574 sec  (  1.5%)
SOSCF solution              ....       0.743 sec  (  0.7%)
Finished LeanSCF after 105.3 sec

Maximum memory used throughout the entire LEANSCF-calculation: 92.4 MB


-------------------------------------------------------------------------------
                          DFT DISPERSION CORRECTION                            
                                                                               
                              DFTD3 V3.1  Rev 1                                
                              USING zero damping                               
-------------------------------------------------------------------------------
The M062X functional is recognized
Active option DFTDOPT                   ...         3   

molecular C6(AA) [au] = 15998.334589 


            DFT-D V3
 parameters
 s6 scaling factor         :     1.0000 
 rs6 scaling factor        :     1.6190 
 s8 scaling factor         :     0.0000 
 rs8 scaling factor        :     1.0000 
 Damping factor alpha6     :    14.0000 
 Damping factor alpha8     :    16.0000 
 ad hoc parameters k1-k3   :    16.0000     1.3333    -4.0000 

 Edisp/kcal,au: -1.244697080865  -0.001983550846 
 E6   /kcal   :  -1.244697081 
 E8   /kcal   :  -0.000000000 
 % E8         :   0.000000000 

-------------------------   ----------------
Dispersion correction           -0.001983551
-------------------------   ----------------


-------------------------   --------------------
FINAL SINGLE POINT ENERGY     -1052.279621974616
-------------------------   --------------------



           ************************************************************
           *        Program running with 6 parallel MPI-processes     *
           *              working on a common directory               *
           ************************************************************

------------------------------------------------------------------------------
                              ORCA PROPERTY CALCULATIONS
------------------------------------------------------------------------------

GBWName                                 ... data/single_point_P_M06-2x/621893/621893.gbw
Number of atoms                         ...     33
Number of basis functions               ...    679
Max core memory                         ...   1024 MB

Electric properties:
Dipole moment                           ... YES
Quadrupole moment                       ...  NO
Static polarizability (Dipole/Dipole)   ...  NO
Static polarizability (Dipole/Quad.)    ...  NO
Static polarizability (Quad./Quad.)     ...  NO
Static polarizability (Velocity)        ...  NO

Atomic electric properties:
Dipole moment                           ...  NO
Quadrupole moment                       ...  NO
Static polarizability                   ...  NO

Choice of electric origin               ... Center of mass
Position of electric origin             ...    -0.004761    -0.114915     0.484472

General magnetic properties:
Magnetizability                         ...  NO

EPR properties:
g-Tensor (aka g-matrix)                 ...  NO
Zero-Field splitting spin-orbit         ...  NO
Zero-field splitting spin-spin          ...  NO
Hyperfine couplings                     ...  NO (   0 nuclei)
Quadrupole couplings                    ...  NO (   0 nuclei)
Contact density                         ...  NO (   0 nuclei)

NMR properties:
Chemical shifts                         ...  NO (   0 nuclei)
Spin-rotation constants                 ...  NO (   0 nuclei)
Spin-spin couplings                     ...  NO (   0 nuclei,    0 pairs)

Choice of magnetic origin               ... GIAO
Position of magnetic origin             ...     0.000000     0.000000     0.000000

Properties with geometric perturbations:
SCF Hessian                             ...  NO
IR spectrum                             ...  NO
VCD spectrum                            ...  NO
X-ray spectroscopy properties:
SCF XES/XAS/RIXS spectra                ...  NO


-------------
DIPOLE MOMENT
-------------

Method             : SCF
Type of density    : Electron Density
Multiplicity       :   1
Irrep              :   0
Energy             : -1052.2776384237699858 Eh
Relativity type    : 
Basis              : AO
                                X                 Y                 Z
Electronic contribution:     -0.790345734      -1.894814649       4.671311427
Nuclear contribution   :     -0.035335743       1.725487515      -4.911930707
                        -----------------------------------------
Total Dipole Moment    :     -0.825681477      -0.169327133      -0.240619280
                        -----------------------------------------
Magnitude (a.u.)       :      0.876538201
Magnitude (Debye)      :      2.227983046



--------------------
Rotational spectrum 
--------------------
 
Rotational constants in cm-1:             0.012076             0.011818             0.007197 
Rotational constants in MHz :           362.022106           354.292372           215.766216 

Dipole components along the rotational axes: 
x,y,z [a.u.] :     0.075310     0.815838    -0.311539 
x,y,z [Debye]:     0.191423     2.073694    -0.791869 

 

Dipole moment calculation done in   0.0 sec 

Maximum memory used throughout the entire PROP-calculation: 49.5 MB

--------------------------------
SUGGESTED CITATIONS FOR THIS RUN
--------------------------------

Below you find a list of papers that are relevant to this ORCA run
We neither can nor want to force you to cite these papers, but we appreciate if you do
You receive ORCA, which is the product of decades of hard work by many enthusiastic individuals, for free
The only thing we kindly ask in return is that you cite our papers,
We deeply appreciate it, if you show your appreciation for ORCA by not just citing the generic ORCA reference.

Please note that relegating all ORCA citations to the supporting information does *not* help us.
SI sections are not indexed - citations you put there will not count into any citation statistics
But we need these citations in order to attract the funding resources that allow us to do what we are doing

Therefore, if you are a happy ORCA user, please consider citing a few of the papers listed below in the main body of your paper

In addition to the list printed below, the program has created the file data/single_point_P_M06-2x/621893/621893.bibtex that contains the list in bibtex format
You can import this file easily into all common literature databanks and citation aid programs


List of essential papers. We consider these as the minimum necessary citations

  1. Neese,F.
     Software update: the ORCA program system, version 5.0
     WIRES Comput. Molec. Sci., 2022 12(1)e1606
     doi.org/10.1002/wcms.1606

List of papers to cite with high priority. The work reported in these papers was absolutely
necessary for this run to complete.
Our perspective: the developers of density functionals and basis sets usually get cited in chemistry papers
Good! But without the algorithms to do something with them, the functionals or basis sets would not do anything.
Hence, in our opinion, the algorithm design and method developments papers are equally worthy of getting cited

  1. Neese,F.
     An improvement of the resolution of the identity approximation for the formation of the Coulomb matrix
     J. Comp. Chem., 2003 24(14)1740-1747
     doi.org/10.1002/jcc.10318
  2. Neese,F.; Wennmohs,F.; Hansen,A.; Becker,U.
     Efficient, approximate and parallel Hartree-Fock and hybrid DFT calculations. A 'chain-of-spheres' algorithm for the Hartree-Fock exchange
     Chem. Phys., 2009 356(1-3)98-109
     doi.org/10.1016/j.chemphys.2008.10.036
  3. Helmich-Paris,B.; de Souza,B.; Neese,F.; Izsák,R.
     An improved chain of spheres for exchange algorithm
     J. Chem. Phys., 2021 155 104109
     doi.org/doi: 10.1063/5.0058766.
  4. Neese,F.
     The SHARK Integral Generation and Digestion System
     J. Comp. Chem., 2022  1-16
     doi.org/10.1002/jcc.26942
  5. Grimme,S.; Antony,J.; Ehrlich,S.; Krieg,H.
     A consistent and accurate ab initio parametrization of density functional dispersion correction (DFT-D) for the 94 elements H-Pu
     J. Chem. Phys., 2010 132 154104-XXXX
     doi.org/10.1063/1.3382344

List of suggested additional citations. These are papers that are important in the 'surrounding' of 
of this run, or papers that preceded the highly important papers. If you like your results we are grateful for a citation.

  1. Izsak,R.; Neese,F.
     An overlap fitted chain of spheres exchange method
     J. Chem. Phys., 2011 135 144105
     doi.org/10.1063/1.3646921
  2. Izsak,R.; Hansen,A.; Neese,F.
     The resolution of identity and chain of spheres approximations for the LPNO-CCSD singles Fock term
     Molec. Phys., 2012 110 2413-2417
     doi.org/10.1080/00268976.2012.687466
  3. Neese,F.
     The ORCA program system
     WIRES Comput. Molec. Sci., 2012 2(1)73-78
     doi.org/10.1002/wcms.81
  4. Izsak,R.; Neese,F.; Klopper,W.
     Robust fitting techniques in the chain of spheres approximation to the Fock exchange: The role of the complementary space
     J. Chem. Phys., 2013 139 
     doi.org/10.1063/1.4819264
  5. Neese,F.
     Software update: the ORCA program system, version 4.0
     WIRES Comput. Molec. Sci., 2018 8(1)1-6
     doi.org/10.1002/wcms.1327
  6. Neese,F.; Wennmohs,F.; Becker,U.; Riplinger,C.
     The ORCA quantum chemistry program package
     J. Chem. Phys., 2020 152 Art. No. L224108
     doi.org/10.1063/5.0004608

List of optional additional citations

  1. Neese,F.
     Approximate second-order SCF convergence for spin unrestricted wavefunctions
     Chem. Phys. Lett., 2000 325(1-3)93-98
     doi.org/10.1016/s0009-2614(00)00662-x

Timings for individual modules:

Sum of individual times          ...      110.940 sec (=   1.849 min)
Startup calculation              ...        3.659 sec (=   0.061 min)   3.3 %
SCF iterations                   ...      106.999 sec (=   1.783 min)  96.4 %
Property calculations            ...        0.282 sec (=   0.005 min)   0.3 %
                             ****ORCA TERMINATED NORMALLY****
TOTAL RUN TIME: 0 days 0 hours 1 minutes 51 seconds 167 msec
