
                                 *****************
                                 * O   R   C   A *
                                 *****************

                                            #,                                       
                                            ###                                      
                                            ####                                     
                                            #####                                    
                                            ######                                   
                                           ########,                                 
                                     ,,################,,,,,                         
                               ,,#################################,,                 
                          ,,##########################################,,             
                       ,#########################################, ''#####,          
                    ,#############################################,,   '####,        
                  ,##################################################,,,,####,       
                ,###########''''           ''''###############################       
              ,#####''   ,,,,##########,,,,          '''####'''          '####       
            ,##' ,,,,###########################,,,                        '##       
           ' ,,###''''                  '''############,,,                           
         ,,##''                                '''############,,,,        ,,,,,,###''
      ,#''                                            '''#######################'''  
     '                                                          ''''####''''         
             ,#######,   #######,   ,#######,      ##                                
            ,#'     '#,  ##    ##  ,#'     '#,    #''#        ,####,   ,####,        
            ##       ##  ##   ,#'  ##            #'  '#       #'       #'  '#        
            ##       ##  #######   ##           ,######,      #####,   #    #        
            '#,     ,#'  ##    ##  '#,     ,#' ,#      #,     #,   #   #,  ,#        
             '#######'   ##     ##  '#######'  #'      '#     '####' # '####'        



                #########################################################
                #                        -***-                          #
                #          Department of theory and spectroscopy        #
                #                                                       #
                #                      Frank Neese                      #
                #                                                       #
                #     Directorship, Architecture, Infrastructure        #
                #                    SHARK, DRIVERS                     #
                #        Core code/Algorithms in most modules           #
                #                                                       #
                #        Max Planck Institute fuer Kohlenforschung      #
                #                Kaiser Wilhelm Platz 1                 #
                #                 D-45470 Muelheim/Ruhr                 #
                #                      Germany                          #
                #                                                       #
                #                  All rights reserved                  #
                #                        -***-                          #
                #########################################################


                         Program Version 6.0.0  -   RELEASE   -


 With contributions from (in alphabetic order):
   Daniel Aravena         : Magnetic Suceptibility
   Michael Atanasov       : Ab Initio Ligand Field Theory (pilot matlab implementation)
   Alexander A. Auer      : GIAO ZORA, VPT2 properties, NMR spectrum
   Ute Becker             : All parallelization in ORCA, NUMFREQ, NUMCALC
   Giovanni Bistoni       : ED, misc. LED, open-shell LED, HFLD
   Martin Brehm           : Molecular dynamics
   Dmytro Bykov           : pre 5.0 version of the SCF Hessian
   Marcos Casanova-Páez   : Triplet and SCS-CIS(D). UHF-(DLPNO)-IP/EA/STEOM-CCSD. UHF-CVS-IP/STEOM-CCSD
   Vijay G. Chilkuri      : MRCI spin determinant printing, contributions to CSF-ICE
   Pauline Colinet        : FMM embedding
   Dipayan Datta          : RHF DLPNO-CCSD density
   Achintya Kumar Dutta   : EOM-CC, STEOM-CC
   Nicolas Foglia         : Exact transition moments, OPA infrastructure, MCD improvements
   Dmitry Ganyushin       : Spin-Orbit,Spin-Spin,Magnetic field MRCI
   Miquel Garcia          : C-PCM and meta-GGA Hessian, CCSD/C-PCM, Gaussian charge scheme
   Tiago L. C. Gouveia    : GS-ROHF, GS-ROCIS
   Yang Guo               : DLPNO-NEVPT2, F12-NEVPT2, CIM, IAO-localization
   Andreas Hansen         : Spin unrestricted coupled pair/coupled cluster methods
   Ingolf Harden          : AUTO-CI MPn and infrastructure 
   Benjamin Helmich-Paris : MC-RPA, TRAH-(SCF,CASSCF), AVAS, COSX integrals, SCF dyn. polar.
   Lee Huntington         : MR-EOM, pCC
   Robert Izsak           : Overlap fitted RIJCOSX, COSX-SCS-MP3, EOM
   Riya Kayal             : Wick's Theorem for AUTO-CI, AUTO-CI UHF-CCSDT
   Emily Kempfer          : AUTO-CI, RHF CISDT and CCSDT
   Christian Kollmar      : KDIIS, OOCD, Brueckner-CCSD(T), CCSD density, CASPT2, CASPT2-K, improved NEVPT2
   Axel Koslowski         : Symmetry handling
   Simone Kossmann        : Meta GGA functionals, TD-DFT gradient, OOMP2, (MP2 Hessian; deprecated post 5.0)
   Lucas Lang             : DCDCAS
   Marvin Lechner         : AUTO-CI (C++ implementation), FIC-MRCC
   Spencer Leger          : CASSCF response
   Dagmar Lenk            : GEPOL surface, SMD, ORCA-2-JSON
   Dimitrios Liakos       : Extrapolation schemes; Compound Job, initial MDCI parallelization
   Dimitrios Manganas     : Further ROCIS development; embedding schemes. LFT, Crystal Embedding
   Dimitrios Pantazis     : SARC Basis sets
   Anastasios Papadopoulos: AUTO-CI, single reference methods and gradients
   Taras Petrenko         : pre 6.0 DFT Hessian and TD-DFT gradient, (ASA, deprecated), ECA, 1-Electron XAS/XES, NRVS
   Peter Pinski           : DLPNO-MP2, DLPNO-MP2 Gradient
   Christoph Reimann      : Effective Core Potentials
   Marius Retegan         : Local ZFS, SOC
   Christoph Riplinger    : Optimizer, TS searches, QM/MM, DLPNO-CCSD(T), (RO)-DLPNO pert. Triples
   Michael Roemelt        : Original ROCIS implementation
   Masaaki Saitow         : Open-shell DLPNO-CCSD energy and density
   Barbara Sandhoefer     : DKH picture change effects
   Kantharuban Sivalingam : CASSCF convergence/infrastructure, NEVPT2 and variants, FIC-MRCI
   Bernardo de Souza      : ESD, SOC TD-DFT
   Georgi Stoychev        : AutoAux, RI-MP2 NMR, DLPNO-MP2 response, X2C
   Van Anh Tran           : RI-MP2 g-tensors
   Willem Van den Heuvel  : Paramagnetic NMR
   Zikuan Wang            : NOTCH, Electric field optimization 
   Frank Wennmohs         : Technical directorship and infrastructure
   Hang Xu                : AUTO-CI-Response properties 


 We gratefully acknowledge several colleagues who have allowed us to
 interface, adapt or use parts of their codes:
   Stefan Grimme, W. Hujo, H. Kruse, P. Pracht,  : VdW corrections, initial TS optimization,
                  C. Bannwarth, S. Ehlert,         DFT functionals, gCP, sTDA/sTD-DF
                  L. Wittmann, M. Mueller
   Ed Valeev, F. Pavosevic, A. Kumar             : LibInt (2-el integral package), F12 methods
   Garnet Chan, S. Sharma, J. Yang, R. Olivares  : DMRG
   Ulf Ekstrom                                   : XCFun DFT Library
   Mihaly Kallay                                 : mrcc  (arbitrary order and MRCC methods)
   Frank Weinhold                                : gennbo (NPA and NBO analysis)
   Simon Mueller                                 : openCOSMO-RS
   Christopher J. Cramer and Donald G. Truhlar   : smd solvation model
   Lars Goerigk                                  : TD-DFT with DH, B97 family of functionals
   V. Asgeirsson, H. Jonsson                     : NEB implementation
   FAccTs GmbH                                   : IRC, NEB, NEB-TS, DLPNO-Multilevel, CI-OPT
                                                   MM, QMMM, 2- and 3-layer-ONIOM, Crystal-QMMM,
                                                   LR-CPCM, SF, NACMEs, symmetry and pop. for TD-DFT,
                                                   nearIR, NL-DFT gradient (VV10), updates on ESD,
                                                   ML-optimized integration grids, MBIS, APM,
                                                   GOAT, DOCKER, SOLVATOR, interface openCOSMO-RS
   S Lehtola, MJT Oliveira, MAL Marques          : LibXC Library
   Liviu Ungur et al                             : ANISO software


 Your calculation uses the libint2 library for the computation of 2-el integrals
 For citations please refer to: http://libint.valeyev.net

 Your ORCA version has been built with support for libXC version: 6.2.2
 For citations please refer to: https://libxc.gitlab.io

 This ORCA versions uses:
   CBLAS   interface :  Fast vector & matrix operations
   LAPACKE interface :  Fast linear algebra routines
   Shared memory     :  Shared parallel matrices


Your calculation utilizes the atom-pairwise dispersion correction
with the Becke-Johnson damping scheme (D3BJ)


Warning: RI is on but no J-basis has been assigned. Assigning Def2/J (nothing to worry about!)
================================================================================

----- Orbital basis set information -----
Your calculation utilizes the basis: def2-SVP
   F. Weigend and R. Ahlrichs, Phys. Chem. Chem. Phys. 7, 3297 (2005).

----- AuxJ basis set information -----
Your calculation utilizes the auxiliary basis: def2/J
   F. Weigend, Phys. Chem. Chem. Phys. 8, 1057 (2006).

================================================================================
                                        WARNINGS
                       Please study these warnings very carefully!
================================================================================


WARNING: Geometry Optimization
  ===> : Switching off AutoStart
         For restart on a previous wavefunction, please use MOREAD

================================================================================
                                       INPUT FILE
================================================================================
NAME = data/geom_opt_PO_BP86/80757/80757.inp
|  1> ! RI BP86 def2-SVP D3BJ TIGHTSCF Opt
|  2> %pal
|  3> nprocs 6
|  4> end
|  5> 
|  6> * xyz 0 1
|  7> C      5.233832   -0.226336    0.540841
|  8> C      4.104173   -0.733180   -0.341334
|  9> C      2.739240   -0.455845    0.284113
| 10> C      1.604518   -0.962248   -0.599794
| 11> P     -0.041190   -0.677747    0.115760
| 12> O     -0.152561   -1.433122    1.417442
| 13> C     -1.132584   -1.409135   -1.131270
| 14> C     -2.624075   -1.141050   -0.956150
| 15> C     -3.198679   -1.761956    0.315434
| 16> C     -4.707528   -1.582558    0.386769
| 17> C     -0.333558    1.067038    0.200735
| 18> C     -0.678257    1.651592    1.426327
| 19> C     -0.915494    3.023007    1.519299
| 20> C     -0.810422    3.825612    0.385638
| 21> C     -0.468653    3.257333   -0.839926
| 22> C     -0.231437    1.884827   -0.932462
| 23> H      5.216138   -0.714949    1.520274
| 24> H      5.156728    0.854787    0.694449
| 25> H      6.201766   -0.435005    0.074518
| 26> H      4.169481   -0.249108   -1.322711
| 27> H      4.228737   -1.810392   -0.501787
| 28> H      2.673886   -0.935381    1.267807
| 29> H      2.618840    0.620492    0.452224
| 30> H      1.714345   -2.040820   -0.760873
| 31> H      1.650837   -0.483408   -1.583955
| 32> H     -0.948659   -2.489453   -1.152987
| 33> H     -0.826353   -1.021487   -2.109832
| 34> H     -2.806995   -0.060767   -0.948383
| 35> H     -3.152109   -1.547362   -1.827459
| 36> H     -2.961320   -2.831273    0.351517
| 37> H     -2.751619   -1.295894    1.199210
| 38> H     -4.976741   -0.521469    0.381071
| 39> H     -5.201277   -2.067525   -0.461361
| 40> H     -5.098834   -2.027556    1.306985
| 41> H     -0.761851    1.028284    2.315961
| 42> H     -1.181977    3.463169    2.476853
| 43> H     -0.995219    4.894300    0.458087
| 44> H     -0.387517    3.885166   -1.723743
| 45> H      0.032391    1.459420   -1.897289
| 46> **                         ****END OF INPUT****
================================================================================

                       *****************************
                       * Geometry Optimization Run *
                       *****************************

Geometry optimization settings:
Update method            Update   .... BFGS
Choice of coordinates    CoordSys .... (2022) Redundant Internals
Initial Hessian          InHess   .... Almloef's Model
Max. no of cycles        MaxIter  .... 117

Convergence Tolerances:
Energy Change            TolE     ....  5.0000e-06 Eh
Max. Gradient            TolMAXG  ....  3.0000e-04 Eh/bohr
RMS Gradient             TolRMSG  ....  1.0000e-04 Eh/bohr
Max. Displacement        TolMAXD  ....  4.0000e-03 bohr
RMS Displacement         TolRMSD  ....  2.0000e-03 bohr
Strict Convergence                .... False

------------------------------------------------------------------------------
                        ORCA OPTIMIZATION COORDINATE SETUP
------------------------------------------------------------------------------

The optimization will be done in redundant internal coordinates (2022)
Making redundant internal coordinates   ...  (2022 redundants) done
Evaluating the initial hessian          ...  (Almloef) done
Evaluating the coordinates              ...  done
Calculating the B-matrix                .... done
Calculating the G-matrix                .... done
Diagonalizing the G-matrix              .... done
Small eigenvalue found = 3.687e-03
Small eigenvalue found = 4.766e-03
Small eigenvalue found = 8.040e-03
Small eigenvalue found = 1.290e-02
Small eigenvalue found = 1.713e-02
Small eigenvalue found = 2.698e-02
The first mode is                       ....   77
The number of degrees of freedom        ....  111

    -----------------------------------------------------------------
                    Redundant Internal Coordinates


    -----------------------------------------------------------------
         Definition                    Initial Value    Approx d2E/dq
    -----------------------------------------------------------------
      1. B(C   1,C   0)                  1.5203         0.387154   
      2. B(C   2,C   1)                  1.5268         0.377982   
      3. B(C   3,C   2)                  1.5249         0.380635   
      4. B(P   4,C   3)                  1.8170         0.437581   
      5. B(O   5,P   4)                  1.5091         1.214393   
      6. B(C   6,P   4)                  1.8114         0.446605   
      7. B(C   7,C   6)                  1.5255         0.379833   
      8. B(C   8,C   7)                  1.5273         0.377310   
      9. B(C   9,C   8)                  1.5212         0.385920   
     10. B(C  10,P   4)                  1.7712         0.517763   
     11. B(C  11,C  10)                  1.4009         0.600213   
     12. B(C  12,C  11)                  1.3949         0.613684   
     13. B(C  13,C  12)                  1.3930         0.617987   
     14. B(C  14,C  13)                  1.3935         0.616886   
     15. B(C  15,C  10)                  1.4012         0.599626   
     16. B(C  15,C  14)                  1.3959         0.611344   
     17. B(H  16,C   0)                  1.0947         0.353950   
     18. B(H  17,C   0)                  1.0947         0.353936   
     19. B(H  18,C   0)                  1.0945         0.354216   
     20. B(H  19,C   1)                  1.0962         0.351969   
     21. B(H  20,C   1)                  1.0962         0.351995   
     22. B(H  21,C   2)                  1.0963         0.351858   
     23. B(H  22,C   2)                  1.0960         0.352224   
     24. B(H  23,C   3)                  1.0961         0.352185   
     25. B(H  24,C   3)                  1.0954         0.352965   
     26. B(H  25,C   6)                  1.0961         0.352149   
     27. B(H  26,C   6)                  1.0962         0.352004   
     28. B(H  27,C   7)                  1.0957         0.352654   
     29. B(H  28,C   7)                  1.0969         0.351146   
     30. B(H  29,C   8)                  1.0959         0.352330   
     31. B(H  30,C   8)                  1.0946         0.354073   
     32. B(H  31,C   9)                  1.0947         0.353906   
     33. B(H  32,C   9)                  1.0947         0.353973   
     34. B(H  33,C   9)                  1.0945         0.354190   
     35. B(H  34,C  11)                  1.0895         0.360799   
     36. B(H  35,C  12)                  1.0870         0.364031   
     37. B(H  36,C  13)                  1.0870         0.364137   
     38. B(H  37,C  14)                  1.0871         0.363893   
     39. B(H  38,C  15)                  1.0870         0.364153   
     40. A(H  16,C   0,H  17)          108.3082         0.289270   
     41. A(H  17,C   0,H  18)          108.0813         0.289304   
     42. A(C   1,C   0,H  16)          110.9994         0.325305   
     43. A(C   1,C   0,H  17)          110.9983         0.325303   
     44. A(H  16,C   0,H  18)          108.0835         0.289306   
     45. A(C   1,C   0,H  18)          110.2640         0.325345   
     46. A(C   0,C   1,H  19)          109.1471         0.325005   
     47. A(C   0,C   1,H  20)          109.1544         0.325009   
     48. A(H  19,C   1,H  20)          107.2252         0.288767   
     49. A(C   2,C   1,H  19)          109.8633         0.323728   
     50. A(C   2,C   1,H  20)          109.8795         0.323732   
     51. A(C   0,C   1,C   2)          111.4702         0.366313   
     52. A(C   1,C   2,C   3)          111.5592         0.365249   
     53. A(C   3,C   2,H  21)          109.2985         0.324083   
     54. A(H  21,C   2,H  22)          106.5816         0.288782   
     55. A(C   1,C   2,H  22)          109.8415         0.323766   
     56. A(C   3,C   2,H  22)          109.4685         0.324138   
     57. A(C   1,C   2,H  21)          109.9626         0.323711   
     58. A(C   2,C   3,H  24)          110.1290         0.324250   
     59. A(P   4,C   3,H  24)          108.8848         0.352420   
     60. A(H  23,C   3,H  24)          107.0902         0.288919   
     61. A(C   2,C   3,P   4)          113.1861         0.398819   
     62. A(P   4,C   3,H  23)          107.6211         0.352288   
     63. A(C   2,C   3,H  23)          109.7195         0.324132   
     64. A(O   5,P   4,C  10)          116.0740         0.539974   
     65. A(O   5,P   4,C   6)          110.3188         0.525133   
     66. A(C   3,P   4,C   6)          102.2036         0.437525   
     67. A(C   3,P   4,C  10)          108.8239         0.449384   
     68. A(C   3,P   4,O   5)          109.1572         0.523123   
     69. A(C   6,P   4,C  10)          109.3496         0.451053   
     70. A(H  25,C   6,H  26)          106.4981         0.288791   
     71. A(C   7,C   6,H  26)          108.2683         0.323993   
     72. A(P   4,C   6,H  26)          107.6654         0.353477   
     73. A(C   7,C   6,H  25)          109.8495         0.324015   
     74. A(P   4,C   6,H  25)          108.0894         0.353501   
     75. A(P   4,C   6,C   7)          116.0467         0.400105   
     76. A(H  27,C   7,H  28)          106.8872         0.288746   
     77. A(C   8,C   7,H  28)          109.2481         0.323509   
     78. A(C   6,C   7,H  28)          108.3241         0.323863   
     79. A(C   8,C   7,H  27)          109.3971         0.323737   
     80. A(C   6,C   7,H  27)          109.7129         0.324091   
     81. A(C   6,C   7,C   8)          113.0774         0.365006   
     82. A(H  29,C   8,H  30)          107.4818         0.289080   
     83. A(C   9,C   8,H  30)          108.4842         0.325153   
     84. A(C   7,C   8,H  30)          110.2100         0.323950   
     85. A(C   9,C   8,H  29)          109.1690         0.324889   
     86. A(C   7,C   8,H  29)          110.0350         0.323688   
     87. A(C   7,C   8,C   9)          111.3633         0.366001   
     88. A(H  32,C   9,H  33)          108.0607         0.289305   
     89. A(H  31,C   9,H  33)          108.0917         0.289297   
     90. A(C   8,C   9,H  33)          110.2493         0.325170   
     91. A(H  31,C   9,H  32)          108.3282         0.289269   
     92. A(C   8,C   9,H  32)          111.0276         0.325138   
     93. A(C   8,C   9,H  31)          110.9773         0.325128   
     94. A(P   4,C  10,C  11)          119.5801         0.445792   
     95. A(C  11,C  10,C  15)          118.8109         0.428961   
     96. A(P   4,C  10,C  15)          121.6089         0.445713   
     97. A(C  10,C  11,H  34)          119.6387         0.351094   
     98. A(C  10,C  11,C  12)          120.6904         0.430749   
     99. A(C  12,C  11,H  34)          119.6709         0.352414   
    100. A(C  11,C  12,C  13)          119.9610         0.433014   
    101. A(C  13,C  12,H  35)          120.1376         0.353364   
    102. A(C  11,C  12,H  35)          119.9014         0.352946   
    103. A(C  14,C  13,H  36)          120.0846         0.353274   
    104. A(C  12,C  13,H  36)          119.9617         0.353381   
    105. A(C  12,C  13,C  14)          119.9537         0.433419   
    106. A(C  13,C  14,C  15)          120.0633         0.432578   
    107. A(C  15,C  14,H  37)          120.0822         0.352695   
    108. A(C  13,C  14,H  37)          119.8545         0.353234   
    109. A(C  10,C  15,C  14)          120.5207         0.430378   
    110. A(C  14,C  15,H  38)          119.0058         0.352738   
    111. A(C  10,C  15,H  38)          120.4734         0.351585   
    112. D(H  19,C   1,C   0,H  16)   -178.2081         0.011924   
    113. D(C   2,C   1,C   0,H  16)     60.2546         0.011924   
    114. D(H  19,C   1,C   0,H  17)     61.2782         0.011924   
    115. D(C   2,C   1,C   0,H  18)    179.9995         0.011924   
    116. D(C   2,C   1,C   0,H  17)    -60.2591         0.011924   
    117. D(H  19,C   1,C   0,H  18)    -58.4632         0.011924   
    118. D(H  21,C   2,C   1,H  20)     62.5237         0.011393   
    119. D(H  21,C   2,C   1,H  19)   -179.7373         0.011393   
    120. D(H  21,C   2,C   1,C   0)    -58.6169         0.011393   
    121. D(C   3,C   2,C   1,H  20)    -58.9146         0.011393   
    122. D(C   3,C   2,C   1,C   0)    179.9448         0.011393   
    123. D(C   3,C   2,C   1,H  19)     58.8244         0.011393   
    124. D(P   4,C   3,C   2,H  22)    -59.1136         0.011545   
    125. D(P   4,C   3,C   2,H  21)     57.2771         0.011545   
    126. D(P   4,C   3,C   2,C   1)    179.1000         0.011545   
    127. D(H  23,C   3,C   2,H  21)    -62.9453         0.011545   
    128. D(H  23,C   3,C   2,H  22)   -179.3360         0.011545   
    129. D(H  23,C   3,C   2,C   1)     58.8776         0.011545   
    130. D(C   6,P   4,C   3,H  24)     58.3733         0.004312   
    131. D(C   6,P   4,C   3,H  23)    -57.3828         0.004312   
    132. D(C   6,P   4,C   3,C   2)   -178.7940         0.004312   
    133. D(O   5,P   4,C   3,H  23)     59.4400         0.004312   
    134. D(O   5,P   4,C   3,C   2)    -61.9712         0.004312   
    135. D(O   5,P   4,C   3,H  24)    175.1961         0.004312   
    136. D(H  25,C   6,P   4,C  10)   -178.9224         0.004433   
    137. D(H  25,C   6,P   4,O   5)    -50.1090         0.004433   
    138. D(H  25,C   6,P   4,C   3)     65.8743         0.004433   
    139. D(C   7,C   6,P   4,C  10)    -55.0578         0.004433   
    140. D(C   7,C   6,P   4,O   5)     73.7556         0.004433   
    141. D(C   7,C   6,P   4,C   3)   -170.2611         0.004433   
    142. D(C   8,C   7,C   6,P   4)    -64.6054         0.011499   
    143. D(H  27,C   7,C   6,H  26)    -63.3171         0.011499   
    144. D(H  27,C   7,C   6,H  25)   -179.2369         0.011499   
    145. D(H  27,C   7,C   6,P   4)     57.8159         0.011499   
    146. D(C   8,C   7,C   6,H  26)    174.2616         0.011499   
    147. D(C   8,C   7,C   6,H  25)     58.3418         0.011499   
    148. D(H  29,C   8,C   7,H  28)     67.1829         0.011355   
    149. D(H  29,C   8,C   7,H  27)   -176.1280         0.011355   
    150. D(H  29,C   8,C   7,C   6)    -53.5308         0.011355   
    151. D(C   9,C   8,C   7,H  28)    -54.0109         0.011355   
    152. D(C   9,C   8,C   7,C   6)   -174.7245         0.011355   
    153. D(C   9,C   8,C   7,H  27)     62.6782         0.011355   
    154. D(H  32,C   9,C   8,H  30)   -177.8836         0.011852   
    155. D(H  32,C   9,C   8,H  29)    -61.0407         0.011852   
    156. D(H  32,C   9,C   8,C   7)     60.6574         0.011852   
    157. D(H  31,C   9,C   8,H  30)     61.5726         0.011852   
    158. D(H  31,C   9,C   8,H  29)    178.4155         0.011852   
    159. D(H  31,C   9,C   8,C   7)    -59.8864         0.011852   
    160. D(C  15,C  10,P   4,O   5)    178.5697         0.005194   
    161. D(C  15,C  10,P   4,C   3)     55.0106         0.005194   
    162. D(C  11,C  10,P   4,C   6)    124.0087         0.005194   
    163. D(C  11,C  10,P   4,O   5)     -1.5523         0.005194   
    164. D(C  11,C  10,P   4,C   3)   -125.1114         0.005194   
    165. D(H  34,C  11,C  10,C  15)    179.9743         0.024836   
    166. D(H  34,C  11,C  10,P   4)      0.0929         0.024836   
    167. D(C  12,C  11,C  10,C  15)     -0.0244         0.024836   
    168. D(C  12,C  11,C  10,P   4)   -179.9058         0.024836   
    169. D(H  35,C  12,C  11,H  34)      0.0129         0.026028   
    170. D(H  35,C  12,C  11,C  10)   -179.9884         0.026028   
    171. D(C  13,C  12,C  11,H  34)   -179.9941         0.026028   
    172. D(C  13,C  12,C  11,C  10)      0.0046         0.026028   
    173. D(C  14,C  13,C  12,H  35)   -179.9962         0.026417   
    174. D(C  14,C  13,C  12,C  11)      0.0108         0.026417   
    175. D(H  36,C  13,C  12,H  35)     -0.0028         0.026417   
    176. D(H  36,C  13,C  12,C  11)   -179.9958         0.026417   
    177. D(H  37,C  14,C  13,H  36)     -0.0195         0.026317   
    178. D(H  37,C  14,C  13,C  12)    179.9739         0.026317   
    179. D(C  15,C  14,C  13,H  36)   -179.9994         0.026317   
    180. D(C  15,C  14,C  13,C  12)     -0.0060         0.026317   
    181. D(H  38,C  15,C  14,H  37)     -0.0812         0.025819   
    182. D(H  38,C  15,C  14,C  13)    179.8987         0.025819   
    183. D(C  10,C  15,C  14,H  37)   -179.9941         0.025819   
    184. D(C  10,C  15,C  14,C  13)     -0.0143         0.025819   
    185. D(H  38,C  15,C  10,C  11)   -179.8825         0.024785   
    186. D(H  38,C  15,C  10,P   4)     -0.0035         0.024785   
    187. D(C  14,C  15,C  10,C  11)      0.0292         0.024785   
    188. D(C  14,C  15,C  10,P   4)    179.9081         0.024785   
    -----------------------------------------------------------------

Number of atoms                         .... 39
Number of degrees of freedom            .... 188


         *************************************************************
         *                GEOMETRY OPTIMIZATION CYCLE   1            *
         *************************************************************
---------------------------------
CARTESIAN COORDINATES (ANGSTROEM)
---------------------------------
  C      5.233832   -0.226336    0.540841
  C      4.104173   -0.733180   -0.341334
  C      2.739240   -0.455845    0.284113
  C      1.604518   -0.962248   -0.599794
  P     -0.041190   -0.677747    0.115760
  O     -0.152561   -1.433122    1.417442
  C     -1.132584   -1.409135   -1.131270
  C     -2.624075   -1.141050   -0.956150
  C     -3.198679   -1.761956    0.315434
  C     -4.707528   -1.582558    0.386769
  C     -0.333558    1.067038    0.200735
  C     -0.678257    1.651592    1.426327
  C     -0.915494    3.023007    1.519299
  C     -0.810422    3.825612    0.385638
  C     -0.468653    3.257333   -0.839926
  C     -0.231437    1.884827   -0.932462
  H      5.216138   -0.714949    1.520274
  H      5.156728    0.854787    0.694449
  H      6.201766   -0.435005    0.074518
  H      4.169481   -0.249108   -1.322711
  H      4.228737   -1.810392   -0.501787
  H      2.673886   -0.935381    1.267807
  H      2.618840    0.620492    0.452224
  H      1.714345   -2.040820   -0.760873
  H      1.650837   -0.483408   -1.583955
  H     -0.948659   -2.489453   -1.152987
  H     -0.826353   -1.021487   -2.109832
  H     -2.806995   -0.060767   -0.948383
  H     -3.152109   -1.547362   -1.827459
  H     -2.961320   -2.831273    0.351517
  H     -2.751619   -1.295894    1.199210
  H     -4.976741   -0.521469    0.381071
  H     -5.201277   -2.067525   -0.461361
  H     -5.098834   -2.027556    1.306985
  H     -0.761851    1.028284    2.315961
  H     -1.181977    3.463169    2.476853
  H     -0.995219    4.894300    0.458087
  H     -0.387517    3.885166   -1.723743
  H      0.032391    1.459420   -1.897289

----------------------------
CARTESIAN COORDINATES (A.U.)
----------------------------
  NO LB      ZA    FRAG     MASS         X           Y           Z
   0 C     6.0000    0    12.011    9.890509   -0.427713    1.022041
   1 C     6.0000    0    12.011    7.755763   -1.385509   -0.645028
   2 C     6.0000    0    12.011    5.176413   -0.861422    0.536896
   3 C     6.0000    0    12.011    3.032100   -1.818385   -1.133446
   4 P    15.0000    0    30.974   -0.077838   -1.280756    0.218755
   5 O     8.0000    0    15.999   -0.288299   -2.708208    2.678577
   6 C     6.0000    0    12.011   -2.140274   -2.662879   -2.137790
   7 C     6.0000    0    12.011   -4.958783   -2.156272   -1.806862
   8 C     6.0000    0    12.011   -6.044627   -3.329614    0.596084
   9 C     6.0000    0    12.011   -8.895939   -2.990601    0.730887
  10 C     6.0000    0    12.011   -0.630333    2.016410    0.379334
  11 C     6.0000    0    12.011   -1.281720    3.121057    2.695367
  12 C     6.0000    0    12.011   -1.730033    5.712655    2.871059
  13 C     6.0000    0    12.011   -1.531476    7.229359    0.728750
  14 C     6.0000    0    12.011   -0.885626    6.155467   -1.587230
  15 C     6.0000    0    12.011   -0.437353    3.561807   -1.762098
  16 H     1.0000    0     1.008    9.857072   -1.351058    2.872902
  17 H     1.0000    0     1.008    9.744804    1.615313    1.312318
  18 H     1.0000    0     1.008   11.719639   -0.822040    0.140819
  19 H     1.0000    0     1.008    7.879177   -0.470746   -2.499562
  20 H     1.0000    0     1.008    7.991155   -3.421145   -0.948240
  21 H     1.0000    0     1.008    5.052912   -1.767614    2.395808
  22 H     1.0000    0     1.008    4.948890    1.172560    0.854580
  23 H     1.0000    0     1.008    3.239643   -3.856591   -1.437842
  24 H     1.0000    0     1.008    3.119630   -0.913509   -2.993241
  25 H     1.0000    0     1.008   -1.792706   -4.704384   -2.178830
  26 H     1.0000    0     1.008   -1.561581   -1.930331   -3.987005
  27 H     1.0000    0     1.008   -5.304452   -0.114833   -1.792184
  28 H     1.0000    0     1.008   -5.956623   -2.924090   -3.453397
  29 H     1.0000    0     1.008   -5.596084   -5.350331    0.664271
  30 H     1.0000    0     1.008   -5.199806   -2.448885    2.266178
  31 H     1.0000    0     1.008   -9.404678   -0.985434    0.720120
  32 H     1.0000    0     1.008   -9.828989   -3.907056   -0.871846
  33 H     1.0000    0     1.008   -9.635400   -3.831526    2.469844
  34 H     1.0000    0     1.008   -1.439690    1.943175    4.376532
  35 H     1.0000    0     1.008   -2.233613    6.544441    4.680574
  36 H     1.0000    0     1.008   -1.880691    9.248887    0.865659
  37 H     1.0000    0     1.008   -0.732301    7.341900   -3.257402
  38 H     1.0000    0     1.008    0.061210    2.757904   -3.585357

--------------------------------
INTERNAL COORDINATES (ANGSTROEM)
--------------------------------
 C      0   0   0     0.000000000000     0.00000000     0.00000000
 C      1   0   0     1.520280575171     0.00000000     0.00000000
 C      2   1   0     1.526807370470   111.47017965     0.00000000
 C      3   2   1     1.524903144577   111.55922899   179.94483217
 P      4   3   2     1.816951613880   113.18606577   179.09999068
 O      5   4   3     1.509096060359   109.15720307   298.02883147
 C      5   4   3     1.811395343563   102.20359794   181.20602081
 C      7   5   4     1.525477625108   116.04670830   189.73894422
 C      8   7   5     1.527291683572   113.07739814   295.39459588
 C      9   8   7     1.521150100887   111.36327915   185.27545935
 C      5   4   3     1.771150613097   108.82385025    65.61958591
 C     11   5   4     1.400927025216   119.58008579   234.88861838
 C     12  11   5     1.394885045148   120.69041472   180.09418466
 C     13  12  11     1.392983192336   119.96095753     0.00000000
 C     14  13  12     1.393468402691   119.95372022     0.00000000
 C     15  14  13     1.395925163463   120.06326213     0.00000000
 H      1   2   3     1.094689336248   110.99941337    60.25464512
 H      1   2   3     1.094699678272   110.99832287   299.74093621
 H      1   2   3     1.094484408407   110.26401981   179.99954148
 H      2   1   3     1.096216973129   109.14708928   121.53722491
 H      2   1   3     1.096196628461   109.15436341   238.43752000
 H      3   2   1     1.096302789492   109.96256096   301.38312035
 H      3   2   1     1.096019528061   109.84151646    58.37431049
 H      4   3   2     1.096050169177   109.71954779    58.87756920
 H      4   3   2     1.095447885242   110.12902466   301.24049550
 H      7   5   4     1.096078014941   108.08944205    65.87434565
 H      7   5   4     1.096189757802   107.66542278   311.19352370
 H      8   7   5     1.095687643801   109.71290815    57.81586536
 H      8   7   5     1.096854010332   108.32408540   174.15734599
 H      9   8   7     1.095938011139   110.03502315   306.46923716
 H      9   8   7     1.094594194037   110.21004139    64.82683319
 H     10   9   8     1.094722783400   110.97732616   300.11357757
 H     10   9   8     1.094671440657   111.02762287    60.65743107
 H     10   9   8     1.094504953071   110.24930483   180.38229644
 H     12  11   5     1.089472107792   119.63872561     0.09287849
 H     13  12  11     1.087044359007   119.90140313   180.01162906
 H     14  13  12     1.086964962708   119.96167712   180.00424560
 H     15  14  13     1.087147559384   119.85454095   179.97388646
 H     16  15  14     1.086953296679   119.00582147   179.89868846

---------------------------
INTERNAL COORDINATES (A.U.)
---------------------------
 C      0   0   0     0.000000000000     0.00000000     0.00000000
 C      1   0   0     2.872913933793     0.00000000     0.00000000
 C      2   1   0     2.885247789442   111.47017965     0.00000000
 C      3   2   1     2.881649324007   111.55922899   179.94483217
 P      4   3   2     3.433540948819   113.18606577   179.09999068
 O      5   4   3     2.851778263857   109.15720307   298.02883147
 C      5   4   3     3.423041119593   102.20359794   181.20602081
 C      7   5   4     2.882734934879   116.04670830   189.73894422
 C      8   7   5     2.886163008566   113.07739814   295.39459588
 C      9   8   7     2.874557099264   111.36327915   185.27545935
 C      5   4   3     3.346989600680   108.82385025    65.61958591
 C     11   5   4     2.647368411268   119.58008579   234.88861838
 C     12  11   5     2.635950723632   120.69041472   180.09418466
 C     13  12  11     2.632356742670   119.96095753     0.00000000
 C     14  13  12     2.633273657359   119.95372022     0.00000000
 C     15  14  13     2.637916262394   120.06326213     0.00000000
 H      1   2   3     2.068663047232   110.99941337    60.25464512
 H      1   2   3     2.068682590826   110.99832287   299.74093621
 H      1   2   3     2.068275789736   110.26401981   179.99954148
 H      2   1   3     2.071549862571   109.14708928   121.53722491
 H      2   1   3     2.071511416719   109.15436341   238.43752000
 H      3   2   1     2.071712031994   109.96256096   301.38312035
 H      3   2   1     2.071176745464   109.84151646    58.37431049
 H      4   3   2     2.071234648784   109.71954779    58.87756920
 H      4   3   2     2.070096497091   110.12902466   301.24049550
 H      7   5   4     2.071287269651   108.08944205    65.87434565
 H      7   5   4     2.071498433054   107.66542278   311.19352370
 H      8   7   5     2.070549575105   109.71290815    57.81586536
 H      8   7   5     2.072753688420   108.32408540   174.15734599
 H      9   8   7     2.071022700807   110.03502315   306.46923716
 H      9   8   7     2.068483254511   110.21004139    64.82683319
 H     10   9   8     2.068726253189   110.97732616   300.11357757
 H     10   9   8     2.068629229467   111.02762287    60.65743107
 H     10   9   8     2.068314613524   110.24930483   180.38229644
 H     12  11   5     2.058803914272   119.63872561     0.09287849
 H     13  12  11     2.054216133947   119.90140313   180.01162906
 H     14  13  12     2.054066096685   119.96167712   180.00424560
 H     15  14  13     2.054411154396   119.85454095   179.97388646
 H     16  15  14     2.054044051087   119.00582147   179.89868846

---------------------
BASIS SET INFORMATION
---------------------
There are 4 groups of distinct atoms

 Group   1 Type C   : 7s4p1d contracted to 3s2p1d pattern {511/31/1}
 Group   2 Type P   : 10s7p1d contracted to 4s3p1d pattern {5311/511/1}
 Group   3 Type O   : 7s4p1d contracted to 3s2p1d pattern {511/31/1}
 Group   4 Type H   : 4s1p contracted to 2s1p pattern {31/1}

Atom   0C    basis set group =>   1
Atom   1C    basis set group =>   1
Atom   2C    basis set group =>   1
Atom   3C    basis set group =>   1
Atom   4P    basis set group =>   2
Atom   5O    basis set group =>   3
Atom   6C    basis set group =>   1
Atom   7C    basis set group =>   1
Atom   8C    basis set group =>   1
Atom   9C    basis set group =>   1
Atom  10C    basis set group =>   1
Atom  11C    basis set group =>   1
Atom  12C    basis set group =>   1
Atom  13C    basis set group =>   1
Atom  14C    basis set group =>   1
Atom  15C    basis set group =>   1
Atom  16H    basis set group =>   4
Atom  17H    basis set group =>   4
Atom  18H    basis set group =>   4
Atom  19H    basis set group =>   4
Atom  20H    basis set group =>   4
Atom  21H    basis set group =>   4
Atom  22H    basis set group =>   4
Atom  23H    basis set group =>   4
Atom  24H    basis set group =>   4
Atom  25H    basis set group =>   4
Atom  26H    basis set group =>   4
Atom  27H    basis set group =>   4
Atom  28H    basis set group =>   4
Atom  29H    basis set group =>   4
Atom  30H    basis set group =>   4
Atom  31H    basis set group =>   4
Atom  32H    basis set group =>   4
Atom  33H    basis set group =>   4
Atom  34H    basis set group =>   4
Atom  35H    basis set group =>   4
Atom  36H    basis set group =>   4
Atom  37H    basis set group =>   4
Atom  38H    basis set group =>   4
---------------------------------
AUXILIARY/J BASIS SET INFORMATION
---------------------------------
There are 4 groups of distinct atoms

 Group   1 Type C   : 12s5p4d2f1g contracted to 6s4p3d1f1g pattern {711111/2111/211/2/1}
 Group   2 Type P   : 14s5p5d2f1g contracted to 8s4p3d1f1g pattern {71111111/2111/311/2/1}
 Group   3 Type O   : 12s5p4d2f1g contracted to 6s4p3d1f1g pattern {711111/2111/211/2/1}
 Group   4 Type H   : 5s2p1d contracted to 3s1p1d pattern {311/2/1}

Atom   0C    basis set group =>   1
Atom   1C    basis set group =>   1
Atom   2C    basis set group =>   1
Atom   3C    basis set group =>   1
Atom   4P    basis set group =>   2
Atom   5O    basis set group =>   3
Atom   6C    basis set group =>   1
Atom   7C    basis set group =>   1
Atom   8C    basis set group =>   1
Atom   9C    basis set group =>   1
Atom  10C    basis set group =>   1
Atom  11C    basis set group =>   1
Atom  12C    basis set group =>   1
Atom  13C    basis set group =>   1
Atom  14C    basis set group =>   1
Atom  15C    basis set group =>   1
Atom  16H    basis set group =>   4
Atom  17H    basis set group =>   4
Atom  18H    basis set group =>   4
Atom  19H    basis set group =>   4
Atom  20H    basis set group =>   4
Atom  21H    basis set group =>   4
Atom  22H    basis set group =>   4
Atom  23H    basis set group =>   4
Atom  24H    basis set group =>   4
Atom  25H    basis set group =>   4
Atom  26H    basis set group =>   4
Atom  27H    basis set group =>   4
Atom  28H    basis set group =>   4
Atom  29H    basis set group =>   4
Atom  30H    basis set group =>   4
Atom  31H    basis set group =>   4
Atom  32H    basis set group =>   4
Atom  33H    basis set group =>   4
Atom  34H    basis set group =>   4
Atom  35H    basis set group =>   4
Atom  36H    basis set group =>   4
Atom  37H    basis set group =>   4
Atom  38H    basis set group =>   4


           ************************************************************
           *        Program running with 6 parallel MPI-processes     *
           *              working on a common directory               *
           ************************************************************
------------------------------------------------------------------------------
                             ORCA STARTUP CALCULATIONS
                           -- RI-GTO INTEGRALS CHOSEN --
------------------------------------------------------------------------------
------------------------------------------------------------------------------
                   ___                                                        
                  /   \      - P O W E R E D   B Y -                         
                 /     \                                                     
                 |  |  |   _    _      __       _____    __    __             
                 |  |  |  | |  | |    /  \     |  _  \  |  |  /  |          
                  \  \/   | |  | |   /    \    | | | |  |  | /  /          
                 / \  \   | |__| |  /  /\  \   | |_| |  |  |/  /          
                |  |  |   |  __  | /  /__\  \  |    /   |      \           
                |  |  |   | |  | | |   __   |  |    \   |  |\   \          
                \     /   | |  | | |  |  |  |  | |\  \  |  | \   \       
                 \___/    |_|  |_| |__|  |__|  |_| \__\ |__|  \__/        
                                                                              
                      - O R C A' S   B I G   F R I E N D -                    
                                      &                                       
                       - I N T E G R A L  F E E D E R -                       
                                                                              
 v1 FN, 2020, v2 2021, v3 2022-2024                                           
------------------------------------------------------------------------------


----------------------
SHARK INTEGRAL PACKAGE
----------------------

Number of atoms                             ...     39
Number of basis functions                   ...    343
Number of shells                            ...    167
Maximum angular momentum                    ...      2
Integral batch strategy                     ... SHARK/LIBINT Hybrid
RI-J (if used) integral strategy            ... SPLIT-RIJ (Revised 2003 algorithm where possible)
Printlevel                                  ...      1
Contraction scheme used                     ... SEGMENTED contraction
Prescreening option                         ... SCHWARTZ
   Thresh                                   ... 2.500e-11
   Tcut                                     ... 2.500e-12
   Tpresel                                  ... 2.500e-12 
Coulomb Range Separation                    ... NOT USED
Exchange Range Separation                   ... NOT USED
Multipole approximations                    ... NOT USED
Finite Nucleus Model                        ... NOT USED
CABS basis                                  ... NOT available
Auxiliary Coulomb fitting basis             ... AVAILABLE
   # of basis functions in Aux-J            ...   1039
   # of shells in Aux-J                     ...    357
   Maximum angular momentum in Aux-J        ...      4
Auxiliary J/K fitting basis                 ... NOT available
Auxiliary Correlation fitting basis         ... NOT available
Auxiliary 'external' fitting basis          ... NOT available

Checking pre-screening integrals            ... done (  0.0 sec) Dimension = 167
Check shell pair data                       ... done (  0.0 sec)
Shell pair information
Shell pair cut-off parameter TPreSel        ...   2.5e-12
Total number of shell pairs                 ...     14028
Shell pairs after pre-screening             ...     10888
Total number of primitive shell pairs       ...     49428
Primitive shell pairs kept                  ...     25373
          la=0 lb=0:   3714 shell pairs
          la=1 lb=0:   4155 shell pairs
          la=1 lb=1:   1181 shell pairs
          la=2 lb=0:   1126 shell pairs
          la=2 lb=1:    627 shell pairs
          la=2 lb=2:     85 shell pairs

Calculating one electron integrals          ... done (  0.0 sec)
Calculating RI/J V-Matrix + Cholesky decomp.... done (  0.1 sec)
Calculating Nuclear repulsion               ... done (  0.0 sec) ENN=   1259.948123300901 Eh

Diagonalization of the overlap matrix:
Smallest eigenvalue                        ... 2.839e-04
Time for diagonalization                   ...    0.015 sec
Threshold for overlap eigenvalues          ... 1.000e-07
Number of eigenvalues below threshold      ... 0
Time for construction of square roots      ...    0.008 sec
Total time needed                          ...    0.026 sec

-------------------
DFT GRID GENERATION
-------------------

General Integration Accuracy     IntAcc      ... 4.388
Radial Grid Type                 RadialGrid  ... OptM3 with GC (2021)
Angular Grid (max. ang.)         AngularGrid ... 4 (Lebedev-302)
Angular grid pruning method      GridPruning ... 4 (adaptive)
Weight generation scheme         WeightScheme... mBecke (2022)
Basis function cutoff            BFCut       ... 1.0000e-11
Integration weight cutoff        WCut        ... 1.0000e-14
Partially contracted basis set               ... off
Rotationally invariant grid construction     ... off
Angular grids for H and He will be reduced by one unit

Total number of grid points                  ...   169894
Total number of batches                      ...     2674
Average number of points per batch           ...       63
Average number of grid points per atom       ...     4356
Initializing property integral containers    ... done (  0.0 sec)

SHARK setup successfully completed in   1.2 seconds

Maximum memory used throughout the entire STARTUP-calculation: 47.7 MB


           ************************************************************
           *        Program running with 6 parallel MPI-processes     *
           *              working on a common directory               *
           ************************************************************
-------------------------------------------------------------------------------
                                 ORCA GUESS
                   Start orbitals & Density for SCF / CASSCF
-------------------------------------------------------------------------------

------------
SCF SETTINGS
------------
Hamiltonian:
 Density Functional     Method          .... DFT(GTOs)
 Exchange Functional    Exchange        .... B88
   X-Alpha parameter    XAlpha          ....  0.666667
   Becke's b parameter  XBeta           ....  0.004200
 Correlation Functional Correlation     .... P86
 LDA part of GGA corr.  LDAOpt          .... PW91-LDA
 Gradients option       PostSCFGGA      .... off
   NL short-range parameter             ....  4.400000
 RI-approximation to the Coulomb term is turned on
   Number of AuxJ basis functions       .... 1039


General Settings:
 Integral files         IntName         .... data/geom_opt_PO_BP86/80757/80757
 Hartree-Fock type      HFTyp           .... RHF
 Total Charge           Charge          ....    0
 Multiplicity           Mult            ....    1
 Number of Electrons    NEL             ....  130
 Basis Dimension        Dim             ....  343
 Nuclear Repulsion      ENuc            ....   1259.9481233009 Eh

Convergence Acceleration:
 AO-DIIS                CNVDIIS         .... on
   Start iteration      DIISMaxIt       ....    12
   Startup error        DIISStart       ....  0.200000
   # of expansion vecs  DIISMaxEq       ....     5
   Bias factor          DIISBfac        ....   1.050
   Max. coefficient     DIISMaxC        ....  10.000
 MO-DIIS                CNVKDIIS        .... off
 Trust-Rad. Augm. Hess. CNVTRAH         .... auto
   Auto Start mean grad. ratio tolernc. ....  1.125000
   Auto Start start iteration           ....    50
   Auto Start num. interpolation iter.  ....    10
   Max. Number of Micro iterations      ....    24
   Max. Number of Macro iterations      .... Maxiter - #DIIS iter
   Number of Davidson start vectors     ....     2
   Converg. threshold    (grad. norm)   ....   1.000e-05
   Grad. Scal. Fac. for Micro threshold ....   0.100
   Minimum threshold for Micro iter.    ....   1.000e-02
   NR start threshold (gradient norm)   ....   1.000e-04
   Initial trust radius                 ....   0.400
   Minimum AH scaling param. (alpha)    ....   1.000
   Maximum AH scaling param. (alpha)    .... 1000.000
   Quad. conv. algorithm                .... NR
   White noise on init. David. guess    .... on
   Maximum white noise                  ....   0.010
   Pseudo random numbers                .... off
   Inactive MOs                         .... canonical
   Orbital update algorithm             .... Taylor
   Preconditioner                       .... Diag
   Full preconditioner red. dimension   ....   250
 SOSCF                  CNVSOSCF        .... on
   Start iteration      SOSCFMaxIt      ....   150
   Startup grad/error   SOSCFStart      ....  0.003300
   Hessian update       SOSCFHessUp     .... L-BFGS
 Level Shifting         CNVShift        .... on
   Level shift para.    LevelShift      ....    0.2500
   Turn off err/grad.   ShiftErr        ....    0.0010
 Zerner damping         CNVZerner       .... off
 Static damping         CNVDamp         .... on
   Fraction old density DampFac         ....    0.7000
   Max. Damping (<1)    DampMax         ....    0.9800
   Min. Damping (>=0)   DampMin         ....    0.0000
   Turn off err/grad.   DampErr         ....    0.1000

SCF Procedure:
 Maximum # iterations   MaxIter         ....   125
 SCF integral mode      SCFMode         .... Direct
   Integral package                     .... SHARK and LIBINT hybrid scheme
 Reset frequency        DirectResetFreq ....    20
 Integral Threshold     Thresh          ....  2.500e-11 Eh
 Primitive CutOff       TCut            ....  2.500e-12 Eh

Convergence Tolerance:
 Convergence Check Mode ConvCheckMode   .... Total+1el-Energy
 Convergence forced     ConvForced      .... 0
 Energy Change          TolE            ....  1.000e-08 Eh
 1-El. energy change                    ....  1.000e-05 Eh
 Orbital Gradient       TolG            ....  1.000e-05
 Orbital Rotation angle TolX            ....  1.000e-05
 DIIS Error             TolErr          ....  5.000e-07

------------------------------
INITIAL GUESS: MODEL POTENTIAL
------------------------------
Loading Hartree-Fock densities                     ... done
Calculating cut-offs                               ... done
Initializing the effective Hamiltonian             ... done
Setting up the integral package (SHARK)            ... done
Starting the Coulomb interaction                   ... done (   0.2 sec)
Making the grid                                    ... done (   0.2 sec)
Mapping shells                                     ... done
Starting the XC term evaluation                    ... done (   0.1 sec)
  promolecular density results
     # of electrons  =    129.993754234
     EX              =   -109.725542786
     EC              =     -4.792814913
     EX+EC           =   -114.518357699
Transforming the Hamiltonian                       ... done (   0.0 sec)
Diagonalizing the Hamiltonian                      ... done (   0.0 sec)
Back transforming the eigenvectors                 ... done (   0.0 sec)
Now organizing SCF variables                       ... done
                      ------------------
                      INITIAL GUESS DONE (   0.5 sec)
                      ------------------
             **** ENERGY FILE WAS UPDATED (data/geom_opt_PO_BP86/80757/80757.en.tmp) ****
Finished Guess after   0.6 sec
Maximum memory used throughout the entire GUESS-calculation: 26.1 MB


           ************************************************************
           *        Program running with 6 parallel MPI-processes     *
           *              working on a common directory               *
           ************************************************************

-------------------------------------------------------------------------------------------
                                      ORCA LEAN-SCF
                              memory conserving SCF solver
-------------------------------------------------------------------------------------------

----------------------------------------D-I-I-S--------------------------------------------
Iteration    Energy (Eh)           Delta-E    RMSDP     MaxDP     DIISErr   Damp  Time(sec)
-------------------------------------------------------------------------------------------
               ***  Starting incremental Fock matrix formation  ***
    1    -962.9033718417038017     0.00e+00  3.54e-03  1.57e-01  3.36e-01  0.700   0.9
    2    -963.1586054812867133    -2.55e-01  2.11e-03  8.49e-02  8.34e-02  0.700   0.9
                               ***Turning on AO-DIIS***
    3    -963.2383068489700690    -7.97e-02  7.14e-04  1.94e-02  2.63e-02  0.700   0.8
    4    -963.2911175264382564    -5.28e-02  1.17e-03  3.95e-02  1.31e-02  0.000   0.8
    5    -963.4105264059392084    -1.19e-01  3.11e-04  8.74e-03  8.68e-03  0.000   0.8
                              *** Initializing SOSCF ***
---------------------------------------S-O-S-C-F--------------------------------------
Iteration    Energy (Eh)           Delta-E    RMSDP     MaxDP     MaxGrad    Time(sec)
--------------------------------------------------------------------------------------
    6    -963.4118401170283050    -1.31e-03  1.13e-04  2.73e-03  1.84e-03     0.8
               *** Restarting incremental Fock matrix formation ***
    7    -963.4119303586264778    -9.02e-05  9.53e-05  3.13e-03  2.91e-04     0.9
    8    -963.4119203011653099     1.01e-05  4.51e-05  1.53e-03  9.18e-04     0.7
    9    -963.4119416762398487    -2.14e-05  2.92e-05  9.18e-04  2.99e-04     0.7
   10    -963.4119391949291185     2.48e-06  1.66e-05  5.79e-04  2.94e-04     0.7
   11    -963.4119435971017538    -4.40e-06  8.45e-06  3.91e-04  3.84e-05     0.7
   12    -963.4119433191920052     2.78e-07  6.01e-06  3.58e-04  9.00e-05     0.7
   13    -963.4119436740904803    -3.55e-07  2.60e-06  1.03e-04  1.41e-05     1.3
   14    -963.4119436429780308     3.11e-08  1.49e-06  7.97e-05  2.41e-05     0.7
   15    -963.4119436903313272    -4.74e-08  5.35e-07  2.93e-05  3.94e-06     0.7
   16    -963.4119436904973099    -1.66e-10  2.76e-07  1.61e-05  6.45e-06     0.7
                 **** Energy Check signals convergence ****

               *****************************************************
               *                     SUCCESS                       *
               *           SCF CONVERGED AFTER  16 CYCLES          *
               *****************************************************

             **** ENERGY FILE WAS UPDATED (data/geom_opt_PO_BP86/80757/80757.en.tmp) ****

----------------
TOTAL SCF ENERGY
----------------

Total Energy       :       -963.41194369049731 Eh          -26215.77177 eV

Components:
Nuclear Repulsion  :       1259.94812330090076 Eh           34284.93145 eV
Electronic Energy  :      -2223.36006699139807 Eh          -60500.70322 eV
One Electron Energy:      -3816.08391030513758 Eh         -103840.92237 eV
Two Electron Energy:       1592.72384331373951 Eh           43340.21915 eV

Virial components:
Potential Energy   :      -1918.57606601431348 Eh          -52207.10891 eV
Kinetic Energy     :        955.16412232381617 Eh           25991.33714 eV
Virial Ratio       :          2.00863497819266

DFT components:
N(Alpha)           :       64.999856878950 electrons
N(Beta)            :       64.999856878950 electrons
N(Total)           :      129.999713757901 electrons
E(X)               :     -111.703199794995 Eh       
E(C)               :       -4.789269260791 Eh       
E(XC)              :     -116.492469055786 Eh       

---------------
SCF CONVERGENCE
---------------

  Last Energy change         ...    1.6598e-10  Tolerance :   1.0000e-08
  Last MAX-Density change    ...    1.6055e-05  Tolerance :   1.0000e-07
  Last RMS-Density change    ...    2.7599e-07  Tolerance :   5.0000e-09
  Last DIIS Error            ...    1.8365e-03  Tolerance :   5.0000e-07
  Last Orbital Gradient      ...    6.4524e-06  Tolerance :   1.0000e-05
  Last Orbital Rotation      ...    1.3371e-05  Tolerance :   1.0000e-05


----------------
ORBITAL ENERGIES
----------------

  NO   OCC          E(Eh)            E(eV) 
   0   2.0000     -76.397380     -2078.8784 
   1   2.0000     -18.697694      -508.7901 
   2   2.0000      -9.937322      -270.4083 
   3   2.0000      -9.931949      -270.2621 
   4   2.0000      -9.931670      -270.2545 
   5   2.0000      -9.930517      -270.2231 
   6   2.0000      -9.928993      -270.1816 
   7   2.0000      -9.928571      -270.1702 
   8   2.0000      -9.911465      -269.7047 
   9   2.0000      -9.911062      -269.6937 
  10   2.0000      -9.909875      -269.6614 
  11   2.0000      -9.908628      -269.6275 
  12   2.0000      -9.907443      -269.5952 
  13   2.0000      -9.899810      -269.3875 
  14   2.0000      -9.893933      -269.2276 
  15   2.0000      -9.892716      -269.1945 
  16   2.0000      -6.358529      -173.0244 
  17   2.0000      -4.579705      -124.6201 
  18   2.0000      -4.579403      -124.6119 
  19   2.0000      -4.579275      -124.6084 
  20   2.0000      -0.841465       -22.8974 
  21   2.0000      -0.789555       -21.4849 
  22   2.0000      -0.727877       -19.8065 
  23   2.0000      -0.721316       -19.6280 
  24   2.0000      -0.695653       -18.9297 
  25   2.0000      -0.685403       -18.6508 
  26   2.0000      -0.667279       -18.1576 
  27   2.0000      -0.653822       -17.7914 
  28   2.0000      -0.593478       -16.1494 
  29   2.0000      -0.561788       -15.2870 
  30   2.0000      -0.557709       -15.1760 
  31   2.0000      -0.555899       -15.1268 
  32   2.0000      -0.520696       -14.1689 
  33   2.0000      -0.511929       -13.9303 
  34   2.0000      -0.500313       -13.6142 
  35   2.0000      -0.459285       -12.4978 
  36   2.0000      -0.430958       -11.7270 
  37   2.0000      -0.423941       -11.5360 
  38   2.0000      -0.421396       -11.4668 
  39   2.0000      -0.410742       -11.1769 
  40   2.0000      -0.398842       -10.8530 
  41   2.0000      -0.392228       -10.6731 
  42   2.0000      -0.390475       -10.6254 
  43   2.0000      -0.387736       -10.5508 
  44   2.0000      -0.377840       -10.2815 
  45   2.0000      -0.368733       -10.0337 
  46   2.0000      -0.366325        -9.9682 
  47   2.0000      -0.347134        -9.4460 
  48   2.0000      -0.344531        -9.3752 
  49   2.0000      -0.333795        -9.0830 
  50   2.0000      -0.323594        -8.8054 
  51   2.0000      -0.319328        -8.6893 
  52   2.0000      -0.315231        -8.5779 
  53   2.0000      -0.308247        -8.3878 
  54   2.0000      -0.300315        -8.1720 
  55   2.0000      -0.295603        -8.0438 
  56   2.0000      -0.289965        -7.8904 
  57   2.0000      -0.286912        -7.8073 
  58   2.0000      -0.285589        -7.7713 
  59   2.0000      -0.281020        -7.6469 
  60   2.0000      -0.277263        -7.5447 
  61   2.0000      -0.248134        -6.7521 
  62   2.0000      -0.246723        -6.7137 
  63   2.0000      -0.206573        -5.6211 
  64   2.0000      -0.197079        -5.3628 
  65   0.0000      -0.069927        -1.9028 
  66   0.0000      -0.055947        -1.5224 
  67   0.0000       0.018528         0.5042 
  68   0.0000       0.041162         1.1201 
  69   0.0000       0.045038         1.2256 
  70   0.0000       0.048889         1.3303 
  71   0.0000       0.051564         1.4031 
  72   0.0000       0.061985         1.6867 
  73   0.0000       0.065397         1.7795 
  74   0.0000       0.076432         2.0798 
  75   0.0000       0.080682         2.1955 
*Only the first 10 virtual orbitals were printed.

                    ********************************
                    * MULLIKEN POPULATION ANALYSIS *
                    ********************************

-----------------------
MULLIKEN ATOMIC CHARGES
-----------------------
   0 C :   -0.020761
   1 C :   -0.048067
   2 C :   -0.015666
   3 C :   -0.100881
   4 P :    0.453257
   5 O :   -0.468519
   6 C :   -0.080878
   7 C :   -0.020082
   8 C :   -0.054631
   9 C :   -0.027175
  10 C :   -0.095861
  11 C :    0.000751
  12 C :    0.012946
  13 C :    0.015649
  14 C :    0.010134
  15 C :   -0.003476
  16 H :    0.026031
  17 H :    0.021929
  18 H :    0.022472
  19 H :    0.009626
  20 H :    0.016118
  21 H :    0.034093
  22 H :    0.016970
  23 H :    0.047319
  24 H :    0.015718
  25 H :    0.051300
  26 H :    0.020661
  27 H :    0.018018
  28 H :    0.010825
  29 H :    0.015747
  30 H :    0.039599
  31 H :    0.017226
  32 H :    0.013675
  33 H :    0.024667
  34 H :    0.016365
  35 H :    0.004714
  36 H :    0.003670
  37 H :    0.000127
  38 H :   -0.003612
Sum of atomic charges:   -0.0000000

--------------------------------
MULLIKEN REDUCED ORBITAL CHARGES
--------------------------------
  0 C s       :     2.990734  s :     2.990734
      pz      :     1.002389  p :     3.003238
      px      :     0.989277
      py      :     1.011572
      dz2     :     0.006377  d :     0.026790
      dxz     :     0.005250
      dyz     :     0.004347
      dx2y2   :     0.008428
      dxy     :     0.002388

  1 C s       :     3.027123  s :     3.027123
      pz      :     1.009702  p :     2.985766
      px      :     0.966379
      py      :     1.009685
      dz2     :     0.008077  d :     0.035179
      dxz     :     0.007183
      dyz     :     0.005045
      dx2y2   :     0.009816
      dxy     :     0.005059

  2 C s       :     3.021109  s :     3.021109
      pz      :     1.015439  p :     2.960026
      px      :     0.933117
      py      :     1.011470
      dz2     :     0.007752  d :     0.034531
      dxz     :     0.007393
      dyz     :     0.004876
      dx2y2   :     0.009447
      dxy     :     0.005062

  3 C s       :     3.037370  s :     3.037370
      pz      :     1.016097  p :     3.036058
      px      :     0.999024
      py      :     1.020937
      dz2     :     0.006948  d :     0.027453
      dxz     :     0.004986
      dyz     :     0.004624
      dx2y2   :     0.007981
      dxy     :     0.002914

  4 P s       :     5.274571  s :     5.274571
      pz      :     2.892555  p :     8.779447
      px      :     2.959656
      py      :     2.927236
      dz2     :     0.109943  d :     0.492725
      dxz     :     0.138253
      dyz     :     0.091289
      dx2y2   :     0.101150
      dxy     :     0.052090

  5 O s       :     3.822887  s :     3.822887
      pz      :     1.431386  p :     4.633723
      px      :     1.650763
      py      :     1.551575
      dz2     :     0.003792  d :     0.011908
      dxz     :     0.002467
      dyz     :     0.003749
      dx2y2   :     0.000947
      dxy     :     0.000953

  6 C s       :     3.023537  s :     3.023537
      pz      :     1.008821  p :     3.029925
      px      :     1.006221
      py      :     1.014883
      dz2     :     0.005417  d :     0.027416
      dxz     :     0.006853
      dyz     :     0.002908
      dx2y2   :     0.006914
      dxy     :     0.005325

  7 C s       :     3.015564  s :     3.015564
      pz      :     1.008148  p :     2.969454
      px      :     0.953126
      py      :     1.008180
      dz2     :     0.008130  d :     0.035064
      dxz     :     0.008452
      dyz     :     0.004428
      dx2y2   :     0.009311
      dxy     :     0.004744

  8 C s       :     3.039588  s :     3.039588
      pz      :     0.999339  p :     2.980515
      px      :     0.974452
      py      :     1.006725
      dz2     :     0.007912  d :     0.034528
      dxz     :     0.007698
      dyz     :     0.004876
      dx2y2   :     0.008680
      dxy     :     0.005362

  9 C s       :     2.993328  s :     2.993328
      pz      :     1.004396  p :     3.006892
      px      :     0.993704
      py      :     1.008793
      dz2     :     0.004928  d :     0.026954
      dxz     :     0.006753
      dyz     :     0.003500
      dx2y2   :     0.006529
      dxy     :     0.005244

 10 C s       :     3.066832  s :     3.066832
      pz      :     0.972312  p :     2.995540
      px      :     1.027844
      py      :     0.995384
      dz2     :     0.009905  d :     0.033488
      dxz     :     0.006355
      dyz     :     0.009036
      dx2y2   :     0.004989
      dxy     :     0.003204

 11 C s       :     3.248976  s :     3.248976
      pz      :     0.906811  p :     2.717451
      px      :     0.940497
      py      :     0.870143
      dz2     :     0.007654  d :     0.032822
      dxz     :     0.003624
      dyz     :     0.011630
      dx2y2   :     0.004773
      dxy     :     0.005140

 12 C s       :     3.174342  s :     3.174342
      pz      :     0.866918  p :     2.779965
      px      :     0.971423
      py      :     0.941624
      dz2     :     0.007990  d :     0.032747
      dxz     :     0.003449
      dyz     :     0.011155
      dx2y2   :     0.004859
      dxy     :     0.005293

 13 C s       :     3.170389  s :     3.170389
      pz      :     0.965563  p :     2.780892
      px      :     0.962435
      py      :     0.852894
      dz2     :     0.010334  d :     0.033069
      dxz     :     0.006107
      dyz     :     0.009389
      dx2y2   :     0.004471
      dxy     :     0.002768

 14 C s       :     3.171622  s :     3.171622
      pz      :     0.881120  p :     2.785531
      px      :     0.982353
      py      :     0.922058
      dz2     :     0.007662  d :     0.032712
      dxz     :     0.003573
      dyz     :     0.011804
      dx2y2   :     0.004727
      dxy     :     0.004947

 15 C s       :     3.222757  s :     3.222757
      pz      :     0.870726  p :     2.747545
      px      :     0.963916
      py      :     0.912904
      dz2     :     0.008088  d :     0.033174
      dxz     :     0.003407
      dyz     :     0.010953
      dx2y2   :     0.004940
      dxy     :     0.005786

 16 H s       :     0.951046  s :     0.951046
      pz      :     0.011176  p :     0.022923
      px      :     0.004964
      py      :     0.006783

 17 H s       :     0.955135  s :     0.955135
      pz      :     0.005301  p :     0.022935
      px      :     0.004994
      py      :     0.012640

 18 H s       :     0.954790  s :     0.954790
      pz      :     0.006344  p :     0.022738
      px      :     0.010825
      py      :     0.005569

 19 H s       :     0.968536  s :     0.968536
      pz      :     0.010829  p :     0.021838
      px      :     0.004331
      py      :     0.006679

 20 H s       :     0.962015  s :     0.962015
      pz      :     0.005036  p :     0.021867
      px      :     0.004407
      py      :     0.012424

 21 H s       :     0.943928  s :     0.943928
      pz      :     0.011165  p :     0.021978
      px      :     0.004109
      py      :     0.006704

 22 H s       :     0.960716  s :     0.960716
      pz      :     0.005175  p :     0.022314
      px      :     0.004376
      py      :     0.012763

 23 H s       :     0.929737  s :     0.929737
      pz      :     0.005169  p :     0.022944
      px      :     0.004771
      py      :     0.013003

 24 H s       :     0.961158  s :     0.961158
      pz      :     0.011167  p :     0.023124
      px      :     0.005173
      py      :     0.006783

 25 H s       :     0.925900  s :     0.925900
      pz      :     0.005257  p :     0.022800
      px      :     0.004555
      py      :     0.012987

 26 H s       :     0.956169  s :     0.956169
      pz      :     0.011594  p :     0.023170
      px      :     0.005306
      py      :     0.006270

 27 H s       :     0.959748  s :     0.959748
      pz      :     0.004835  p :     0.022234
      px      :     0.004595
      py      :     0.012803

 28 H s       :     0.967231  s :     0.967231
      pz      :     0.009459  p :     0.021944
      px      :     0.006239
      py      :     0.006246

 29 H s       :     0.962471  s :     0.962471
      pz      :     0.004647  p :     0.021782
      px      :     0.004835
      py      :     0.012300

 30 H s       :     0.937635  s :     0.937635
      pz      :     0.009991  p :     0.022765
      px      :     0.006619
      py      :     0.006156

 31 H s       :     0.959825  s :     0.959825
      pz      :     0.005601  p :     0.022948
      px      :     0.005036
      py      :     0.012311

 32 H s       :     0.963396  s :     0.963396
      pz      :     0.009782  p :     0.022930
      px      :     0.006167
      py      :     0.006982

 33 H s       :     0.952611  s :     0.952611
      pz      :     0.010620  p :     0.022722
      px      :     0.005508
      py      :     0.006594

 34 H s       :     0.960811  s :     0.960811
      pz      :     0.010444  p :     0.022824
      px      :     0.004544
      py      :     0.007835

 35 H s       :     0.972956  s :     0.972956
      pz      :     0.011560  p :     0.022330
      px      :     0.005438
      py      :     0.005332

 36 H s       :     0.974035  s :     0.974035
      pz      :     0.003789  p :     0.022295
      px      :     0.005086
      py      :     0.013420

 37 H s       :     0.977471  s :     0.977471
      pz      :     0.010338  p :     0.022402
      px      :     0.004984
      py      :     0.007080

 38 H s       :     0.981010  s :     0.981010
      pz      :     0.011576  p :     0.022601
      px      :     0.005709
      py      :     0.005316



                     *******************************
                     * LOEWDIN POPULATION ANALYSIS *
                     *******************************

----------------------
LOEWDIN ATOMIC CHARGES
----------------------
   0 C :   -0.067570
   1 C :   -0.045729
   2 C :   -0.049000
   3 C :   -0.182718
   4 P :    0.866364
   5 O :   -0.506092
   6 C :   -0.184398
   7 C :   -0.048631
   8 C :   -0.048539
   9 C :   -0.069795
  10 C :   -0.193953
  11 C :   -0.008102
  12 C :   -0.022949
  13 C :   -0.014976
  14 C :   -0.025699
  15 C :   -0.026565
  16 H :    0.026720
  17 H :    0.024838
  18 H :    0.026335
  19 H :    0.020652
  20 H :    0.023616
  21 H :    0.030678
  22 H :    0.023678
  23 H :    0.037149
  24 H :    0.019920
  25 H :    0.039322
  26 H :    0.024093
  27 H :    0.022832
  28 H :    0.024142
  29 H :    0.024892
  30 H :    0.025019
  31 H :    0.022925
  32 H :    0.020417
  33 H :    0.027223
  34 H :    0.037217
  35 H :    0.034405
  36 H :    0.033126
  37 H :    0.032649
  38 H :    0.026502

-------------------------------
LOEWDIN REDUCED ORBITAL CHARGES
-------------------------------
  0 C s       :     2.839609  s :     2.839609
      pz      :     1.054981  p :     3.157695
      px      :     1.039220
      py      :     1.063495
      dz2     :     0.015503  d :     0.070265
      dxz     :     0.015208
      dyz     :     0.011261
      dx2y2   :     0.022419
      dxy     :     0.005874

  1 C s       :     2.839336  s :     2.839336
      pz      :     1.045953  p :     3.117661
      px      :     1.013393
      py      :     1.058315
      dz2     :     0.019184  d :     0.088732
      dxz     :     0.019721
      dyz     :     0.012735
      dx2y2   :     0.026079
      dxy     :     0.011013

  2 C s       :     2.839319  s :     2.839319
      pz      :     1.052393  p :     3.121581
      px      :     1.006326
      py      :     1.062861
      dz2     :     0.018553  d :     0.088100
      dxz     :     0.020165
      dyz     :     0.012193
      dx2y2   :     0.026211
      dxy     :     0.010978

  3 C s       :     2.891359  s :     2.891359
      pz      :     1.068546  p :     3.219826
      px      :     1.073979
      py      :     1.077300
      dz2     :     0.016882  d :     0.071533
      dxz     :     0.014124
      dyz     :     0.011790
      dx2y2   :     0.021937
      dxy     :     0.006800

  4 P s       :     4.929937  s :     4.929937
      pz      :     2.802200  p :     8.519281
      px      :     2.872069
      py      :     2.845012
      dz2     :     0.154836  d :     0.684419
      dxz     :     0.192760
      dyz     :     0.124929
      dx2y2   :     0.147656
      dxy     :     0.064238

  5 O s       :     3.657622  s :     3.657622
      pz      :     1.546222  p :     4.829874
      px      :     1.672777
      py      :     1.610875
      dz2     :     0.006201  d :     0.018596
      dxz     :     0.002922
      dyz     :     0.007055
      dx2y2   :     0.001303
      dxy     :     0.001115

  6 C s       :     2.889491  s :     2.889491
      pz      :     1.082371  p :     3.223442
      px      :     1.059532
      py      :     1.081539
      dz2     :     0.014937  d :     0.071465
      dxz     :     0.016847
      dyz     :     0.007971
      dx2y2   :     0.019777
      dxy     :     0.011933

  7 C s       :     2.839384  s :     2.839384
      pz      :     1.049321  p :     3.119894
      px      :     1.007863
      py      :     1.062710
      dz2     :     0.020674  d :     0.089353
      dxz     :     0.020840
      dyz     :     0.011510
      dx2y2   :     0.025762
      dxy     :     0.010567

  8 C s       :     2.837988  s :     2.837988
      pz      :     1.041361  p :     3.123176
      px      :     1.023792
      py      :     1.058023
      dz2     :     0.020463  d :     0.087376
      dxz     :     0.018196
      dyz     :     0.012914
      dx2y2   :     0.024116
      dxy     :     0.011687

  9 C s       :     2.840460  s :     2.840460
      pz      :     1.063985  p :     3.158668
      px      :     1.029406
      py      :     1.065277
      dz2     :     0.013956  d :     0.070668
      dxz     :     0.016128
      dyz     :     0.009709
      dx2y2   :     0.019318
      dxy     :     0.011558

 10 C s       :     2.907913  s :     2.907913
      pz      :     1.086828  p :     3.195380
      px      :     1.014359
      py      :     1.094193
      dz2     :     0.028661  d :     0.090660
      dxz     :     0.014364
      dyz     :     0.028540
      dx2y2   :     0.012329
      dxy     :     0.006765

 11 C s       :     2.868110  s :     2.868110
      pz      :     1.050778  p :     3.050536
      px      :     0.942539
      py      :     1.057219
      dz2     :     0.022155  d :     0.089457
      dxz     :     0.008131
      dyz     :     0.033956
      dx2y2   :     0.013524
      dxy     :     0.011690

 12 C s       :     2.863806  s :     2.863806
      pz      :     1.043119  p :     3.070222
      px      :     0.965618
      py      :     1.061484
      dz2     :     0.022812  d :     0.088922
      dxz     :     0.007215
      dyz     :     0.032702
      dx2y2   :     0.014274
      dxy     :     0.011919

 13 C s       :     2.864892  s :     2.864892
      pz      :     1.065793  p :     3.060758
      px      :     0.954463
      py      :     1.040503
      dz2     :     0.029755  d :     0.089326
      dxz     :     0.014159
      dyz     :     0.028627
      dx2y2   :     0.011170
      dxy     :     0.005615

 14 C s       :     2.863653  s :     2.863653
      pz      :     1.047203  p :     3.073255
      px      :     0.972128
      py      :     1.053925
      dz2     :     0.022457  d :     0.088790
      dxz     :     0.007900
      dyz     :     0.033539
      dx2y2   :     0.013591
      dxy     :     0.011303

 15 C s       :     2.864793  s :     2.864793
      pz      :     1.041614  p :     3.070796
      px      :     0.966649
      py      :     1.062533
      dz2     :     0.023245  d :     0.090977
      dxz     :     0.007377
      dyz     :     0.032590
      dx2y2   :     0.014774
      dxy     :     0.012992

 16 H s       :     0.907567  s :     0.907567
      pz      :     0.034617  p :     0.065713
      px      :     0.013072
      py      :     0.018023

 17 H s       :     0.909565  s :     0.909565
      pz      :     0.013573  p :     0.065597
      px      :     0.013220
      py      :     0.038804

 18 H s       :     0.907852  s :     0.907852
      pz      :     0.017871  p :     0.065812
      px      :     0.034013
      py      :     0.013928

 19 H s       :     0.913524  s :     0.913524
      pz      :     0.034387  p :     0.065825
      px      :     0.013444
      py      :     0.017994

[...]

 13 C s       :     2.874660  s :     2.874660
      pz      :     1.063629  p :     3.062372
      px      :     0.960915
      py      :     1.037828
      dz2     :     0.028954  d :     0.085515
      dxz     :     0.013417
      dyz     :     0.027994
      dx2y2   :     0.010191
      dxy     :     0.004958

 14 C s       :     2.872946  s :     2.872946
      pz      :     1.045961  p :     3.071252
      px      :     0.973359
      py      :     1.051932
      dz2     :     0.022102  d :     0.085850
      dxz     :     0.007539
      dyz     :     0.032681
      dx2y2   :     0.012933
      dxy     :     0.010595

 15 C s       :     2.873610  s :     2.873610
      pz      :     1.040946  p :     3.075349
      px      :     0.972718
      py      :     1.061685
      dz2     :     0.023127  d :     0.088085
      dxz     :     0.006619
      dyz     :     0.031751
      dx2y2   :     0.014270
      dxy     :     0.012318

 16 H s       :     0.907422  s :     0.907422
      pz      :     0.033983  p :     0.063301
      px      :     0.012290
      py      :     0.017028

 17 H s       :     0.909188  s :     0.909188
      pz      :     0.012788  p :     0.063162
      px      :     0.012192
      py      :     0.038183

 18 H s       :     0.907245  s :     0.907245
      pz      :     0.015131  p :     0.063396
      px      :     0.035045
      py      :     0.013220

 19 H s       :     0.913812  s :     0.913812
      pz      :     0.033370  p :     0.063006
      px      :     0.012732
      py      :     0.016904

 20 H s       :     0.911589  s :     0.911589
      pz      :     0.012821  p :     0.063048
      px      :     0.012514
      py      :     0.037713

 21 H s       :     0.900996  s :     0.900996
      pz      :     0.035390  p :     0.066070
      px      :     0.013114
      py      :     0.017566

 22 H s       :     0.906748  s :     0.906748
      pz      :     0.013193  p :     0.064424
      px      :     0.012548
      py      :     0.038683

 23 H s       :     0.895752  s :     0.895752
      pz      :     0.013636  p :     0.068323
      px      :     0.015269
      py      :     0.039418

 24 H s       :     0.902984  s :     0.902984
      pz      :     0.035086  p :     0.069166
      px      :     0.015430
      py      :     0.018651

 25 H s       :     0.894218  s :     0.894218
      pz      :     0.013642  p :     0.068578
      px      :     0.014179
      py      :     0.040758

 26 H s       :     0.899603  s :     0.899603
      pz      :     0.036467  p :     0.069397
      px      :     0.015494
      py      :     0.017436

 27 H s       :     0.907734  s :     0.907734
      pz      :     0.013340  p :     0.064904
      px      :     0.012246
      py      :     0.039317

 28 H s       :     0.909376  s :     0.909376
      pz      :     0.029758  p :     0.063825
      px      :     0.020403
      py      :     0.013664

 29 H s       :     0.912746  s :     0.912746
      pz      :     0.013724  p :     0.063287
      px      :     0.012417
      py      :     0.037147

 30 H s       :     0.901068  s :     0.901068
      pz      :     0.030865  p :     0.070318
      px      :     0.026538
      py      :     0.012915

 31 H s       :     0.910161  s :     0.910161
      pz      :     0.013787  p :     0.063035
      px      :     0.012369
      py      :     0.036879

 32 H s       :     0.914125  s :     0.914125
      pz      :     0.027451  p :     0.063019
      px      :     0.022784
      py      :     0.012783

 33 H s       :     0.906573  s :     0.906573
      pz      :     0.028139  p :     0.063300
      px      :     0.015237
      py      :     0.019924

 34 H s       :     0.890989  s :     0.890989
      pz      :     0.031161  p :     0.070804
      px      :     0.012790
      py      :     0.026854

 35 H s       :     0.898464  s :     0.898464
      pz      :     0.035499  p :     0.065916
      px      :     0.014792
      py      :     0.015625

 36 H s       :     0.899445  s :     0.899445
      pz      :     0.011168  p :     0.065849
      px      :     0.014341
      py      :     0.040340

 37 H s       :     0.899978  s :     0.899978
      pz      :     0.030819  p :     0.065987
      px      :     0.013741
      py      :     0.021428

 38 H s       :     0.906574  s :     0.906574
      pz      :     0.035626  p :     0.066509
      px      :     0.015176
      py      :     0.015707



                      *****************************
                      * MAYER POPULATION ANALYSIS *
                      *****************************

  NA   - Mulliken gross atomic population
  ZA   - Total nuclear charge
  QA   - Mulliken gross atomic charge
  VA   - Mayer's total valence
  BVA  - Mayer's bonded valence
  FA   - Mayer's free valence

  ATOM       NA         ZA         QA         VA         BVA        FA
  0 C      6.0442     6.0000    -0.0442     4.0212     4.0212    -0.0000
  1 C      6.0467     6.0000    -0.0467     4.1191     4.1191    -0.0000
  2 C      6.0412     6.0000    -0.0412     4.0561     4.0561    -0.0000
  3 C      6.1221     6.0000    -0.1221     3.8779     3.8779    -0.0000
  4 P     14.5091    15.0000     0.4909     4.7438     4.7438    -0.0000
  5 O      8.4613     8.0000    -0.4613     2.1306     2.1306    -0.0000
  6 C      6.1133     6.0000    -0.1133     3.9078     3.9078    -0.0000
  7 C      6.0291     6.0000    -0.0291     4.0675     4.0675    -0.0000
  8 C      6.0738     6.0000    -0.0738     4.0939     4.0939    -0.0000
  9 C      6.0458     6.0000    -0.0458     4.0200     4.0200    -0.0000
 10 C      6.1392     6.0000    -0.1392     3.7398     3.7398    -0.0000
 11 C      5.9956     6.0000     0.0044     3.8859     3.8859    -0.0000
 12 C      5.9964     6.0000     0.0036     3.8236     3.8236    -0.0000
 13 C      5.9929     6.0000     0.0071     3.8295     3.8295    -0.0000
 14 C      6.0025     6.0000    -0.0025     3.8707     3.8707    -0.0000
 15 C      6.0086     6.0000    -0.0086     3.8546     3.8546    -0.0000
 16 H      0.9682     1.0000     0.0318     0.9890     0.9890     0.0000
 17 H      0.9714     1.0000     0.0286     0.9882     0.9882    -0.0000
 18 H      0.9698     1.0000     0.0302     0.9821     0.9821    -0.0000
 19 H      0.9852     1.0000     0.0148     0.9758     0.9758    -0.0000
 20 H      0.9799     1.0000     0.0201     0.9774     0.9774    -0.0000
 21 H      0.9564     1.0000     0.0436     1.0062     1.0062     0.0000
 22 H      0.9702     1.0000     0.0298     0.9897     0.9897    -0.0000
 23 H      0.9468     1.0000     0.0532     0.9898     0.9898     0.0000
 24 H      0.9658     1.0000     0.0342     0.9922     0.9922    -0.0000
 25 H      0.9444     1.0000     0.0556     0.9907     0.9907    -0.0000
 26 H      0.9626     1.0000     0.0374     0.9870     0.9870    -0.0000
 27 H      0.9690     1.0000     0.0310     0.9924     0.9924     0.0000
 28 H      0.9806     1.0000     0.0194     0.9777     0.9777    -0.0000
 29 H      0.9864     1.0000     0.0136     0.9768     0.9768    -0.0000
 30 H      0.9469     1.0000     0.0531     1.0339     1.0339    -0.0000
 31 H      0.9732     1.0000     0.0268     0.9883     0.9883    -0.0000
 32 H      0.9812     1.0000     0.0188     0.9861     0.9861    -0.0000
 33 H      0.9688     1.0000     0.0312     0.9825     0.9825    -0.0000
 34 H      0.9759     1.0000     0.0241     1.0207     1.0207    -0.0000
 35 H      0.9895     1.0000     0.0105     0.9798     0.9798     0.0000
 36 H      0.9907     1.0000     0.0093     0.9789     0.9789     0.0000
 37 H      0.9944     1.0000     0.0056     0.9790     0.9790     0.0000
 38 H      1.0008     1.0000    -0.0008     0.9844     0.9844     0.0000

  Mayer bond orders larger than 0.100000
B(  0-C ,  1-C ) :   1.1152 B(  0-C , 16-H ) :   0.9658 B(  0-C , 17-H ) :   0.9660 
B(  0-C , 18-H ) :   0.9619 B(  1-C ,  2-C ) :   1.0855 B(  1-C , 19-H ) :   0.9386 
B(  1-C , 20-H ) :   0.9403 B(  2-C ,  3-C ) :   1.0595 B(  2-C , 21-H ) :   0.9300 
B(  2-C , 22-H ) :   0.9386 B(  3-C ,  4-P ) :   0.9174 B(  3-C , 23-H ) :   0.9221 
B(  3-C , 24-H ) :   0.9102 B(  4-P ,  5-O ) :   1.8295 B(  4-P ,  6-C ) :   0.9242 
B(  4-P , 10-C ) :   0.8581 B(  6-C ,  7-C ) :   1.0755 B(  6-C , 25-H ) :   0.9192 
B(  6-C , 26-H ) :   0.9074 B(  7-C ,  8-C ) :   1.0804 B(  7-C , 27-H ) :   0.9373 
B(  7-C , 28-H ) :   0.9318 B(  8-C ,  9-C ) :   1.1106 B(  8-C , 29-H ) :   0.9366 
B(  8-C , 30-H ) :   0.9265 B(  9-C , 31-H ) :   0.9664 B(  9-C , 32-H ) :   0.9642 
B(  9-C , 33-H ) :   0.9631 B( 10-C , 11-C ) :   1.3936 B( 10-C , 15-C ) :   1.3362 
B( 11-C , 12-C ) :   1.3627 B( 11-C , 34-H ) :   0.9687 B( 12-C , 13-C ) :   1.3841 
B( 12-C , 35-H ) :   0.9793 B( 13-C , 14-C ) :   1.3776 B( 13-C , 36-H ) :   0.9757 
B( 14-C , 15-C ) :   1.4053 B( 14-C , 37-H ) :   0.9752 B( 15-C , 38-H ) :   0.9727 


-------
TIMINGS
-------

Total SCF time: 0 days 0 hours 0 min 4 sec 

Total time                  ....       4.538 sec
Sum of individual times     ....       4.450 sec  ( 98.1%)

SCF preparation             ....       0.115 sec  (  2.5%)
Fock matrix formation       ....       3.933 sec  ( 86.7%)
  Startup                   ....       0.019 sec  (  0.5% of F)
  Split-RI-J                ....       1.263 sec  ( 32.1% of F)
  XC integration            ....       2.572 sec  ( 65.4% of F)
    Basis function eval.    ....       0.752 sec  ( 29.2% of XC)
    Density eval.           ....       0.807 sec  ( 31.4% of XC)
    XC-Functional eval.     ....       0.090 sec  (  3.5% of XC)
    XC-Potential eval.      ....       0.549 sec  ( 21.3% of XC)
Diagonalization             ....       0.000 sec  (  0.0%)
Density matrix formation    ....       0.044 sec  (  1.0%)
Total Energy calculation    ....       0.019 sec  (  0.4%)
Population analysis         ....       0.085 sec  (  1.9%)
Orbital Transformation      ....       0.035 sec  (  0.8%)
Orbital Orthonormalization  ....       0.000 sec  (  0.0%)
DIIS solution               ....       0.041 sec  (  0.9%)
SOSCF solution              ....       0.178 sec  (  3.9%)
Finished LeanSCF after   4.6 sec

Maximum memory used throughout the entire LEANSCF-calculation: 37.1 MB


-------------------------------------------------------------------------------
                          DFT DISPERSION CORRECTION                            
                                                                               
                              DFTD3 V3.1  Rev 1                                
                          USING Becke-Johnson damping                          
-------------------------------------------------------------------------------
The BP86 functional is recognized
Active option DFTDOPT                   ...         4   

molecular C6(AA) [au] = 14459.084855 


            DFT-D V3
 parameters
 s6 scaling factor         :     1.0000 
 a1 scaling factor         :     0.3946 
 s8 scaling factor         :     3.2822 
 a2 scaling factor         :     4.8516 
 ad hoc parameters k1-k3   :    16.0000     1.3333    -4.0000 

 Edisp/kcal,au: -45.473502892850  -0.072466631855 
 E6   /kcal   : -17.262532524 
 E8   /kcal   : -28.210970369 
 % E8         :  62.038260909 

-------------------------   ----------------
Dispersion correction           -0.072466632
-------------------------   ----------------


-------------------------   --------------------
FINAL SINGLE POINT ENERGY      -963.498043719650
-------------------------   --------------------

                                *** OPTIMIZATION RUN DONE ***



           ************************************************************
           *        Program running with 6 parallel MPI-processes     *
           *              working on a common directory               *
           ************************************************************

------------------------------------------------------------------------------
                              ORCA PROPERTY CALCULATIONS
------------------------------------------------------------------------------

GBWName                                 ... data/geom_opt_PO_BP86/80757/80757.gbw
Number of atoms                         ...     39
Number of basis functions               ...    343
Max core memory                         ...   1024 MB

Electric properties:
Dipole moment                           ... YES
Quadrupole moment                       ...  NO
Static polarizability (Dipole/Dipole)   ...  NO
Static polarizability (Dipole/Quad.)    ...  NO
Static polarizability (Quad./Quad.)     ...  NO
Static polarizability (Velocity)        ...  NO

Atomic electric properties:
Dipole moment                           ...  NO
Quadrupole moment                       ...  NO
Static polarizability                   ...  NO

Choice of electric origin               ... Center of mass
Position of electric origin             ...    -0.153404     0.213810     0.156431

General magnetic properties:
Magnetizability                         ...  NO

EPR properties:
g-Tensor (aka g-matrix)                 ...  NO
Zero-Field splitting spin-orbit         ...  NO
Zero-field splitting spin-spin          ...  NO
Hyperfine couplings                     ...  NO (   0 nuclei)
Quadrupole couplings                    ...  NO (   0 nuclei)
Contact density                         ...  NO (   0 nuclei)

NMR properties:
Chemical shifts                         ...  NO (   0 nuclei)
Spin-rotation constants                 ...  NO (   0 nuclei)
Spin-spin couplings                     ...  NO (   0 nuclei,    0 pairs)

Choice of magnetic origin               ... GIAO
Position of magnetic origin             ...     0.000000     0.000000     0.000000

Properties with geometric perturbations:
SCF Hessian                             ...  NO
IR spectrum                             ...  NO
VCD spectrum                            ...  NO
X-ray spectroscopy properties:
SCF XES/XAS/RIXS spectra                ...  NO


-------------
DIPOLE MOMENT
-------------

Method             : SCF
Type of density    : Electron Density
Multiplicity       :   1
Irrep              :   0
Energy             :  -963.4255770877955456 Eh
Relativity type    : 
Basis              : AO
                                X                 Y                 Z
Electronic contribution:     -3.020880556       6.386201685       1.713319658
Nuclear contribution   :      3.241804017      -5.672001482      -2.888347326
                        -----------------------------------------
Total Dipole Moment    :      0.220923461       0.714200202      -1.175027668
                        -----------------------------------------
Magnitude (a.u.)       :      1.392687734
Magnitude (Debye)      :      3.539930898



--------------------
Rotational spectrum 
--------------------
 
Rotational constants in cm-1:             0.017523             0.010329             0.007650 
Rotational constants in MHz :           525.340458           309.640682           229.344652 

Dipole components along the rotational axes: 
x,y,z [a.u.] :     0.253479     0.645406    -1.207799 
x,y,z [Debye]:     0.644293     1.640492    -3.069981 

 

Dipole moment calculation done in   0.0 sec 

Maximum memory used throughout the entire PROP-calculation: 18.4 MB

--------------------------------
SUGGESTED CITATIONS FOR THIS RUN
--------------------------------

Below you find a list of papers that are relevant to this ORCA run
We neither can nor want to force you to cite these papers, but we appreciate if you do
You receive ORCA, which is the product of decades of hard work by many enthusiastic individuals, for free
The only thing we kindly ask in return is that you cite our papers,
We deeply appreciate it, if you show your appreciation for ORCA by not just citing the generic ORCA reference.

Please note that relegating all ORCA citations to the supporting information does *not* help us.
SI sections are not indexed - citations you put there will not count into any citation statistics
But we need these citations in order to attract the funding resources that allow us to do what we are doing

Therefore, if you are a happy ORCA user, please consider citing a few of the papers listed below in the main body of your paper

In addition to the list printed below, the program has created the file data/geom_opt_PO_BP86/80757/80757.bibtex that contains the list in bibtex format
You can import this file easily into all common literature databanks and citation aid programs


List of essential papers. We consider these as the minimum necessary citations

  1. Neese,F.
     Software update: the ORCA program system, version 5.0
     WIRES Comput. Molec. Sci., 2022 12(1)e1606
     doi.org/10.1002/wcms.1606

List of papers to cite with high priority. The work reported in these papers was absolutely
necessary for this run to complete.
Our perspective: the developers of density functionals and basis sets usually get cited in chemistry papers
Good! But without the algorithms to do something with them, the functionals or basis sets would not do anything.
Hence, in our opinion, the algorithm design and method developments papers are equally worthy of getting cited

  1. Neese,F.
     An improvement of the resolution of the identity approximation for the formation of the Coulomb matrix
     J. Comp. Chem., 2003 24(14)1740-1747
     doi.org/10.1002/jcc.10318
  2. Neese,F.
     The SHARK Integral Generation and Digestion System
     J. Comp. Chem., 2022  1-16
     doi.org/10.1002/jcc.26942
  3. Grimme,S.; Antony,J.; Ehrlich,S.; Krieg,H.
     A consistent and accurate ab initio parametrization of density functional dispersion correction (DFT-D) for the 94 elements H-Pu
     J. Chem. Phys., 2010 132 154104-XXXX
     doi.org/10.1063/1.3382344
  4. Grimme,S.; Ehrlich,S.; Goerigk,L.
     Effect of the damping function in dispersion corrected density functional theory
     J. Comput. Chem., 2011 32(7)1456-1465
     doi.org/10.1002/jcc.21759

List of suggested additional citations. These are papers that are important in the 'surrounding' of 
of this run, or papers that preceded the highly important papers. If you like your results we are grateful for a citation.

  1. Neese,F.
     The ORCA program system
     WIRES Comput. Molec. Sci., 2012 2(1)73-78
     doi.org/10.1002/wcms.81
  2. Neese,F.
     Software update: the ORCA program system, version 4.0
     WIRES Comput. Molec. Sci., 2018 8(1)1-6
     doi.org/10.1002/wcms.1327
  3. Neese,F.; Wennmohs,F.; Becker,U.; Riplinger,C.
     The ORCA quantum chemistry program package
     J. Chem. Phys., 2020 152 Art. No. L224108
     doi.org/10.1063/5.0004608

List of optional additional citations

  1. Neese,F.
     Approximate second-order SCF convergence for spin unrestricted wavefunctions
     Chem. Phys. Lett., 2000 325(1-3)93-98
     doi.org/10.1016/s0009-2614(00)00662-x

Timings for individual modules:

Sum of individual times          ...      157.683 sec (=   2.628 min)
Startup calculation              ...       13.673 sec (=   0.228 min)   8.7 %
SCF iterations                   ...       91.075 sec (=   1.518 min)  57.8 %
Property calculations            ...        0.179 sec (=   0.003 min)   0.1 %
SCF Gradient evaluation          ...       52.576 sec (=   0.876 min)  33.3 %
Geometry relaxation              ...        0.180 sec (=   0.003 min)   0.1 %
                             ****ORCA TERMINATED NORMALLY****
TOTAL RUN TIME: 0 days 0 hours 2 minutes 39 seconds 871 msec
