
                                 *****************
                                 * O   R   C   A *
                                 *****************

                                            #,                                       
                                            ###                                      
                                            ####                                     
                                            #####                                    
                                            ######                                   
                                           ########,                                 
                                     ,,################,,,,,                         
                               ,,#################################,,                 
                          ,,##########################################,,             
                       ,#########################################, ''#####,          
                    ,#############################################,,   '####,        
                  ,##################################################,,,,####,       
                ,###########''''           ''''###############################       
              ,#####''   ,,,,##########,,,,          '''####'''          '####       
            ,##' ,,,,###########################,,,                        '##       
           ' ,,###''''                  '''############,,,                           
         ,,##''                                '''############,,,,        ,,,,,,###''
      ,#''                                            '''#######################'''  
     '                                                          ''''####''''         
             ,#######,   #######,   ,#######,      ##                                
            ,#'     '#,  ##    ##  ,#'     '#,    #''#        ,####,   ,####,        
            ##       ##  ##   ,#'  ##            #'  '#       #'       #'  '#        
            ##       ##  #######   ##           ,######,      #####,   #    #        
            '#,     ,#'  ##    ##  '#,     ,#' ,#      #,     #,   #   #,  ,#        
             '#######'   ##     ##  '#######'  #'      '#     '####' # '####'        



                #########################################################
                #                        -***-                          #
                #          Department of theory and spectroscopy        #
                #                                                       #
                #                      Frank Neese                      #
                #                                                       #
                #     Directorship, Architecture, Infrastructure        #
                #                    SHARK, DRIVERS                     #
                #        Core code/Algorithms in most modules           #
                #                                                       #
                #        Max Planck Institute fuer Kohlenforschung      #
                #                Kaiser Wilhelm Platz 1                 #
                #                 D-45470 Muelheim/Ruhr                 #
                #                      Germany                          #
                #                                                       #
                #                  All rights reserved                  #
                #                        -***-                          #
                #########################################################


                         Program Version 6.0.0  -   RELEASE   -


 With contributions from (in alphabetic order):
   Daniel Aravena         : Magnetic Suceptibility
   Michael Atanasov       : Ab Initio Ligand Field Theory (pilot matlab implementation)
   Alexander A. Auer      : GIAO ZORA, VPT2 properties, NMR spectrum
   Ute Becker             : All parallelization in ORCA, NUMFREQ, NUMCALC
   Giovanni Bistoni       : ED, misc. LED, open-shell LED, HFLD
   Martin Brehm           : Molecular dynamics
   Dmytro Bykov           : pre 5.0 version of the SCF Hessian
   Marcos Casanova-Páez   : Triplet and SCS-CIS(D). UHF-(DLPNO)-IP/EA/STEOM-CCSD. UHF-CVS-IP/STEOM-CCSD
   Vijay G. Chilkuri      : MRCI spin determinant printing, contributions to CSF-ICE
   Pauline Colinet        : FMM embedding
   Dipayan Datta          : RHF DLPNO-CCSD density
   Achintya Kumar Dutta   : EOM-CC, STEOM-CC
   Nicolas Foglia         : Exact transition moments, OPA infrastructure, MCD improvements
   Dmitry Ganyushin       : Spin-Orbit,Spin-Spin,Magnetic field MRCI
   Miquel Garcia          : C-PCM and meta-GGA Hessian, CCSD/C-PCM, Gaussian charge scheme
   Tiago L. C. Gouveia    : GS-ROHF, GS-ROCIS
   Yang Guo               : DLPNO-NEVPT2, F12-NEVPT2, CIM, IAO-localization
   Andreas Hansen         : Spin unrestricted coupled pair/coupled cluster methods
   Ingolf Harden          : AUTO-CI MPn and infrastructure 
   Benjamin Helmich-Paris : MC-RPA, TRAH-(SCF,CASSCF), AVAS, COSX integrals, SCF dyn. polar.
   Lee Huntington         : MR-EOM, pCC
   Robert Izsak           : Overlap fitted RIJCOSX, COSX-SCS-MP3, EOM
   Riya Kayal             : Wick's Theorem for AUTO-CI, AUTO-CI UHF-CCSDT
   Emily Kempfer          : AUTO-CI, RHF CISDT and CCSDT
   Christian Kollmar      : KDIIS, OOCD, Brueckner-CCSD(T), CCSD density, CASPT2, CASPT2-K, improved NEVPT2
   Axel Koslowski         : Symmetry handling
   Simone Kossmann        : Meta GGA functionals, TD-DFT gradient, OOMP2, (MP2 Hessian; deprecated post 5.0)
   Lucas Lang             : DCDCAS
   Marvin Lechner         : AUTO-CI (C++ implementation), FIC-MRCC
   Spencer Leger          : CASSCF response
   Dagmar Lenk            : GEPOL surface, SMD, ORCA-2-JSON
   Dimitrios Liakos       : Extrapolation schemes; Compound Job, initial MDCI parallelization
   Dimitrios Manganas     : Further ROCIS development; embedding schemes. LFT, Crystal Embedding
   Dimitrios Pantazis     : SARC Basis sets
   Anastasios Papadopoulos: AUTO-CI, single reference methods and gradients
   Taras Petrenko         : pre 6.0 DFT Hessian and TD-DFT gradient, (ASA, deprecated), ECA, 1-Electron XAS/XES, NRVS
   Peter Pinski           : DLPNO-MP2, DLPNO-MP2 Gradient
   Christoph Reimann      : Effective Core Potentials
   Marius Retegan         : Local ZFS, SOC
   Christoph Riplinger    : Optimizer, TS searches, QM/MM, DLPNO-CCSD(T), (RO)-DLPNO pert. Triples
   Michael Roemelt        : Original ROCIS implementation
   Masaaki Saitow         : Open-shell DLPNO-CCSD energy and density
   Barbara Sandhoefer     : DKH picture change effects
   Kantharuban Sivalingam : CASSCF convergence/infrastructure, NEVPT2 and variants, FIC-MRCI
   Bernardo de Souza      : ESD, SOC TD-DFT
   Georgi Stoychev        : AutoAux, RI-MP2 NMR, DLPNO-MP2 response, X2C
   Van Anh Tran           : RI-MP2 g-tensors
   Willem Van den Heuvel  : Paramagnetic NMR
   Zikuan Wang            : NOTCH, Electric field optimization 
   Frank Wennmohs         : Technical directorship and infrastructure
   Hang Xu                : AUTO-CI-Response properties 


 We gratefully acknowledge several colleagues who have allowed us to
 interface, adapt or use parts of their codes:
   Stefan Grimme, W. Hujo, H. Kruse, P. Pracht,  : VdW corrections, initial TS optimization,
                  C. Bannwarth, S. Ehlert,         DFT functionals, gCP, sTDA/sTD-DF
                  L. Wittmann, M. Mueller
   Ed Valeev, F. Pavosevic, A. Kumar             : LibInt (2-el integral package), F12 methods
   Garnet Chan, S. Sharma, J. Yang, R. Olivares  : DMRG
   Ulf Ekstrom                                   : XCFun DFT Library
   Mihaly Kallay                                 : mrcc  (arbitrary order and MRCC methods)
   Frank Weinhold                                : gennbo (NPA and NBO analysis)
   Simon Mueller                                 : openCOSMO-RS
   Christopher J. Cramer and Donald G. Truhlar   : smd solvation model
   Lars Goerigk                                  : TD-DFT with DH, B97 family of functionals
   V. Asgeirsson, H. Jonsson                     : NEB implementation
   FAccTs GmbH                                   : IRC, NEB, NEB-TS, DLPNO-Multilevel, CI-OPT
                                                   MM, QMMM, 2- and 3-layer-ONIOM, Crystal-QMMM,
                                                   LR-CPCM, SF, NACMEs, symmetry and pop. for TD-DFT,
                                                   nearIR, NL-DFT gradient (VV10), updates on ESD,
                                                   ML-optimized integration grids, MBIS, APM,
                                                   GOAT, DOCKER, SOLVATOR, interface openCOSMO-RS
   S Lehtola, MJT Oliveira, MAL Marques          : LibXC Library
   Liviu Ungur et al                             : ANISO software


 Your calculation uses the libint2 library for the computation of 2-el integrals
 For citations please refer to: http://libint.valeyev.net

 Your ORCA version has been built with support for libXC version: 6.2.2
 For citations please refer to: https://libxc.gitlab.io

 This ORCA versions uses:
   CBLAS   interface :  Fast vector & matrix operations
   LAPACKE interface :  Fast linear algebra routines
   Shared memory     :  Shared parallel matrices


Your calculation utilizes the atom-pairwise dispersion correction
with the zero-damping scheme (D30)


XCFun DFT library Copyright 2009-2010 Ulf Ekstrom and contributors.
See http://admol.org/xcfun for more information.
This is free software; see the source code for copying conditions.
There is ABSOLUTELY NO WARRANTY; not even for MERCHANTABILITY or FITNESS FOR A PARTICULAR PURPOSE.
For details see the documentation.
Scientific users of this library should cite U. Ekstrom, L. Visscher, R. Bast, A. J. Thorvaldsen and K. Ruud;
J.Chem.Theor.Comp. 2010, DOI: 10.1021/ct100117s
XCFun Version 0.99 

Warning: RI is on but no J-basis has been assigned. Assigning Def2/J (nothing to worry about!)
================================================================================

----- Orbital basis set information -----
Your calculation utilizes the basis: def2-TZVP
   F. Weigend and R. Ahlrichs, Phys. Chem. Chem. Phys. 7, 3297 (2005).

----- AuxJ basis set information -----
Your calculation utilizes the auxiliary basis: def2/J
   F. Weigend, Phys. Chem. Chem. Phys. 8, 1057 (2006).

================================================================================
                                        WARNINGS
                       Please study these warnings very carefully!
================================================================================

WARNING: Functional chosen is sensitive to the integration grid.
         DEFGRID3 seems to be a minimum grid for robust results!

================================================================================
                                       INPUT FILE
================================================================================
NAME = data/single_point_PO_M06-2x/82101/82101.inp
|  1> ! RIJCOSX M062X def2-TZVP D3ZERO NormalSCF
|  2> %pal
|  3> nprocs 6
|  4> end
|  5> 
|  6> * xyz 0 1
|  7>   C           5.17623912403149     -1.59762300596582      0.57097875380319
|  8>   C           4.20458565833484     -2.49719248113097      1.04018844776496
|  9>   C           2.94394377954967     -2.02521374920676      1.43933133548637
| 10>   C           2.63489570093337     -0.64969087461306      1.38019023773052
| 11>   C           3.62062311990657      0.24925691562709      0.91439805161055
| 12>   C           4.87853105288707     -0.22577267163876      0.51073161958785
| 13>   C           1.26955165660959     -0.15890774120441      1.80888425145538
| 14>   P           0.51155314306930      1.07041873018790      0.64917666936786
| 15>   O           1.30103282528324      2.36842078036296      0.54374014096571
| 16>   C           0.32127278985162      0.22224238635808     -0.99055734118057
| 17>   C          -0.43133627446447     -1.08054908818685     -0.94999062913417
| 18>   C           0.24710684367095     -2.29800005469986     -0.72538033817573
| 19>   C          -0.46011760843830     -3.50579092700685     -0.62109652514487
| 20>   C          -1.85983485043359     -3.51933791268970     -0.74512244858050
| 21>   C          -2.54347427318495     -2.31634310246196     -0.99016398136690
| 22>   C          -1.83527494686017     -1.10893544716141     -1.09398524689764
| 23>   C          -1.19298773971658      1.30602988954999      1.33559474469091
| 24>   C          -2.09798961110413      2.13952597689849      0.45575914234163
| 25>   C          -3.42077029203720      1.72083165620487      0.19862435305084
| 26>   C          -4.26926094677866      2.48112120341526     -0.62210533666335
| 27>   C          -3.80436308799156      3.67301481689304     -1.20218096851808
| 28>   C          -2.48962010093062      4.09964782315285     -0.94960132421122
| 29>   C          -1.64103916766150      3.34400090537447     -0.12523479814511
| 30>   H           6.16411359712065     -1.96561452379783      0.25406944635679
| 31>   H           4.42760647876671     -3.57395290065245      1.09510117082401
| 32>   H           2.18296205214308     -2.73361227589459      1.80368246855511
| 33>   H           3.37454333686081      1.32063697277356      0.85198010551750
| 34>   H           5.63412274485488      0.48617094710120      0.14407344810123
| 35>   H           0.56851846990987     -1.00687270208315      1.94709604717116
| 36>   H           1.32773349647873      0.38929113005252      2.77539126548518
| 37>   H          -0.17347861088538      0.97749748441238     -1.63485261209599
| 38>   H           1.36084227776253      0.09790046113614     -1.35666229067525
| 39>   H           1.34372067246935     -2.29390386177088     -0.63400471175922
| 40>   H           0.08846348594277     -4.44467693598441     -0.44806006807013
| 41>   H          -2.41499001330799     -4.46630267312414     -0.66360987514016
| 42>   H          -3.63817857503639     -2.31725048169217     -1.10852429164851
| 43>   H          -2.37542451284481     -0.17137718110203     -1.29473653622770
| 44>   H          -1.01601357934130      1.80673918820442      2.31332215506042
| 45>   H          -1.64284220077758      0.31440949024102      1.54563313953957
| 46>   H          -3.78830165682472      0.78594303278730      0.65091418972343
| 47>   H          -5.29891385300718      2.13923796072756     -0.80944159849759
| 48>   H          -4.46665286371666      4.26894307693560     -1.84868354139233
| 49>   H          -2.11729748525875      5.03275904802424     -1.40003433733174
| 50>   H          -0.60379805583463      3.66288271564713      0.06149761666660
| 51> **                         ****END OF INPUT****
================================================================================

                       ****************************
                       * Single Point Calculation *
                       ****************************

---------------------------------
CARTESIAN COORDINATES (ANGSTROEM)
---------------------------------
  C      5.176239   -1.597623    0.570979
  C      4.204586   -2.497192    1.040188
  C      2.943944   -2.025214    1.439331
  C      2.634896   -0.649691    1.380190
  C      3.620623    0.249257    0.914398
  C      4.878531   -0.225773    0.510732
  C      1.269552   -0.158908    1.808884
  P      0.511553    1.070419    0.649177
  O      1.301033    2.368421    0.543740
  C      0.321273    0.222242   -0.990557
  C     -0.431336   -1.080549   -0.949991
  C      0.247107   -2.298000   -0.725380
  C     -0.460118   -3.505791   -0.621097
  C     -1.859835   -3.519338   -0.745122
  C     -2.543474   -2.316343   -0.990164
  C     -1.835275   -1.108935   -1.093985
  C     -1.192988    1.306030    1.335595
  C     -2.097990    2.139526    0.455759
  C     -3.420770    1.720832    0.198624
  C     -4.269261    2.481121   -0.622105
  C     -3.804363    3.673015   -1.202181
  C     -2.489620    4.099648   -0.949601
  C     -1.641039    3.344001   -0.125235
  H      6.164114   -1.965615    0.254069
  H      4.427606   -3.573953    1.095101
  H      2.182962   -2.733612    1.803682
  H      3.374543    1.320637    0.851980
  H      5.634123    0.486171    0.144073
  H      0.568518   -1.006873    1.947096
  H      1.327733    0.389291    2.775391
  H     -0.173479    0.977497   -1.634853
  H      1.360842    0.097900   -1.356662
  H      1.343721   -2.293904   -0.634005
  H      0.088463   -4.444677   -0.448060
  H     -2.414990   -4.466303   -0.663610
  H     -3.638179   -2.317250   -1.108524
  H     -2.375425   -0.171377   -1.294737
  H     -1.016014    1.806739    2.313322
  H     -1.642842    0.314409    1.545633
  H     -3.788302    0.785943    0.650914
  H     -5.298914    2.139238   -0.809442
  H     -4.466653    4.268943   -1.848684
  H     -2.117297    5.032759   -1.400034
  H     -0.603798    3.662883    0.061498

----------------------------
CARTESIAN COORDINATES (A.U.)
----------------------------
  NO LB      ZA    FRAG     MASS         X           Y           Z
   0 C     6.0000    0    12.011    9.781674   -3.019070    1.078993
   1 C     6.0000    0    12.011    7.945515   -4.719010    1.965671
   2 C     6.0000    0    12.011    5.563247   -3.827099    2.719942
   3 C     6.0000    0    12.011    4.979231   -1.227738    2.608182
   4 C     6.0000    0    12.011    6.841986    0.471027    1.727962
   5 C     6.0000    0    12.011    9.219088   -0.426649    0.965143
   6 C     6.0000    0    12.011    2.399105   -0.300292    3.418296
   7 P    15.0000    0    30.974    0.966695    2.022798    1.226766
   8 O     8.0000    0    15.999    2.458596    4.475667    1.027520
   9 C     6.0000    0    12.011    0.607118    0.419977   -1.871882
  10 C     6.0000    0    12.011   -0.815107   -2.041942   -1.795222
  11 C     6.0000    0    12.011    0.466964   -4.342591   -1.370770
  12 C     6.0000    0    12.011   -0.869496   -6.624985   -1.173702
  13 C     6.0000    0    12.011   -3.514579   -6.650585   -1.408077
  14 C     6.0000    0    12.011   -4.806470   -4.377254   -1.871139
  15 C     6.0000    0    12.011   -3.468167   -2.095584   -2.067333
  16 C     6.0000    0    12.011   -2.254420    2.468039    2.523908
  17 C     6.0000    0    12.011   -3.964626    4.043118    0.861260
  18 C     6.0000    0    12.011   -6.464319    3.251901    0.375346
  19 C     6.0000    0    12.011   -8.067734    4.688640   -1.175609
  20 C     6.0000    0    12.011   -7.189204    6.940992   -2.271793
  21 C     6.0000    0    12.011   -4.704700    7.747212   -1.794486
  22 C     6.0000    0    12.011   -3.101115    6.319246   -0.236659
  23 H     1.0000    0     1.008   11.648487   -3.714473    0.480122
  24 H     1.0000    0     1.008    8.366964   -6.753792    2.069441
  25 H     1.0000    0     1.008    4.125200   -5.165779    3.408466
  26 H     1.0000    0     1.008    6.376963    2.495642    1.610009
  27 H     1.0000    0     1.008   10.646949    0.918730    0.272259
  28 H     1.0000    0     1.008    1.074344   -1.902714    3.679478
  29 H     1.0000    0     1.008    2.509053    0.735654    5.244729
  30 H     1.0000    0     1.008   -0.327827    1.847203   -3.089424
  31 H     1.0000    0     1.008    2.571619    0.185005   -2.563720
  32 H     1.0000    0     1.008    2.539264   -4.334850   -1.198095
  33 H     1.0000    0     1.008    0.167172   -8.399222   -0.846711
  34 H     1.0000    0     1.008   -4.563670   -8.440089   -1.254041
  35 H     1.0000    0     1.008   -6.875161   -4.378969   -2.094807
  36 H     1.0000    0     1.008   -4.488902   -0.323856   -2.446697
  37 H     1.0000    0     1.008   -1.919987    3.414242    4.371545
  38 H     1.0000    0     1.008   -3.104522    0.594148    2.920823
  39 H     1.0000    0     1.008   -7.158853    1.485217    1.230050
  40 H     1.0000    0     1.008  -10.013496    4.042574   -1.529623
  41 H     1.0000    0     1.008   -8.440751    8.067133   -3.493506
  42 H     1.0000    0     1.008   -4.001112    9.510536   -2.645681
  43 H     1.0000    0     1.008   -1.141013    6.921845    0.116214

--------------------------------
INTERNAL COORDINATES (ANGSTROEM)
--------------------------------
 C      0   0   0     0.000000000000     0.00000000     0.00000000
 C      1   0   0     1.404810818209     0.00000000     0.00000000
 C      2   1   0     1.404028815500   120.04742959     0.00000000
 C      3   2   1     1.411053352241   120.82600015   359.81817134
 C      4   3   2     1.413056274443   118.76281947   359.81351305
 C      5   4   3     1.403898879897   120.30255257     0.44549439
 C      4   3   2     1.512881687645   120.13361903   179.74895715
 P      7   4   3     1.852222177749   114.03015571   225.01130894
 O      8   7   4     1.522893414658   113.38383670   296.38845105
 C      8   7   4     1.855892601527   106.96729475    60.89446679
 C     10   8   7     1.505101886240   115.02676036    53.93693923
 C     11  10   8     1.411708788388   120.69404136   270.85743872
 C     12  11  10     1.403495753663   120.78361669   176.81672319
 C     13  12  11     1.405266632367   120.24179648     0.26388242
 C     14  13  12     1.405206293241   119.45376524     0.75357327
 C     15  14  13     1.403623306682   120.25534083   359.23167240
 C      8   7   4     1.852604116814   103.23545611   173.50517210
 C     17   8   7     1.512565635601   113.89500832   187.66532548
 C     18  17   8     1.411088928415   120.22321322   134.46172793
 C     19  18  17     1.404127419560   120.81820968   180.34860837
 C     20  19  18     1.404716392595   120.05393973     0.17079311
 C     21  20  19     1.405119682011   119.54216822   359.69238857
 C     22  21  20     1.403806266532   120.51256422     0.06043473
 H      1   2   3     1.100793005485   120.18549464   180.21857189
 H      2   1   3     1.100984420665   120.18624856   179.91577302
 H      3   2   1     1.101668466567   119.87250941   179.79742890
 H      5   4   3     1.101047903803   118.80369924   178.98512613
 H      6   5   4     1.101008962703   119.46322727   179.61361449
 H      7   4   3     1.108870869041   110.96490272   348.65892303
 H      7   4   3     1.112673778386   111.02507976   108.21250187
 H     10   8   7     1.109191420717   104.34502657   177.61609129
 H     10   8   7     1.109143123590   104.28660683   290.41520081
 H     12  11  10     1.100421816128   119.26970673   356.68436397
 H     13  12  11     1.101085723476   119.63114836   179.86053350
 H     14  13  12     1.100719679119   120.27312265   179.98860427
 H     15  14  13     1.101084690148   120.11419343   178.82215110
 H     16  15  14     1.100489952729   119.91382124   179.46610307
 H     17   8   7     1.112645740650   103.67854859    66.92193870
 H     17   8   7     1.108961757579   109.24982422   312.55596339
 H     19  18  17     1.101663350872   119.32237993     0.44350310
 H     20  19  18     1.100983257790   119.76543925   180.12646049
 H     21  20  19     1.100783273347   120.18253157   179.79343284
 H     22  21  20     1.101004353956   120.01338385   180.01656563
 H     23  22  21     1.101101143278   120.87233225   178.84462618

---------------------------
INTERNAL COORDINATES (A.U.)
---------------------------
 C      0   0   0     0.000000000000     0.00000000     0.00000000
 C      1   0   0     2.654707716385     0.00000000     0.00000000
 C      2   1   0     2.653229945429   120.04742959     0.00000000
 C      3   2   1     2.666504396087   120.82600015   359.81817134
 C      4   3   2     2.670289370517   118.76281947   359.81351305
 C      5   4   3     2.652984402724   120.30255257     0.44549439
 C      4   3   2     2.858932062674   120.13361903   179.74895715
 P      7   4   3     3.500192655121   114.03015571   225.01130894
 O      8   7   4     2.877851484856   113.38383670   296.38845105
 C      8   7   4     3.507128750857   106.96729475    60.89446679
 C     10   8   7     2.844230368642   115.02676036    53.93693923
 C     11  10   8     2.667742990904   120.69404136   270.85743872
 C     12  11  10     2.652222604544   120.78361669   176.81672319
 C     13  12  11     2.655569080311   120.24179648     0.26388242
 C     14  13  12     2.655455055889   119.45376524     0.75357327
 C     15  14  13     2.652463644818   120.25534083   359.23167240
 C      8   7   4     3.500914415353   103.23545611   173.50517210
 C     17   8   7     2.858334810867   113.89500832   187.66532548
 C     18  17   8     2.666571625312   120.22321322   134.46172793
 C     19  18  17     2.653416280097   120.81820968   180.34860837
 C     20  19  18     2.654529277835   120.05393973     0.17079311
 C     21  20  19     2.655291384383   119.54216822   359.69238857
 C     22  21  20     2.652809388828   120.51256422     0.06043473
 H      1   2   3     2.080197310502   120.18549464   180.21857189
 H      2   1   3     2.080559032772   120.18624856   179.91577302
 H      3   2   1     2.081851692189   119.87250941   179.79742890
 H      5   4   3     2.080678998516   118.80369924   178.98512613
 H      6   5   4     2.080605410502   119.46322727   179.61361449
 H      7   4   3     2.095462260370   110.96490272   348.65892303
 H      7   4   3     2.102648717544   111.02507976   108.21250187
 H     10   8   7     2.096068015250   104.34502657   177.61609129
 H     10   8   7     2.095976746908   104.28660683   290.41520081
 H     12  11  10     2.079495864275   119.26970673   356.68436397
 H     13  12  11     2.080750467341   119.63114836   179.86053350
 H     14  13  12     2.080058743752   120.27312265   179.98860427
 H     15  14  13     2.080748514634   120.11419343   178.82215110
 H     16  15  14     2.079624623790   119.91382124   179.46610307
 H     17   8   7     2.102595733903   103.67854859    66.92193870
 H     17   8   7     2.095634014816   109.24982422   312.55596339
 H     19  18  17     2.081842024927   119.32237993     0.44350310
 H     20  19  18     2.080556835255   119.76543925   180.12646049
 H     21  20  19     2.080178919427   120.18253157   179.79343284
 H     22  21  20     2.080596701232   120.01338385   180.01656563
 H     23  22  21     2.080779606543   120.87233225   178.84462618

---------------------
BASIS SET INFORMATION
---------------------
There are 4 groups of distinct atoms

 Group   1 Type C   : 11s6p2d1f contracted to 5s3p2d1f pattern {62111/411/11/1}
 Group   2 Type P   : 14s9p3d1f contracted to 5s5p2d1f pattern {73211/51111/21/1}
 Group   3 Type O   : 11s6p2d1f contracted to 5s3p2d1f pattern {62111/411/11/1}
 Group   4 Type H   : 5s1p contracted to 3s1p pattern {311/1}

Atom   0C    basis set group =>   1
Atom   1C    basis set group =>   1
Atom   2C    basis set group =>   1
Atom   3C    basis set group =>   1
Atom   4C    basis set group =>   1
Atom   5C    basis set group =>   1
Atom   6C    basis set group =>   1
Atom   7P    basis set group =>   2
Atom   8O    basis set group =>   3
Atom   9C    basis set group =>   1
Atom  10C    basis set group =>   1
Atom  11C    basis set group =>   1
Atom  12C    basis set group =>   1
Atom  13C    basis set group =>   1
Atom  14C    basis set group =>   1
Atom  15C    basis set group =>   1
Atom  16C    basis set group =>   1
Atom  17C    basis set group =>   1
Atom  18C    basis set group =>   1
Atom  19C    basis set group =>   1
Atom  20C    basis set group =>   1
Atom  21C    basis set group =>   1
Atom  22C    basis set group =>   1
Atom  23H    basis set group =>   4
Atom  24H    basis set group =>   4
Atom  25H    basis set group =>   4
Atom  26H    basis set group =>   4
Atom  27H    basis set group =>   4
Atom  28H    basis set group =>   4
Atom  29H    basis set group =>   4
Atom  30H    basis set group =>   4
Atom  31H    basis set group =>   4
Atom  32H    basis set group =>   4
Atom  33H    basis set group =>   4
Atom  34H    basis set group =>   4
Atom  35H    basis set group =>   4
Atom  36H    basis set group =>   4
Atom  37H    basis set group =>   4
Atom  38H    basis set group =>   4
Atom  39H    basis set group =>   4
Atom  40H    basis set group =>   4
Atom  41H    basis set group =>   4
Atom  42H    basis set group =>   4
Atom  43H    basis set group =>   4
---------------------------------
AUXILIARY/J BASIS SET INFORMATION
---------------------------------
There are 4 groups of distinct atoms

 Group   1 Type C   : 12s5p4d2f1g contracted to 6s4p3d1f1g pattern {711111/2111/211/2/1}
 Group   2 Type P   : 14s5p5d2f1g contracted to 8s4p3d1f1g pattern {71111111/2111/311/2/1}
 Group   3 Type O   : 12s5p4d2f1g contracted to 6s4p3d1f1g pattern {711111/2111/211/2/1}
 Group   4 Type H   : 5s2p1d contracted to 3s1p1d pattern {311/2/1}

Atom   0C    basis set group =>   1
Atom   1C    basis set group =>   1
Atom   2C    basis set group =>   1
Atom   3C    basis set group =>   1
Atom   4C    basis set group =>   1
Atom   5C    basis set group =>   1
Atom   6C    basis set group =>   1
Atom   7P    basis set group =>   2
Atom   8O    basis set group =>   3
Atom   9C    basis set group =>   1
Atom  10C    basis set group =>   1
Atom  11C    basis set group =>   1
Atom  12C    basis set group =>   1
Atom  13C    basis set group =>   1
Atom  14C    basis set group =>   1
Atom  15C    basis set group =>   1
Atom  16C    basis set group =>   1
Atom  17C    basis set group =>   1
Atom  18C    basis set group =>   1
Atom  19C    basis set group =>   1
Atom  20C    basis set group =>   1
Atom  21C    basis set group =>   1
Atom  22C    basis set group =>   1
Atom  23H    basis set group =>   4
Atom  24H    basis set group =>   4
Atom  25H    basis set group =>   4
Atom  26H    basis set group =>   4
Atom  27H    basis set group =>   4
Atom  28H    basis set group =>   4
Atom  29H    basis set group =>   4
Atom  30H    basis set group =>   4
Atom  31H    basis set group =>   4
Atom  32H    basis set group =>   4
Atom  33H    basis set group =>   4
Atom  34H    basis set group =>   4
Atom  35H    basis set group =>   4
Atom  36H    basis set group =>   4
Atom  37H    basis set group =>   4
Atom  38H    basis set group =>   4
Atom  39H    basis set group =>   4
Atom  40H    basis set group =>   4
Atom  41H    basis set group =>   4
Atom  42H    basis set group =>   4
Atom  43H    basis set group =>   4


           ************************************************************
           *        Program running with 6 parallel MPI-processes     *
           *              working on a common directory               *
           ************************************************************
------------------------------------------------------------------------------
                             ORCA STARTUP CALCULATIONS
                           -- RI-GTO INTEGRALS CHOSEN --
------------------------------------------------------------------------------
------------------------------------------------------------------------------
                   ___                                                        
                  /   \      - P O W E R E D   B Y -                         
                 /     \                                                     
                 |  |  |   _    _      __       _____    __    __             
                 |  |  |  | |  | |    /  \     |  _  \  |  |  /  |          
                  \  \/   | |  | |   /    \    | | | |  |  | /  /          
                 / \  \   | |__| |  /  /\  \   | |_| |  |  |/  /          
                |  |  |   |  __  | /  /__\  \  |    /   |      \           
                |  |  |   | |  | | |   __   |  |    \   |  |\   \          
                \     /   | |  | | |  |  |  |  | |\  \  |  | \   \       
                 \___/    |_|  |_| |__|  |__|  |_| \__\ |__|  \__/        
                                                                              
                      - O R C A' S   B I G   F R I E N D -                    
                                      &                                       
                       - I N T E G R A L  F E E D E R -                       
                                                                              
 v1 FN, 2020, v2 2021, v3 2022-2024                                           
------------------------------------------------------------------------------


----------------------
SHARK INTEGRAL PACKAGE
----------------------

Number of atoms                             ...     44
Number of basis functions                   ...    845
Number of shells                            ...    339
Maximum angular momentum                    ...      3
Integral batch strategy                     ... SHARK/LIBINT Hybrid
RI-J (if used) integral strategy            ... SPLIT-RIJ (Revised 2003 algorithm where possible)
Printlevel                                  ...      1
Contraction scheme used                     ... SEGMENTED contraction
Prescreening option                         ... SCHWARTZ
   Thresh                                   ... 1.000e-10
   Tcut                                     ... 1.000e-11
   Tpresel                                  ... 1.000e-11 
Coulomb Range Separation                    ... NOT USED
Exchange Range Separation                   ... NOT USED
Multipole approximations                    ... NOT USED
Finite Nucleus Model                        ... NOT USED
CABS basis                                  ... NOT available
Auxiliary Coulomb fitting basis             ... AVAILABLE
   # of basis functions in Aux-J            ...   1360
   # of shells in Aux-J                     ...    452
   Maximum angular momentum in Aux-J        ...      4
Auxiliary J/K fitting basis                 ... NOT available
Auxiliary Correlation fitting basis         ... NOT available
Auxiliary 'external' fitting basis          ... NOT available

Checking pre-screening integrals            ... done (  0.0 sec) Dimension = 339
Check shell pair data                       ... done (  0.0 sec)
Shell pair information
Shell pair cut-off parameter TPreSel        ...   1.0e-11
Total number of shell pairs                 ...     57630
Shell pairs after pre-screening             ...     39728
Total number of primitive shell pairs       ...    176704
Primitive shell pairs kept                  ...     79784
          la=0 lb=0:  10616 shell pairs
          la=1 lb=0:  11759 shell pairs
          la=1 lb=1:   3293 shell pairs
          la=2 lb=0:   5457 shell pairs
          la=2 lb=1:   3061 shell pairs
          la=2 lb=2:    732 shell pairs
          la=3 lb=0:   2529 shell pairs
          la=3 lb=1:   1456 shell pairs
          la=3 lb=2:    668 shell pairs
          la=3 lb=3:    157 shell pairs

Calculating one electron integrals          ... done (  0.1 sec)
Calculating RI/J V-Matrix + Cholesky decomp.... done (  0.1 sec)
Calculating Nuclear repulsion               ... done (  0.0 sec) ENN=   1980.919686520045 Eh

Diagonalization of the overlap matrix:
Smallest eigenvalue                        ... 7.218e-06
Time for diagonalization                   ...    0.159 sec
Threshold for overlap eigenvalues          ... 1.000e-07
Number of eigenvalues below threshold      ... 0
Time for construction of square roots      ...    0.070 sec
Total time needed                          ...    0.236 sec

-------------------
DFT GRID GENERATION
-------------------

General Integration Accuracy     IntAcc      ... 4.388
Radial Grid Type                 RadialGrid  ... OptM3 with GC (2021)
Angular Grid (max. ang.)         AngularGrid ... 4 (Lebedev-302)
Angular grid pruning method      GridPruning ... 4 (adaptive)
Weight generation scheme         WeightScheme... mBecke (2022)
Basis function cutoff            BFCut       ... 1.0000e-10
Integration weight cutoff        WCut        ... 1.0000e-14
Partially contracted basis set               ... off
Rotationally invariant grid construction     ... off
Angular grids for H and He will be reduced by one unit

Total number of grid points                  ...   204781
Total number of batches                      ...     3220
Average number of points per batch           ...       63
Average number of grid points per atom       ...     4654

--------------------
COSX GRID GENERATION
--------------------

GRIDX 1
-------
General Integration Accuracy     IntAcc      ... 3.816
Radial Grid Type                 RadialGrid  ... OptM3 with GC (2021)
Angular Grid (max. ang.)         AngularGrid ... 1 (Lebedev-50)
Angular grid pruning method      GridPruning ... 4 (adaptive)
Weight generation scheme         WeightScheme... mBecke (2022)
Basis function cutoff            BFCut       ... 1.0000e-10
Integration weight cutoff        WCut        ... 1.0000e-14
Partially contracted basis set               ... on
Rotationally invariant grid construction     ... off
Angular grids for H and He will be reduced by one unit

Total number of grid points                  ...    26961
Total number of batches                      ...      230
Average number of points per batch           ...      117
Average number of grid points per atom       ...      613
UseSFitting                                  ... on

GRIDX 2
-------
General Integration Accuracy     IntAcc      ... 4.020
Radial Grid Type                 RadialGrid  ... OptM3 with GC (2021)
Angular Grid (max. ang.)         AngularGrid ... 2 (Lebedev-110)
Angular grid pruning method      GridPruning ... 4 (adaptive)
Weight generation scheme         WeightScheme... mBecke (2022)
Basis function cutoff            BFCut       ... 1.0000e-10
Integration weight cutoff        WCut        ... 1.0000e-14
Partially contracted basis set               ... on
Rotationally invariant grid construction     ... off
Angular grids for H and He will be reduced by one unit

Total number of grid points                  ...    55651
Total number of batches                      ...      459
Average number of points per batch           ...      121
Average number of grid points per atom       ...     1265
UseSFitting                                  ... on

GRIDX 3
-------
General Integration Accuracy     IntAcc      ... 4.338
Radial Grid Type                 RadialGrid  ... OptM3 with GC (2021)
Angular Grid (max. ang.)         AngularGrid ... 3 (Lebedev-194)
Angular grid pruning method      GridPruning ... 4 (adaptive)
Weight generation scheme         WeightScheme... mBecke (2022)
Basis function cutoff            BFCut       ... 1.0000e-10
Integration weight cutoff        WCut        ... 1.0000e-14
Partially contracted basis set               ... on
Rotationally invariant grid construction     ... off
Angular grids for H and He will be reduced by one unit

Total number of grid points                  ...   121839
Total number of batches                      ...      971
Average number of points per batch           ...      125
Average number of grid points per atom       ...     2769
UseSFitting                                  ... on
Initializing property integral containers    ... done (  0.0 sec)

SHARK setup successfully completed in   5.8 seconds

Maximum memory used throughout the entire STARTUP-calculation: 87.6 MB


           ************************************************************
           *        Program running with 6 parallel MPI-processes     *
           *              working on a common directory               *
           ************************************************************
-------------------------------------------------------------------------------
                                 ORCA GUESS
                   Start orbitals & Density for SCF / CASSCF
-------------------------------------------------------------------------------

------------
SCF SETTINGS
------------
Hamiltonian:
 Density Functional     Method          .... DFT(GTOs)
 Exchange Functional    Exchange        .... M062X
 Correlation Functional Correlation     .... M062X
 Gradients option       PostSCFGGA      .... off
 Hybrid DFT is turned on
   Fraction HF Exchange ScalHFX         ....  0.540000
   Scaling of DF-GGA-X  ScalDFX         ....  0.460000
   Scaling of DF-GGA-C  ScalDFC         ....  1.000000
   Scaling of DF-LDA-C  ScalLDAC        ....  1.000000
   Perturbative correction              ....  0.000000
 RI-approximation to the Coulomb term is turned on
   Number of AuxJ basis functions       .... 1360
   RIJ-COSX (HFX calculated with COS-X)).... on


General Settings:
 Integral files         IntName         .... data/single_point_PO_M06-2x/82101/82101
 Hartree-Fock type      HFTyp           .... RHF
 Total Charge           Charge          ....    0
 Multiplicity           Mult            ....    1
 Number of Electrons    NEL             ....  170
 Basis Dimension        Dim             ....  845
 Nuclear Repulsion      ENuc            ....   1980.9196865200 Eh

Convergence Acceleration:
 AO-DIIS                CNVDIIS         .... on
   Start iteration      DIISMaxIt       ....    12
   Startup error        DIISStart       ....  0.200000
   # of expansion vecs  DIISMaxEq       ....     5
   Bias factor          DIISBfac        ....   1.050
   Max. coefficient     DIISMaxC        ....  10.000
 MO-DIIS                CNVKDIIS        .... off
 Trust-Rad. Augm. Hess. CNVTRAH         .... auto
   Auto Start mean grad. ratio tolernc. ....  1.125000
   Auto Start start iteration           ....    50
   Auto Start num. interpolation iter.  ....    10
   Max. Number of Micro iterations      ....    24
   Max. Number of Macro iterations      .... Maxiter - #DIIS iter
   Number of Davidson start vectors     ....     2
   Converg. threshold    (grad. norm)   ....   5.000e-05
   Grad. Scal. Fac. for Micro threshold ....   0.100
   Minimum threshold for Micro iter.    ....   1.000e-02
   NR start threshold (gradient norm)   ....   1.000e-04
   Initial trust radius                 ....   0.400
   Minimum AH scaling param. (alpha)    ....   1.000
   Maximum AH scaling param. (alpha)    .... 1000.000
   Quad. conv. algorithm                .... NR
   White noise on init. David. guess    .... on
   Maximum white noise                  ....   0.010
   Pseudo random numbers                .... off
   Inactive MOs                         .... canonical
   Orbital update algorithm             .... Taylor
   Preconditioner                       .... Diag
   Full preconditioner red. dimension   ....   250
 SOSCF                  CNVSOSCF        .... on
   Start iteration      SOSCFMaxIt      ....   150
   Startup grad/error   SOSCFStart      ....  0.003300
   Hessian update       SOSCFHessUp     .... L-BFGS
 Level Shifting         CNVShift        .... on
   Level shift para.    LevelShift      ....    0.2500
   Turn off err/grad.   ShiftErr        ....    0.0010
 Zerner damping         CNVZerner       .... off
 Static damping         CNVDamp         .... on
   Fraction old density DampFac         ....    0.7000
   Max. Damping (<1)    DampMax         ....    0.9800
   Min. Damping (>=0)   DampMin         ....    0.0000
   Turn off err/grad.   DampErr         ....    0.1000

SCF Procedure:
 Maximum # iterations   MaxIter         ....   125
 SCF integral mode      SCFMode         .... Direct
   Integral package                     .... SHARK and LIBINT hybrid scheme
 Reset frequency        DirectResetFreq ....    20
 Integral Threshold     Thresh          ....  1.000e-10 Eh
 Primitive CutOff       TCut            ....  1.000e-11 Eh

Convergence Tolerance:
 Convergence Check Mode ConvCheckMode   .... Total+1el-Energy
 Convergence forced     ConvForced      .... 0
 Energy Change          TolE            ....  1.000e-06 Eh
 1-El. energy change                    ....  1.000e-03 Eh
 Orbital Gradient       TolG            ....  5.000e-05
 Orbital Rotation angle TolX            ....  5.000e-05
 DIIS Error             TolErr          ....  1.000e-05

------------------------------
INITIAL GUESS: MODEL POTENTIAL
------------------------------
Loading Hartree-Fock densities                     ... done
Calculating cut-offs                               ... done
Initializing the effective Hamiltonian             ... done
Setting up the integral package (SHARK)            ... done
Starting the Coulomb interaction                   ... done (   0.8 sec)
Making the grid                                    ... done (   0.4 sec)
Mapping shells                                     ... done
Starting the XC term evaluation                    ... done (   0.7 sec)
  promolecular density results
     # of electrons  =    169.992613350
     EX              =   -144.182091968
     EC              =     -5.724683405
     EX+EC           =   -149.906775373
Transforming the Hamiltonian                       ... done (   0.1 sec)
Diagonalizing the Hamiltonian                      ... done (   0.2 sec)
Back transforming the eigenvectors                 ... done (   0.1 sec)
Now organizing SCF variables                       ... done
                      ------------------
                      INITIAL GUESS DONE (   2.3 sec)
                      ------------------
             **** ENERGY FILE WAS UPDATED (data/single_point_PO_M06-2x/82101/82101.en.tmp) ****
Finished Guess after   2.7 sec
Maximum memory used throughout the entire GUESS-calculation: 67.9 MB


           ************************************************************
           *        Program running with 6 parallel MPI-processes     *
           *              working on a common directory               *
           ************************************************************

-------------------------------------------------------------------------------------------
                                      ORCA LEAN-SCF
                              memory conserving SCF solver
-------------------------------------------------------------------------------------------

----------------------------------------D-I-I-S--------------------------------------------
Iteration    Energy (Eh)           Delta-E    RMSDP     MaxDP     DIISErr   Damp  Time(sec)
-------------------------------------------------------------------------------------------
               ***  Starting incremental Fock matrix formation  ***
    1    -1228.8120982549824021     0.00e+00  1.44e-03  1.85e-01  3.66e-01  0.700  23.5
    2    -1229.0829260065650033    -2.71e-01  1.21e-03  1.87e-01  1.60e-01  0.700  13.1
                               ***Turning on AO-DIIS***
    3    -1229.2097994917851338    -1.27e-01  6.63e-04  5.70e-02  4.62e-02  0.700  12.5
    4    -1229.2850486474965237    -7.52e-02  1.53e-03  7.47e-02  3.88e-02  0.000  12.0
    5    -1229.4468426847568026    -1.62e-01  1.53e-04  1.48e-02  8.77e-03  0.000  12.8
    6    -1229.4472526050828947    -4.10e-04  5.71e-05  7.15e-03  3.48e-03  0.000  10.4
                              *** Initializing SOSCF ***
---------------------------------------S-O-S-C-F--------------------------------------
Iteration    Energy (Eh)           Delta-E    RMSDP     MaxDP     MaxGrad    Time(sec)
--------------------------------------------------------------------------------------
    7    -1229.4472859463974146    -3.33e-05  2.08e-05  7.76e-04  1.38e-03     9.7
               *** Restarting incremental Fock matrix formation ***
    8    -1229.4473022164468148    -1.63e-05  1.62e-04  7.27e-03  1.01e-04    21.8
    9    -1229.4473036429274089    -1.43e-06  3.96e-05  1.76e-03  2.83e-05    17.3
   10    -1229.4473037555924293    -1.13e-07  3.09e-05  1.42e-03  3.26e-05    14.0
                 **** Energy Check signals convergence ****

               *****************************************************
               *                     SUCCESS                       *
               *           SCF CONVERGED AFTER  10 CYCLES          *
               *****************************************************

Recomputing exchange energy using gridx3       ... done (   32.713 sec)
Old exchange energy                            :    -79.437762341 Eh
New exchange energy                            :    -79.437751477 Eh
Exchange energy change after final integration :      0.000010863 Eh
Total energy after final integration           :  -1229.447292892 Eh
             **** ENERGY FILE WAS UPDATED (data/single_point_PO_M06-2x/82101/82101.en.tmp) ****

----------------
TOTAL SCF ENERGY
----------------

Total Energy       :      -1229.44729289243492 Eh          -33454.96166 eV

Components:
Nuclear Repulsion  :       1980.91968652004539 Eh           53903.56507 eV
Electronic Energy  :      -3210.36699027563782 Eh          -87358.52703 eV
One Electron Energy:      -5611.34704688990587 Eh         -152692.51588 eV
Two Electron Energy:       2400.98005661426805 Eh           65333.98886 eV

Virial components:
Potential Energy   :      -2452.41740709526675 Eh          -66733.67032 eV
Kinetic Energy     :       1222.97011420283184 Eh           33278.70866 eV
Virial Ratio       :          2.00529626898841

DFT components:
N(Alpha)           :       84.999948419725 electrons
N(Beta)            :       84.999948419725 electrons
N(Total)           :      169.999896839449 electrons
E(XC)              :      -73.797326229085 Eh       

---------------
SCF CONVERGENCE
---------------

  Last Energy change         ...    1.1267e-07  Tolerance :   1.0000e-06
  Last MAX-Density change    ...    1.4181e-03  Tolerance :   1.0000e-05
  Last RMS-Density change    ...    3.0941e-05  Tolerance :   1.0000e-06
  Last DIIS Error            ...    1.3804e-03  Tolerance :   1.0000e-05
  Last Orbital Gradient      ...    3.2597e-05  Tolerance :   5.0000e-05
  Last Orbital Rotation      ...    4.9266e-05  Tolerance :   5.0000e-05


----------------
ORBITAL ENERGIES
----------------

  NO   OCC          E(Eh)            E(eV) 
   0   2.0000     -78.097334     -2125.1365 
   1   2.0000     -19.568339      -532.4816 
   2   2.0000     -10.568006      -287.5701 
   3   2.0000     -10.564983      -287.4878 
   4   2.0000     -10.564646      -287.4786 
   5   2.0000     -10.560588      -287.3682 
   6   2.0000     -10.560434      -287.3640 
   7   2.0000     -10.557158      -287.2749 
   8   2.0000     -10.556149      -287.2474 
   9   2.0000     -10.555978      -287.2428 
  10   2.0000     -10.554565      -287.2043 
  11   2.0000     -10.552896      -287.1589 
  12   2.0000     -10.552733      -287.1545 
  13   2.0000     -10.552391      -287.1451 
  14   2.0000     -10.552027      -287.1353 
  15   2.0000     -10.551664      -287.1254 
  16   2.0000     -10.551302      -287.1155 
  17   2.0000     -10.549805      -287.0748 
  18   2.0000     -10.549552      -287.0679 
  19   2.0000     -10.548933      -287.0511 
  20   2.0000     -10.548622      -287.0426 
  21   2.0000     -10.543789      -286.9111 
  22   2.0000     -10.543417      -286.9010 
  23   2.0000      -6.903860      -187.8636 
  24   2.0000      -5.020753      -136.6216 
  25   2.0000      -5.020695      -136.6201 
  26   2.0000      -5.019028      -136.5747 
  27   2.0000      -1.064620       -28.9698 
  28   2.0000      -0.967420       -26.3248 
  29   2.0000      -0.961296       -26.1582 
  30   2.0000      -0.960797       -26.1446 
  31   2.0000      -0.894144       -24.3309 
  32   2.0000      -0.874596       -23.7990 
  33   2.0000      -0.873545       -23.7704 
  34   2.0000      -0.846187       -23.0259 
  35   2.0000      -0.840614       -22.8743 
  36   2.0000      -0.840216       -22.8634 
  37   2.0000      -0.810994       -22.0683 
  38   2.0000      -0.782819       -21.3016 
  39   2.0000      -0.775552       -21.1038 
  40   2.0000      -0.694723       -18.9044 
  41   2.0000      -0.689564       -18.7640 
  42   2.0000      -0.688958       -18.7475 
  43   2.0000      -0.682121       -18.5614 
  44   2.0000      -0.672417       -18.2974 
  45   2.0000      -0.662776       -18.0351 
  46   2.0000      -0.615236       -16.7414 
  47   2.0000      -0.590269       -16.0620 
  48   2.0000      -0.583382       -15.8746 
  49   2.0000      -0.581576       -15.8255 
  50   2.0000      -0.544628       -14.8201 
  51   2.0000      -0.542315       -14.7572 
  52   2.0000      -0.535456       -14.5705 
  53   2.0000      -0.534342       -14.5402 
  54   2.0000      -0.532319       -14.4851 
  55   2.0000      -0.526289       -14.3210 
  56   2.0000      -0.503916       -13.7123 
  57   2.0000      -0.500990       -13.6326 
  58   2.0000      -0.490789       -13.3551 
  59   2.0000      -0.490582       -13.3494 
  60   2.0000      -0.485578       -13.2132 
  61   2.0000      -0.484616       -13.1871 
  62   2.0000      -0.482403       -13.1268 
  63   2.0000      -0.471037       -12.8176 
  64   2.0000      -0.466404       -12.6915 
  65   2.0000      -0.460082       -12.5195 
  66   2.0000      -0.444910       -12.1066 
  67   2.0000      -0.437581       -11.9072 
  68   2.0000      -0.431297       -11.7362 
  69   2.0000      -0.421607       -11.4725 
  70   2.0000      -0.421296       -11.4640 
  71   2.0000      -0.410404       -11.1676 
  72   2.0000      -0.408578       -11.1180 
  73   2.0000      -0.407398       -11.0859 
  74   2.0000      -0.403476       -10.9791 
  75   2.0000      -0.400191       -10.8898 
  76   2.0000      -0.399775       -10.8784 
  77   2.0000      -0.346389        -9.4257 
  78   2.0000      -0.333857        -9.0847 
  79   2.0000      -0.316346        -8.6082 
  80   2.0000      -0.310356        -8.4452 
  81   2.0000      -0.308880        -8.4051 
  82   2.0000      -0.307935        -8.3793 
  83   2.0000      -0.293713        -7.9923 
  84   2.0000      -0.293163        -7.9774 
  85   0.0000       0.002629         0.0715 
  86   0.0000       0.004047         0.1101 
  87   0.0000       0.005501         0.1497 
  88   0.0000       0.013839         0.3766 
  89   0.0000       0.017584         0.4785 
  90   0.0000       0.018286         0.4976 
  91   0.0000       0.056605         1.5403 
  92   0.0000       0.071797         1.9537 
  93   0.0000       0.073414         1.9977 
  94   0.0000       0.075188         2.0460 
  95   0.0000       0.088001         2.3946 
*Only the first 10 virtual orbitals were printed.

                    ********************************
                    * MULLIKEN POPULATION ANALYSIS *
                    ********************************

-----------------------
MULLIKEN ATOMIC CHARGES
-----------------------
   0 C :   -0.155942
   1 C :   -0.125002
   2 C :   -0.278637
   3 C :    0.119598
   4 C :   -0.202021
   5 C :   -0.141602
   6 C :   -0.461749
   7 P :    0.679893
   8 O :   -0.618115
   9 C :   -0.585311
  10 C :    0.177377
  11 C :   -0.251184
  12 C :   -0.144874
  13 C :   -0.155149
  14 C :   -0.147608
  15 C :   -0.250758
  16 C :   -0.464896
  17 C :    0.124909
  18 C :   -0.281488
  19 C :   -0.124050
  20 C :   -0.156774
  21 C :   -0.140368
  22 C :   -0.207959
  23 H :    0.145412
  24 H :    0.144547
  25 H :    0.170194
  26 H :    0.213146
  27 H :    0.148130
  28 H :    0.202186
  29 H :    0.192426
  30 H :    0.225847
  31 H :    0.224388
  32 H :    0.231999
  33 H :    0.146634
  34 H :    0.146086
  35 H :    0.145599
  36 H :    0.236873
  37 H :    0.194021
  38 H :    0.201377
  39 H :    0.171588
  40 H :    0.144520
  41 H :    0.145175
  42 H :    0.148764
  43 H :    0.212795
Sum of atomic charges:   -0.0000000

--------------------------------
MULLIKEN REDUCED ORBITAL CHARGES
--------------------------------
  0 C s       :     3.229389  s :     3.229389
      pz      :     0.968597  p :     2.858812
      px      :     0.994150
      py      :     0.896065
      dz2     :     0.006429  d :     0.061437
      dxz     :     0.006586
      dyz     :     0.017668
      dx2y2   :     0.014143
      dxy     :     0.016612
      f0      :     0.000976  f :     0.006304
      f+1     :     0.000799
      f-1     :     0.000727
      f+2     :     0.000848
      f-2     :     0.000622
      f+3     :     0.001219
      f-3     :     0.001113

  1 C s       :     3.210632  s :     3.210632
      pz      :     0.959954  p :     2.845720
      px      :     0.890596
      py      :     0.995169
      dz2     :     0.010893  d :     0.062320
      dxz     :     0.015278
      dyz     :     0.006129
      dx2y2   :     0.015609
      dxy     :     0.014411
      f0      :     0.000719  f :     0.006330
      f+1     :     0.001151
      f-1     :     0.000833
      f+2     :     0.000570
      f-2     :     0.000820
      f+3     :     0.001201
      f-3     :     0.001038

  2 C s       :     3.254717  s :     3.254717
      pz      :     1.026800  p :     2.953356
      px      :     1.003942
      py      :     0.922614
      dz2     :     0.005623  d :     0.064023
      dxz     :     0.012677
      dyz     :     0.014905
      dx2y2   :     0.015407
      dxy     :     0.015411
      f0      :     0.001072  f :     0.006541
      f+1     :     0.000931
      f-1     :     0.000538
      f+2     :     0.000915
      f-2     :     0.000635
      f+3     :     0.001400
      f-3     :     0.001051

  3 C s       :     3.192174  s :     3.192174
      pz      :     0.920576  p :     2.590141
      px      :     0.811962
      py      :     0.857603
      dz2     :     0.010541  d :     0.089674
      dxz     :     0.015418
      dyz     :     0.022113
      dx2y2   :     0.017189
      dxy     :     0.024414
      f0      :     0.001102  f :     0.008413
      f+1     :     0.001122
      f-1     :     0.000872
      f+2     :     0.001111
      f-2     :     0.000835
      f+3     :     0.001901
      f-3     :     0.001472

  4 C s       :     3.239101  s :     3.239101
      pz      :     0.941684  p :     2.898260
      px      :     0.890831
      py      :     1.065744
      dz2     :     0.009673  d :     0.058310
      dxz     :     0.014255
      dyz     :     0.006153
      dx2y2   :     0.012256
      dxy     :     0.015974
      f0      :     0.000697  f :     0.006349
      f+1     :     0.001167
      f-1     :     0.000750
      f+2     :     0.000616
      f-2     :     0.000817
      f+3     :     0.001327
      f-3     :     0.000975

  5 C s       :     3.222611  s :     3.222611
      pz      :     0.971882  p :     2.850706
      px      :     0.951065
      py      :     0.927759
      dz2     :     0.005156  d :     0.061994
      dxz     :     0.010722
      dyz     :     0.015118
      dx2y2   :     0.016203
      dxy     :     0.014794
      f0      :     0.001021  f :     0.006291
      f+1     :     0.000881
      f-1     :     0.000528
      f+2     :     0.000920
      f-2     :     0.000574
      f+3     :     0.001372
      f-3     :     0.000996

  6 C s       :     3.309954  s :     3.309954
      pz      :     1.036314  p :     3.084118
      px      :     0.970147
      py      :     1.077657
      dz2     :     0.011752  d :     0.064241
      dxz     :     0.013005
      dyz     :     0.012228
      dx2y2   :     0.010577
      dxy     :     0.016679
      f0      :     0.000280  f :     0.003436
      f+1     :     0.000474
      f-1     :     0.000514
      f+2     :     0.000437
      f-2     :     0.000414
      f+3     :     0.000733
      f-3     :     0.000584

  7 P s       :     5.325600  s :     5.325600
      pz      :     2.815940  p :     8.253366
      px      :     2.775514
      py      :     2.661912
      dz2     :     0.081021  d :     0.674885
      dxz     :     0.098762
      dyz     :     0.196859
      dx2y2   :     0.187914
      dxy     :     0.110330
      f0      :     0.009140  f :     0.066257
      f+1     :     0.006746
      f-1     :     0.006382
      f+2     :     0.006662
      f-2     :     0.012433
      f+3     :     0.006405
      f-3     :     0.018489

  8 O s       :     3.889020  s :     3.889020
      pz      :     1.672299  p :     4.703666
      px      :     1.586851
      py      :     1.444515
      dz2     :     0.002499  d :     0.024197
      dxz     :     0.002014
      dyz     :     0.005202
      dx2y2   :     0.007197
      dxy     :     0.007285
      f0      :     0.000134  f :     0.001232
      f+1     :     0.000073
      f-1     :     0.000160
      f+2     :     0.000054
      f-2     :     0.000169
      f+3     :     0.000323
      f-3     :     0.000320

  9 C s       :     3.373178  s :     3.373178
      pz      :     1.014382  p :     3.143948
      px      :     1.134289
      py      :     0.995278
      dz2     :     0.008724  d :     0.064744
      dxz     :     0.009707
      dyz     :     0.020292
      dx2y2   :     0.016092
      dxy     :     0.009929
      f0      :     0.000524  f :     0.003441
      f+1     :     0.000221
      f-1     :     0.000491
      f+2     :     0.000267
      f-2     :     0.000550
      f+3     :     0.000784
      f-3     :     0.000603

 10 C s       :     3.231333  s :     3.231333
      pz      :     0.953366  p :     2.492166
      px      :     0.790702
      py      :     0.748098
      dz2     :     0.005518  d :     0.090811
      dxz     :     0.019866
      dyz     :     0.022841
      dx2y2   :     0.024226
      dxy     :     0.018360
      f0      :     0.001339  f :     0.008313
      f+1     :     0.000801
      f-1     :     0.000894
      f+2     :     0.000906
      f-2     :     0.000755
      f+3     :     0.000985
      f-3     :     0.002632

 11 C s       :     3.207759  s :     3.207759
      pz      :     0.969201  p :     2.976395
      px      :     1.108269
      py      :     0.898924
      dz2     :     0.005588  d :     0.060600
      dxz     :     0.005075
      dyz     :     0.020083
      dx2y2   :     0.015717
      dxy     :     0.014136
      f0      :     0.001145  f :     0.006431
      f+1     :     0.000741
      f-1     :     0.000805
      f+2     :     0.000287
      f-2     :     0.000848
      f+3     :     0.000945
      f-3     :     0.001659

 12 C s       :     3.226579  s :     3.226579
      pz      :     0.968732  p :     2.849130
      px      :     0.909348
      py      :     0.971050
      dz2     :     0.004244  d :     0.062839
      dxz     :     0.017573
      dyz     :     0.009461
      dx2y2   :     0.015930
      dxy     :     0.015632
      f0      :     0.001210  f :     0.006326
      f+1     :     0.000703
      f-1     :     0.000680
      f+2     :     0.000747
      f-2     :     0.000441
      f+3     :     0.000884
      f-3     :     0.001661

 13 C s       :     3.231548  s :     3.231548
      pz      :     0.968765  p :     2.855952
      px      :     0.912849
      py      :     0.974339
      dz2     :     0.005596  d :     0.061342
      dxz     :     0.016392
      dyz     :     0.008398
      dx2y2   :     0.014800
      dxy     :     0.016156
      f0      :     0.001117  f :     0.006306
      f+1     :     0.000715
      f-1     :     0.000821
      f+2     :     0.000763
      f-2     :     0.000364
      f+3     :     0.000905
      f-3     :     0.001621

 14 C s       :     3.230256  s :     3.230256
      pz      :     0.963474  p :     2.848154
      px      :     1.000298
      py      :     0.884381
      dz2     :     0.005392  d :     0.062867
      dxz     :     0.004958
      dyz     :     0.021347
      dx2y2   :     0.016302
      dxy     :     0.014869
      f0      :     0.001125  f :     0.006330
      f+1     :     0.000733
      f-1     :     0.000768
      f+2     :     0.000267
      f-2     :     0.000920
      f+3     :     0.000897
      f-3     :     0.001620

 15 C s       :     3.199758  s :     3.199758
      pz      :     0.968095  p :     2.984011
      px      :     0.918614
      py      :     1.097302
      dz2     :     0.004501  d :     0.060565
      dxz     :     0.016555
      dyz     :     0.009910
      dx2y2   :     0.016988
      dxy     :     0.012612
      f0      :     0.001205  f :     0.006424
      f+1     :     0.000708
      f-1     :     0.000700
      f+2     :     0.000717
      f-2     :     0.000484
      f+3     :     0.000922
      f-3     :     0.001687

 16 C s       :     3.310025  s :     3.310025
      pz      :     1.022704  p :     3.087293
      px      :     0.998241
      py      :     1.066348
      dz2     :     0.018073  d :     0.064142
      dxz     :     0.010575
      dyz     :     0.009815
      dx2y2   :     0.014222
      dxy     :     0.011457
      f0      :     0.000307  f :     0.003436
      f+1     :     0.000420
      f-1     :     0.000624
      f+2     :     0.000564
      f-2     :     0.000507
      f+3     :     0.000607
      f-3     :     0.000408

 17 C s       :     3.188069  s :     3.188069
      pz      :     0.849444  p :     2.589211
      px      :     0.881144
      py      :     0.858623
      dz2     :     0.017835  d :     0.089406
      dxz     :     0.019548
      dyz     :     0.014574
      dx2y2   :     0.024069
      dxy     :     0.013380
      f0      :     0.000882  f :     0.008405
      f+1     :     0.000931
      f-1     :     0.001223
      f+2     :     0.001429
      f-2     :     0.001151
      f+3     :     0.001353
      f-3     :     0.001436

 18 C s       :     3.254519  s :     3.254519
      pz      :     1.028220  p :     2.956358
      px      :     0.909083
      py      :     1.019055
      dz2     :     0.012500  d :     0.064068
      dxz     :     0.013599
      dyz     :     0.008789
      dx2y2   :     0.014972
      dxy     :     0.014207
      f0      :     0.000825  f :     0.006542
      f+1     :     0.000951
      f-1     :     0.000700
      f+2     :     0.001277
      f-2     :     0.000832
      f+3     :     0.001156
      f-3     :     0.000802

 19 C s       :     3.211320  s :     3.211320
      pz      :     0.951441  p :     2.844240
      px      :     0.975598
      py      :     0.917200
      dz2     :     0.017036  d :     0.062157
      dxz     :     0.008468
      dyz     :     0.008906
      dx2y2   :     0.013745
      dxy     :     0.014004
      f0      :     0.000532  f :     0.006332
      f+1     :     0.000839
      f-1     :     0.001277
      f+2     :     0.001062
      f-2     :     0.000865
      f+3     :     0.000730
      f-3     :     0.001027

 20 C s       :     3.230407  s :     3.230407
      pz      :     0.982451  p :     2.858890
      px      :     0.938023
      py      :     0.938417
      dz2     :     0.006181  d :     0.061177
      dxz     :     0.014572
      dyz     :     0.010697
      dx2y2   :     0.017341
      dxy     :     0.012385
      f0      :     0.000684  f :     0.006300
      f+1     :     0.000570
      f-1     :     0.001008
      f+2     :     0.000905
      f-2     :     0.001036
      f+3     :     0.001017
      f-3     :     0.001079

 21 C s       :     3.221145  s :     3.221145
      pz      :     0.966255  p :     2.851003
      px      :     0.903081
      py      :     0.981667
      dz2     :     0.011500  d :     0.061926
      dxz     :     0.013037
      dyz     :     0.008378
      dx2y2   :     0.012590
      dxy     :     0.016420
      f0      :     0.000787  f :     0.006293
      f+1     :     0.000905
      f-1     :     0.000677
      f+2     :     0.001172
      f-2     :     0.000830
      f+3     :     0.001139
      f-3     :     0.000782

 22 C s       :     3.244115  s :     3.244115
      pz      :     0.946373  p :     2.899256
      px      :     1.056025
      py      :     0.896858
      dz2     :     0.015810  d :     0.058230
      dxz     :     0.007111
      dyz     :     0.008491
      dx2y2   :     0.014918
      dxy     :     0.011901
      f0      :     0.000546  f :     0.006358
      f+1     :     0.000788
      f-1     :     0.001278
      f+2     :     0.001109
      f-2     :     0.000893
      f+3     :     0.000808
      f-3     :     0.000936

 23 H s       :     0.834945  s :     0.834945
      pz      :     0.004570  p :     0.019644
      px      :     0.011249
      py      :     0.003824

 24 H s       :     0.835798  s :     0.835798
      pz      :     0.003717  p :     0.019654
      px      :     0.003264
      py      :     0.012673

 25 H s       :     0.810417  s :     0.810417
      pz      :     0.004802  p :     0.019389
      px      :     0.007702
      py      :     0.006885

 26 H s       :     0.765369  s :     0.765369
      pz      :     0.003467  p :     0.021485
      px      :     0.003882
      py      :     0.014136

 27 H s       :     0.832193  s :     0.832193
      pz      :     0.004785  p :     0.019677
      px      :     0.007757
      py      :     0.007135

 28 H s       :     0.777908  s :     0.777908
      pz      :     0.004014  p :     0.019906
      px      :     0.007136
      py      :     0.008756

 29 H s       :     0.787758  s :     0.787758
      pz      :     0.010489  p :     0.019816
      px      :     0.003534
      py      :     0.005793

 30 H s       :     0.754082  s :     0.754082
      pz      :     0.007115  p :     0.020071
      px      :     0.005012
      py      :     0.007944

 31 H s       :     0.755547  s :     0.755547
      pz      :     0.005118  p :     0.020064
      px      :     0.011501
      py      :     0.003445

 32 H s       :     0.747391  s :     0.747391
      pz      :     0.003866  p :     0.020610
      px      :     0.014074
      py      :     0.002670

 33 H s       :     0.833736  s :     0.833736
      pz      :     0.004041  p :     0.019630
      px      :     0.005287
      py      :     0.010302

 34 H s       :     0.834239  s :     0.834239
      pz      :     0.003898  p :     0.019675
      px      :     0.005330
      py      :     0.010447

 35 H s       :     0.834769  s :     0.834769
      pz      :     0.003907  p :     0.019632
      px      :     0.013019
      py      :     0.002706

 36 H s       :     0.742502  s :     0.742502
      pz      :     0.004032  p :     0.020625
      px      :     0.005419
      py      :     0.011174

 37 H s       :     0.786191  s :     0.786191
      pz      :     0.010290  p :     0.019788
      px      :     0.004282
      py      :     0.005216

 38 H s       :     0.778732  s :     0.778732
      pz      :     0.003992  p :     0.019892
      px      :     0.005300
      py      :     0.010600

 39 H s       :     0.809053  s :     0.809053
      pz      :     0.005172  p :     0.019359
      px      :     0.003886
      py      :     0.010301

 40 H s       :     0.835832  s :     0.835832
      pz      :     0.003719  p :     0.019647
      px      :     0.011939
      py      :     0.003990

 41 H s       :     0.835189  s :     0.835189
      pz      :     0.007046  p :     0.019636
      px      :     0.006559
      py      :     0.006032

 42 H s       :     0.831566  s :     0.831566
      pz      :     0.005125  p :     0.019669
      px      :     0.004015
      py      :     0.010529

 43 H s       :     0.765780  s :     0.765780
      pz      :     0.003559  p :     0.021425
      px      :     0.014209
      py      :     0.003657



                     *******************************
                     * LOEWDIN POPULATION ANALYSIS *
                     *******************************

----------------------
LOEWDIN ATOMIC CHARGES
----------------------
   0 C :   -0.146371
   1 C :   -0.147997
   2 C :   -0.131178
   3 C :   -0.177748
   4 C :   -0.112575
   5 C :   -0.139578
   6 C :   -0.316816
   7 P :    0.606865
   8 O :   -0.329930
   9 C :   -0.310114
  10 C :   -0.173360
  11 C :   -0.117340
  12 C :   -0.144067
  13 C :   -0.146265
  14 C :   -0.143921
  15 C :   -0.117867
  16 C :   -0.316865
  17 C :   -0.177942
  18 C :   -0.131774
  19 C :   -0.147701
  20 C :   -0.146286
  21 C :   -0.139493
  22 C :   -0.112762
  23 H :    0.146744
  24 H :    0.147226
  25 H :    0.150210
  26 H :    0.163905
  27 H :    0.149068
  28 H :    0.152836
  29 H :    0.159084
  30 H :    0.160864
  31 H :    0.160831
  32 H :    0.158938
  33 H :    0.148207
  34 H :    0.147069
  35 H :    0.148128
  36 H :    0.158773
  37 H :    0.159423
  38 H :    0.152497
  39 H :    0.150111
  40 H :    0.147284
  41 H :    0.146813
  42 H :    0.149145
  43 H :    0.163931

-------------------------------
LOEWDIN REDUCED ORBITAL CHARGES
-------------------------------
  0 C s       :     2.778190  s :     2.778190
      pz      :     0.907623  p :     2.953052
      px      :     0.986663
      py      :     1.058765
      dz2     :     0.029748  d :     0.374502
      dxz     :     0.028617
      dyz     :     0.075835
      dx2y2   :     0.124457
      dxy     :     0.115846
      f0      :     0.003573  f :     0.040628
      f+1     :     0.002838
      f-1     :     0.004269
      f+2     :     0.005370
      f-2     :     0.004929
      f+3     :     0.010607
      f-3     :     0.009042

  1 C s       :     2.777665  s :     2.777665
      pz      :     0.914374  p :     2.952741
      px      :     1.044171
      py      :     0.994197
      dz2     :     0.042771  d :     0.376953
      dxz     :     0.072883
      dyz     :     0.024229
      dx2y2   :     0.140271
      dxy     :     0.096799
      f0      :     0.003023  f :     0.040637
      f+1     :     0.003976
      f-1     :     0.003983
      f+2     :     0.004637
      f-2     :     0.006260
      f+3     :     0.010455
      f-3     :     0.008303

  2 C s       :     2.772697  s :     2.772697
      pz      :     0.913485  p :     2.942705
      px      :     1.014057
      py      :     1.015164
      dz2     :     0.026491  d :     0.375763
      dxz     :     0.046537
      dyz     :     0.062031
      dx2y2   :     0.095878
      dxy     :     0.144826
      f0      :     0.003448  f :     0.040013
      f+1     :     0.003665
      f-1     :     0.003351
      f+2     :     0.007100
      f-2     :     0.002862
      f+3     :     0.011049
      f-3     :     0.008538

  3 C s       :     2.721876  s :     2.721876
      pz      :     0.873279  p :     2.885115
      px      :     0.967693
      py      :     1.044144
      dz2     :     0.049428  d :     0.516188
      dxz     :     0.068927
      dyz     :     0.086723
      dx2y2   :     0.158825
      dxy     :     0.152285
      f0      :     0.003992  f :     0.054569
      f+1     :     0.004746
      f-1     :     0.004735
      f+2     :     0.007726
      f-2     :     0.006456
      f+3     :     0.015060
      f-3     :     0.011854

  4 C s       :     2.773322  s :     2.773322
      pz      :     0.898915  p :     2.933675
      px      :     1.028921
      py      :     1.005838
      dz2     :     0.039960  d :     0.365811
      dxz     :     0.069053
      dyz     :     0.024772
      dx2y2   :     0.132662
      dxy     :     0.099363
      f0      :     0.002974  f :     0.039767
      f+1     :     0.003999
      f-1     :     0.003731
      f+2     :     0.004460
      f-2     :     0.006162
      f+3     :     0.010482
      f-3     :     0.007958

  5 C s       :     2.778049  s :     2.778049
      pz      :     0.898528  p :     2.944398
      px      :     1.011265
      py      :     1.034605
      dz2     :     0.026344  d :     0.376607
      dxz     :     0.044634
      dyz     :     0.062737
      dx2y2   :     0.095838
      dxy     :     0.147054
      f0      :     0.003562  f :     0.040523
      f+1     :     0.003584
      f-1     :     0.003389
      f+2     :     0.007188
      f-2     :     0.002865
      f+3     :     0.011436
      f-3     :     0.008499

  6 C s       :     2.824561  s :     2.824561
      pz      :     1.068216  p :     3.161645
      px      :     1.031801
      py      :     1.061628
      dz2     :     0.052819  d :     0.304520
      dxz     :     0.053573
      dyz     :     0.061330
      dx2y2   :     0.047866
      dxy     :     0.088933
      f0      :     0.002362  f :     0.026090
      f+1     :     0.004134
      f-1     :     0.003272
      f+2     :     0.004177
      f-2     :     0.002632
      f+3     :     0.005876
      f-3     :     0.003637

  7 P s       :     4.677306  s :     4.677306
      pz      :     2.798835  p :     8.308138
      px      :     2.765698
      py      :     2.743604
      dz2     :     0.168690  d :     1.184695
      dxz     :     0.179147
      dyz     :     0.315813
      dx2y2   :     0.297460
      dxy     :     0.223586
      f0      :     0.029785  f :     0.222996
      f+1     :     0.023818
      f-1     :     0.025315
      f+2     :     0.022847
      f-2     :     0.037148
      f+3     :     0.030817
      f-3     :     0.053266

  8 O s       :     3.543725  s :     3.543725
      pz      :     1.613397  p :     4.742426
      px      :     1.580840
      py      :     1.548189
      dz2     :     0.006349  d :     0.041716
      dxz     :     0.002314
      dyz     :     0.006277
      dx2y2   :     0.010355
      dxy     :     0.016420
      f0      :     0.000171  f :     0.002063
      f+1     :     0.000141
      f-1     :     0.000330
      f+2     :     0.000094
      f-2     :     0.000209
      f+3     :     0.000730
      f-3     :     0.000388

  9 C s       :     2.822987  s :     2.822987
      pz      :     1.083709  p :     3.157488
      px      :     1.042168
      py      :     1.031611
      dz2     :     0.045232  d :     0.303473
      dxz     :     0.039003
      dyz     :     0.089513
      dx2y2   :     0.075009
      dxy     :     0.054715
      f0      :     0.003707  f :     0.026167
      f+1     :     0.002052
      f-1     :     0.003423
      f+2     :     0.002680
      f-2     :     0.004520
      f+3     :     0.004370
      f-3     :     0.005416

 10 C s       :     2.720635  s :     2.720635
      pz      :     0.848855  p :     2.878763
      px      :     1.033489
      py      :     0.996419
      dz2     :     0.035689  d :     0.518896
      dxz     :     0.075878
      dyz     :     0.077049
      dx2y2   :     0.160401
      dxy     :     0.169879
      f0      :     0.003748  f :     0.055065
      f+1     :     0.004123
[...]
      px      :     0.029500
      py      :     0.012573

 24 H s       :     0.797007  s :     0.797007
      pz      :     0.011907  p :     0.055767
      px      :     0.011103
      py      :     0.032757

 25 H s       :     0.793756  s :     0.793756
      pz      :     0.014866  p :     0.056033
      px      :     0.021459
      py      :     0.019709

 26 H s       :     0.774554  s :     0.774554
      pz      :     0.011593  p :     0.061540
      px      :     0.012579
      py      :     0.037369

 27 H s       :     0.795235  s :     0.795235
      pz      :     0.014241  p :     0.055697
      px      :     0.021344
      py      :     0.020112

 28 H s       :     0.787514  s :     0.787514
      pz      :     0.013289  p :     0.059650
      px      :     0.020018
      py      :     0.026344

 29 H s       :     0.781336  s :     0.781336
      pz      :     0.029675  p :     0.059581
      px      :     0.011892
      py      :     0.018014

 30 H s       :     0.778945  s :     0.778945
      pz      :     0.021548  p :     0.060191
      px      :     0.016448
      py      :     0.022194

 31 H s       :     0.779049  s :     0.779049
      pz      :     0.016336  p :     0.060120
      px      :     0.032474
      py      :     0.011310

 32 H s       :     0.782478  s :     0.782478
      pz      :     0.012648  p :     0.058584
      px      :     0.036143
      py      :     0.009793

 33 H s       :     0.796069  s :     0.796069
      pz      :     0.012520  p :     0.055725
      px      :     0.015886
      py      :     0.027319

 34 H s       :     0.796973  s :     0.796973
      pz      :     0.012212  p :     0.055957
      px      :     0.016003
      py      :     0.027742

 35 H s       :     0.796157  s :     0.796157
      pz      :     0.012211  p :     0.055715
      px      :     0.033605
      py      :     0.009900

 36 H s       :     0.782587  s :     0.782587
      pz      :     0.013031  p :     0.058639
      px      :     0.016140
      py      :     0.029469

 37 H s       :     0.780972  s :     0.780972
      pz      :     0.029066  p :     0.059605
      px      :     0.013642
      py      :     0.016897

 38 H s       :     0.787922  s :     0.787922
      pz      :     0.012880  p :     0.059581
      px      :     0.016666
      py      :     0.030034

 39 H s       :     0.793857  s :     0.793857
      pz      :     0.015675  p :     0.056033
      px      :     0.012614
      py      :     0.027743

 40 H s       :     0.796942  s :     0.796942
      pz      :     0.012012  p :     0.055774
      px      :     0.031008
      py      :     0.012754

 41 H s       :     0.797315  s :     0.797315
      pz      :     0.019578  p :     0.055872
      px      :     0.018797
      py      :     0.017497

 42 H s       :     0.795151  s :     0.795151
      pz      :     0.015118  p :     0.055704
      px      :     0.012871
      py      :     0.027715

 43 H s       :     0.774634  s :     0.774634
      pz      :     0.011846  p :     0.061435
      px      :     0.037336
      py      :     0.012254



                      *****************************
                      * MAYER POPULATION ANALYSIS *
                      *****************************

  NA   - Mulliken gross atomic population
  ZA   - Total nuclear charge
  QA   - Mulliken gross atomic charge
  VA   - Mayer's total valence
  BVA  - Mayer's bonded valence
  FA   - Mayer's free valence

  ATOM       NA         ZA         QA         VA         BVA        FA
  0 C      6.1559     6.0000    -0.1559     3.9490     3.9490    -0.0000
  1 C      6.1250     6.0000    -0.1250     3.9490     3.9490    -0.0000
  2 C      6.2786     6.0000    -0.2786     3.9616     3.9616    -0.0000
  3 C      5.8804     6.0000     0.1196     3.6708     3.6708    -0.0000
  4 C      6.2020     6.0000    -0.2020     3.9083     3.9083    -0.0000
  5 C      6.1416     6.0000    -0.1416     3.9401     3.9401    -0.0000
  6 C      6.4617     6.0000    -0.4617     3.7433     3.7433    -0.0000
  7 P     14.3201    15.0000     0.6799     4.7035     4.7035    -0.0000
  8 O      8.6181     8.0000    -0.6181     1.9165     1.9165    -0.0000
  9 C      6.5853     6.0000    -0.5853     3.6740     3.6740    -0.0000
 10 C      5.8226     6.0000     0.1774     3.5126     3.5126     0.0000
 11 C      6.2512     6.0000    -0.2512     3.9550     3.9550     0.0000
 12 C      6.1449     6.0000    -0.1449     3.9661     3.9661    -0.0000
 13 C      6.1551     6.0000    -0.1551     3.9605     3.9605    -0.0000
 14 C      6.1476     6.0000    -0.1476     3.9719     3.9719    -0.0000
 15 C      6.2508     6.0000    -0.2508     3.9549     3.9549    -0.0000
 16 C      6.4649     6.0000    -0.4649     3.7435     3.7435    -0.0000
 17 C      5.8751     6.0000     0.1249     3.6665     3.6665    -0.0000
 18 C      6.2815     6.0000    -0.2815     3.9626     3.9626    -0.0000
 19 C      6.1240     6.0000    -0.1240     3.9493     3.9493    -0.0000
 20 C      6.1568     6.0000    -0.1568     3.9496     3.9496    -0.0000
 21 C      6.1404     6.0000    -0.1404     3.9396     3.9396    -0.0000
 22 C      6.2080     6.0000    -0.2080     3.9120     3.9120    -0.0000
 23 H      0.8546     1.0000     0.1454     0.9642     0.9642    -0.0000
 24 H      0.8555     1.0000     0.1445     0.9647     0.9647    -0.0000
 25 H      0.8298     1.0000     0.1702     0.9564     0.9564    -0.0000
 26 H      0.7869     1.0000     0.2131     0.9808     0.9808    -0.0000
 27 H      0.8519     1.0000     0.1481     0.9650     0.9650    -0.0000
 28 H      0.7978     1.0000     0.2022     0.9361     0.9361    -0.0000
 29 H      0.8076     1.0000     0.1924     0.9473     0.9473    -0.0000
 30 H      0.7742     1.0000     0.2258     0.9442     0.9442    -0.0000
 31 H      0.7756     1.0000     0.2244     0.9459     0.9459    -0.0000
 32 H      0.7680     1.0000     0.2320     0.9019     0.9019     0.0000
 33 H      0.8534     1.0000     0.1466     0.9661     0.9661    -0.0000
 34 H      0.8539     1.0000     0.1461     0.9638     0.9638    -0.0000
 35 H      0.8544     1.0000     0.1456     0.9667     0.9667    -0.0000
 36 H      0.7631     1.0000     0.2369     0.8974     0.8974     0.0000
 37 H      0.8060     1.0000     0.1940     0.9471     0.9471    -0.0000
 38 H      0.7986     1.0000     0.2014     0.9367     0.9367    -0.0000
 39 H      0.8284     1.0000     0.1716     0.9557     0.9557    -0.0000
 40 H      0.8555     1.0000     0.1445     0.9648     0.9648    -0.0000
 41 H      0.8548     1.0000     0.1452     0.9643     0.9643     0.0000
 42 H      0.8512     1.0000     0.1488     0.9647     0.9647    -0.0000
 43 H      0.7872     1.0000     0.2128     0.9811     0.9811    -0.0000

  Mayer bond orders larger than 0.100000
B(  0-C ,  1-C ) :   1.4412 B(  0-C ,  5-C ) :   1.4351 B(  0-C , 23-H ) :   0.9477 
B(  1-C ,  2-C ) :   1.4730 B(  1-C , 24-H ) :   0.9503 B(  2-C ,  3-C ) :   1.3707 
B(  2-C , 25-H ) :   0.9459 B(  3-C ,  4-C ) :   1.3957 B(  3-C ,  6-C ) :   0.8998 
B(  4-C ,  5-C ) :   1.4628 B(  4-C , 26-H ) :   0.8994 B(  5-C , 27-H ) :   0.9497 
B(  6-C ,  7-P ) :   0.9006 B(  6-C , 28-H ) :   0.9741 B(  6-C , 29-H ) :   0.9148 
B(  7-P ,  8-O ) :   1.8358 B(  7-P ,  9-C ) :   0.8742 B(  7-P , 16-C ) :   0.9017 
B(  9-C , 10-C ) :   0.7710 B(  9-C , 30-H ) :   0.9591 B(  9-C , 31-H ) :   0.9602 
B( 10-C , 11-C ) :   1.3639 B( 10-C , 15-C ) :   1.3647 B( 11-C , 12-C ) :   1.4761 
B( 11-C , 32-H ) :   0.9158 B( 12-C , 13-C ) :   1.4440 B( 12-C , 33-H ) :   0.9483 
B( 13-C , 14-C ) :   1.4440 B( 13-C , 34-H ) :   0.9499 B( 14-C , 15-C ) :   1.4782 
B( 14-C , 35-H ) :   0.9491 B( 15-C , 36-H ) :   0.9128 B( 16-C , 17-C ) :   0.9006 
B( 16-C , 37-H ) :   0.9141 B( 16-C , 38-H ) :   0.9732 B( 17-C , 18-C ) :   1.3710 
B( 17-C , 22-C ) :   1.3942 B( 18-C , 19-C ) :   1.4736 B( 18-C , 39-H ) :   0.9453 
B( 19-C , 20-C ) :   1.4410 B( 19-C , 40-H ) :   0.9504 B( 20-C , 21-C ) :   1.4348 
B( 20-C , 41-H ) :   0.9480 B( 21-C , 22-C ) :   1.4639 B( 21-C , 42-H ) :   0.9488 
B( 22-C , 43-H ) :   0.9008 

-------
TIMINGS
-------

Total SCF time: 0 days 0 hours 3 min 0 sec 

Total time                  ....     180.855 sec
Sum of individual times     ....     181.070 sec  (100.1%)

SCF preparation             ....       0.351 sec  (  0.2%)
Fock matrix formation       ....     174.502 sec  ( 96.5%)
  Startup                   ....       0.184 sec  (  0.1% of F)
  Split-RI-J                ....      13.662 sec  (  7.8% of F)
  Chain of spheres X        ....     124.446 sec  ( 71.3% of F)
  XC integration            ....      35.751 sec  ( 20.5% of F)
    Basis function eval.    ....       5.212 sec  ( 14.6% of XC)
    Density eval.           ....      15.268 sec  ( 42.7% of XC)
    XC-Functional eval.     ....       0.551 sec  (  1.5% of XC)
    XC-Potential eval.      ....      13.045 sec  ( 36.5% of XC)
Diagonalization             ....       0.000 sec  (  0.0%)
Density matrix formation    ....       0.481 sec  (  0.3%)
Total Energy calculation    ....       0.157 sec  (  0.1%)
Population analysis         ....       0.287 sec  (  0.2%)
Orbital Transformation      ....       0.809 sec  (  0.4%)
Orbital Orthonormalization  ....       0.000 sec  (  0.0%)
DIIS solution               ....       3.462 sec  (  1.9%)
SOSCF solution              ....       1.021 sec  (  0.6%)
Finished LeanSCF after 180.9 sec

Maximum memory used throughout the entire LEANSCF-calculation: 131.5 MB


-------------------------------------------------------------------------------
                          DFT DISPERSION CORRECTION                            
                                                                               
                              DFTD3 V3.1  Rev 1                                
                              USING zero damping                               
-------------------------------------------------------------------------------
The M062X functional is recognized
Active option DFTDOPT                   ...         3   

molecular C6(AA) [au] = 24254.305299 


            DFT-D V3
 parameters
 s6 scaling factor         :     1.0000 
 rs6 scaling factor        :     1.6190 
 s8 scaling factor         :     0.0000 
 rs8 scaling factor        :     1.0000 
 Damping factor alpha6     :    14.0000 
 Damping factor alpha8     :    16.0000 
 ad hoc parameters k1-k3   :    16.0000     1.3333    -4.0000 

 Edisp/kcal,au: -2.153413064003  -0.003431681789 
 E6   /kcal   :  -2.153413064 
 E8   /kcal   :  -0.000000000 
 % E8         :   0.000000000 

-------------------------   ----------------
Dispersion correction           -0.003431682
-------------------------   ----------------


-------------------------   --------------------
FINAL SINGLE POINT ENERGY     -1229.450724574223
-------------------------   --------------------



           ************************************************************
           *        Program running with 6 parallel MPI-processes     *
           *              working on a common directory               *
           ************************************************************

------------------------------------------------------------------------------
                              ORCA PROPERTY CALCULATIONS
------------------------------------------------------------------------------

GBWName                                 ... data/single_point_PO_M06-2x/82101/82101.gbw
Number of atoms                         ...     44
Number of basis functions               ...    845
Max core memory                         ...   1024 MB

Electric properties:
Dipole moment                           ... YES
Quadrupole moment                       ...  NO
Static polarizability (Dipole/Dipole)   ...  NO
Static polarizability (Dipole/Quad.)    ...  NO
Static polarizability (Quad./Quad.)     ...  NO
Static polarizability (Velocity)        ...  NO

Atomic electric properties:
Dipole moment                           ...  NO
Quadrupole moment                       ...  NO
Static polarizability                   ...  NO

Choice of electric origin               ... Center of mass
Position of electric origin             ...     0.156832     0.285202     0.228552

General magnetic properties:
Magnetizability                         ...  NO

EPR properties:
g-Tensor (aka g-matrix)                 ...  NO
Zero-Field splitting spin-orbit         ...  NO
Zero-field splitting spin-spin          ...  NO
Hyperfine couplings                     ...  NO (   0 nuclei)
Quadrupole couplings                    ...  NO (   0 nuclei)
Contact density                         ...  NO (   0 nuclei)

NMR properties:
Chemical shifts                         ...  NO (   0 nuclei)
Spin-rotation constants                 ...  NO (   0 nuclei)
Spin-spin couplings                     ...  NO (   0 nuclei,    0 pairs)

Choice of magnetic origin               ... GIAO
Position of magnetic origin             ...     0.000000     0.000000     0.000000

Properties with geometric perturbations:
SCF Hessian                             ...  NO
IR spectrum                             ...  NO
VCD spectrum                            ...  NO
X-ray spectroscopy properties:
SCF XES/XAS/RIXS spectra                ...  NO


-------------
DIPOLE MOMENT
-------------

Method             : SCF
Type of density    : Electron Density
Multiplicity       :   1
Irrep              :   0
Energy             : -1229.4472928924349162 Eh
Relativity type    : 
Basis              : AO
                                X                 Y                 Z
Electronic contribution:      2.248730403       4.122838030       0.828880907
Nuclear contribution   :     -2.997511602      -5.348800769      -0.743119259
                        -----------------------------------------
Total Dipole Moment    :     -0.748781200      -1.225962739       0.085761648
                        -----------------------------------------
Magnitude (a.u.)       :      1.439101450
Magnitude (Debye)      :      3.657905186



--------------------
Rotational spectrum 
--------------------
 
Rotational constants in cm-1:             0.012824             0.005604             0.004222 
Rotational constants in MHz :           384.451467           167.992624           126.575015 

Dipole components along the rotational axes: 
x,y,z [a.u.] :     0.005409    -1.373387     0.429873 
x,y,z [Debye]:     0.013748    -3.490873     1.092650 

 

Dipole moment calculation done in   0.1 sec 

Maximum memory used throughout the entire PROP-calculation: 71.4 MB

--------------------------------
SUGGESTED CITATIONS FOR THIS RUN
--------------------------------

Below you find a list of papers that are relevant to this ORCA run
We neither can nor want to force you to cite these papers, but we appreciate if you do
You receive ORCA, which is the product of decades of hard work by many enthusiastic individuals, for free
The only thing we kindly ask in return is that you cite our papers,
We deeply appreciate it, if you show your appreciation for ORCA by not just citing the generic ORCA reference.

Please note that relegating all ORCA citations to the supporting information does *not* help us.
SI sections are not indexed - citations you put there will not count into any citation statistics
But we need these citations in order to attract the funding resources that allow us to do what we are doing

Therefore, if you are a happy ORCA user, please consider citing a few of the papers listed below in the main body of your paper

In addition to the list printed below, the program has created the file data/single_point_PO_M06-2x/82101/82101.bibtex that contains the list in bibtex format
You can import this file easily into all common literature databanks and citation aid programs


List of essential papers. We consider these as the minimum necessary citations

  1. Neese,F.
     Software update: the ORCA program system, version 5.0
     WIRES Comput. Molec. Sci., 2022 12(1)e1606
     doi.org/10.1002/wcms.1606

List of papers to cite with high priority. The work reported in these papers was absolutely
necessary for this run to complete.
Our perspective: the developers of density functionals and basis sets usually get cited in chemistry papers
Good! But without the algorithms to do something with them, the functionals or basis sets would not do anything.
Hence, in our opinion, the algorithm design and method developments papers are equally worthy of getting cited

  1. Neese,F.
     An improvement of the resolution of the identity approximation for the formation of the Coulomb matrix
     J. Comp. Chem., 2003 24(14)1740-1747
     doi.org/10.1002/jcc.10318
  2. Neese,F.; Wennmohs,F.; Hansen,A.; Becker,U.
     Efficient, approximate and parallel Hartree-Fock and hybrid DFT calculations. A 'chain-of-spheres' algorithm for the Hartree-Fock exchange
     Chem. Phys., 2009 356(1-3)98-109
     doi.org/10.1016/j.chemphys.2008.10.036
  3. Helmich-Paris,B.; de Souza,B.; Neese,F.; Izsák,R.
     An improved chain of spheres for exchange algorithm
     J. Chem. Phys., 2021 155 104109
     doi.org/doi: 10.1063/5.0058766.
  4. Neese,F.
     The SHARK Integral Generation and Digestion System
     J. Comp. Chem., 2022  1-16
     doi.org/10.1002/jcc.26942
  5. Grimme,S.; Antony,J.; Ehrlich,S.; Krieg,H.
     A consistent and accurate ab initio parametrization of density functional dispersion correction (DFT-D) for the 94 elements H-Pu
     J. Chem. Phys., 2010 132 154104-XXXX
     doi.org/10.1063/1.3382344

List of suggested additional citations. These are papers that are important in the 'surrounding' of 
of this run, or papers that preceded the highly important papers. If you like your results we are grateful for a citation.

  1. Izsak,R.; Neese,F.
     An overlap fitted chain of spheres exchange method
     J. Chem. Phys., 2011 135 144105
     doi.org/10.1063/1.3646921
  2. Izsak,R.; Hansen,A.; Neese,F.
     The resolution of identity and chain of spheres approximations for the LPNO-CCSD singles Fock term
     Molec. Phys., 2012 110 2413-2417
     doi.org/10.1080/00268976.2012.687466
  3. Neese,F.
     The ORCA program system
     WIRES Comput. Molec. Sci., 2012 2(1)73-78
     doi.org/10.1002/wcms.81
  4. Izsak,R.; Neese,F.; Klopper,W.
     Robust fitting techniques in the chain of spheres approximation to the Fock exchange: The role of the complementary space
     J. Chem. Phys., 2013 139 
     doi.org/10.1063/1.4819264
  5. Neese,F.
     Software update: the ORCA program system, version 4.0
     WIRES Comput. Molec. Sci., 2018 8(1)1-6
     doi.org/10.1002/wcms.1327
  6. Neese,F.; Wennmohs,F.; Becker,U.; Riplinger,C.
     The ORCA quantum chemistry program package
     J. Chem. Phys., 2020 152 Art. No. L224108
     doi.org/10.1063/5.0004608

List of optional additional citations

  1. Neese,F.
     Approximate second-order SCF convergence for spin unrestricted wavefunctions
     Chem. Phys. Lett., 2000 325(1-3)93-98
     doi.org/10.1016/s0009-2614(00)00662-x

Timings for individual modules:

Sum of individual times          ...      190.148 sec (=   3.169 min)
Startup calculation              ...        5.972 sec (=   0.100 min)   3.1 %
SCF iterations                   ...      183.823 sec (=   3.064 min)  96.7 %
Property calculations            ...        0.353 sec (=   0.006 min)   0.2 %
                             ****ORCA TERMINATED NORMALLY****
TOTAL RUN TIME: 0 days 0 hours 3 minutes 10 seconds 417 msec
