
                                 *****************
                                 * O   R   C   A *
                                 *****************

                                            #,                                       
                                            ###                                      
                                            ####                                     
                                            #####                                    
                                            ######                                   
                                           ########,                                 
                                     ,,################,,,,,                         
                               ,,#################################,,                 
                          ,,##########################################,,             
                       ,#########################################, ''#####,          
                    ,#############################################,,   '####,        
                  ,##################################################,,,,####,       
                ,###########''''           ''''###############################       
              ,#####''   ,,,,##########,,,,          '''####'''          '####       
            ,##' ,,,,###########################,,,                        '##       
           ' ,,###''''                  '''############,,,                           
         ,,##''                                '''############,,,,        ,,,,,,###''
      ,#''                                            '''#######################'''  
     '                                                          ''''####''''         
             ,#######,   #######,   ,#######,      ##                                
            ,#'     '#,  ##    ##  ,#'     '#,    #''#        ,####,   ,####,        
            ##       ##  ##   ,#'  ##            #'  '#       #'       #'  '#        
            ##       ##  #######   ##           ,######,      #####,   #    #        
            '#,     ,#'  ##    ##  '#,     ,#' ,#      #,     #,   #   #,  ,#        
             '#######'   ##     ##  '#######'  #'      '#     '####' # '####'        



                #########################################################
                #                        -***-                          #
                #          Department of theory and spectroscopy        #
                #                                                       #
                #                      Frank Neese                      #
                #                                                       #
                #     Directorship, Architecture, Infrastructure        #
                #                    SHARK, DRIVERS                     #
                #        Core code/Algorithms in most modules           #
                #                                                       #
                #        Max Planck Institute fuer Kohlenforschung      #
                #                Kaiser Wilhelm Platz 1                 #
                #                 D-45470 Muelheim/Ruhr                 #
                #                      Germany                          #
                #                                                       #
                #                  All rights reserved                  #
                #                        -***-                          #
                #########################################################


                         Program Version 6.0.0  -   RELEASE   -


 With contributions from (in alphabetic order):
   Daniel Aravena         : Magnetic Suceptibility
   Michael Atanasov       : Ab Initio Ligand Field Theory (pilot matlab implementation)
   Alexander A. Auer      : GIAO ZORA, VPT2 properties, NMR spectrum
   Ute Becker             : All parallelization in ORCA, NUMFREQ, NUMCALC
   Giovanni Bistoni       : ED, misc. LED, open-shell LED, HFLD
   Martin Brehm           : Molecular dynamics
   Dmytro Bykov           : pre 5.0 version of the SCF Hessian
   Marcos Casanova-Páez   : Triplet and SCS-CIS(D). UHF-(DLPNO)-IP/EA/STEOM-CCSD. UHF-CVS-IP/STEOM-CCSD
   Vijay G. Chilkuri      : MRCI spin determinant printing, contributions to CSF-ICE
   Pauline Colinet        : FMM embedding
   Dipayan Datta          : RHF DLPNO-CCSD density
   Achintya Kumar Dutta   : EOM-CC, STEOM-CC
   Nicolas Foglia         : Exact transition moments, OPA infrastructure, MCD improvements
   Dmitry Ganyushin       : Spin-Orbit,Spin-Spin,Magnetic field MRCI
   Miquel Garcia          : C-PCM and meta-GGA Hessian, CCSD/C-PCM, Gaussian charge scheme
   Tiago L. C. Gouveia    : GS-ROHF, GS-ROCIS
   Yang Guo               : DLPNO-NEVPT2, F12-NEVPT2, CIM, IAO-localization
   Andreas Hansen         : Spin unrestricted coupled pair/coupled cluster methods
   Ingolf Harden          : AUTO-CI MPn and infrastructure 
   Benjamin Helmich-Paris : MC-RPA, TRAH-(SCF,CASSCF), AVAS, COSX integrals, SCF dyn. polar.
   Lee Huntington         : MR-EOM, pCC
   Robert Izsak           : Overlap fitted RIJCOSX, COSX-SCS-MP3, EOM
   Riya Kayal             : Wick's Theorem for AUTO-CI, AUTO-CI UHF-CCSDT
   Emily Kempfer          : AUTO-CI, RHF CISDT and CCSDT
   Christian Kollmar      : KDIIS, OOCD, Brueckner-CCSD(T), CCSD density, CASPT2, CASPT2-K, improved NEVPT2
   Axel Koslowski         : Symmetry handling
   Simone Kossmann        : Meta GGA functionals, TD-DFT gradient, OOMP2, (MP2 Hessian; deprecated post 5.0)
   Lucas Lang             : DCDCAS
   Marvin Lechner         : AUTO-CI (C++ implementation), FIC-MRCC
   Spencer Leger          : CASSCF response
   Dagmar Lenk            : GEPOL surface, SMD, ORCA-2-JSON
   Dimitrios Liakos       : Extrapolation schemes; Compound Job, initial MDCI parallelization
   Dimitrios Manganas     : Further ROCIS development; embedding schemes. LFT, Crystal Embedding
   Dimitrios Pantazis     : SARC Basis sets
   Anastasios Papadopoulos: AUTO-CI, single reference methods and gradients
   Taras Petrenko         : pre 6.0 DFT Hessian and TD-DFT gradient, (ASA, deprecated), ECA, 1-Electron XAS/XES, NRVS
   Peter Pinski           : DLPNO-MP2, DLPNO-MP2 Gradient
   Christoph Reimann      : Effective Core Potentials
   Marius Retegan         : Local ZFS, SOC
   Christoph Riplinger    : Optimizer, TS searches, QM/MM, DLPNO-CCSD(T), (RO)-DLPNO pert. Triples
   Michael Roemelt        : Original ROCIS implementation
   Masaaki Saitow         : Open-shell DLPNO-CCSD energy and density
   Barbara Sandhoefer     : DKH picture change effects
   Kantharuban Sivalingam : CASSCF convergence/infrastructure, NEVPT2 and variants, FIC-MRCI
   Bernardo de Souza      : ESD, SOC TD-DFT
   Georgi Stoychev        : AutoAux, RI-MP2 NMR, DLPNO-MP2 response, X2C
   Van Anh Tran           : RI-MP2 g-tensors
   Willem Van den Heuvel  : Paramagnetic NMR
   Zikuan Wang            : NOTCH, Electric field optimization 
   Frank Wennmohs         : Technical directorship and infrastructure
   Hang Xu                : AUTO-CI-Response properties 


 We gratefully acknowledge several colleagues who have allowed us to
 interface, adapt or use parts of their codes:
   Stefan Grimme, W. Hujo, H. Kruse, P. Pracht,  : VdW corrections, initial TS optimization,
                  C. Bannwarth, S. Ehlert,         DFT functionals, gCP, sTDA/sTD-DF
                  L. Wittmann, M. Mueller
   Ed Valeev, F. Pavosevic, A. Kumar             : LibInt (2-el integral package), F12 methods
   Garnet Chan, S. Sharma, J. Yang, R. Olivares  : DMRG
   Ulf Ekstrom                                   : XCFun DFT Library
   Mihaly Kallay                                 : mrcc  (arbitrary order and MRCC methods)
   Frank Weinhold                                : gennbo (NPA and NBO analysis)
   Simon Mueller                                 : openCOSMO-RS
   Christopher J. Cramer and Donald G. Truhlar   : smd solvation model
   Lars Goerigk                                  : TD-DFT with DH, B97 family of functionals
   V. Asgeirsson, H. Jonsson                     : NEB implementation
   FAccTs GmbH                                   : IRC, NEB, NEB-TS, DLPNO-Multilevel, CI-OPT
                                                   MM, QMMM, 2- and 3-layer-ONIOM, Crystal-QMMM,
                                                   LR-CPCM, SF, NACMEs, symmetry and pop. for TD-DFT,
                                                   nearIR, NL-DFT gradient (VV10), updates on ESD,
                                                   ML-optimized integration grids, MBIS, APM,
                                                   GOAT, DOCKER, SOLVATOR, interface openCOSMO-RS
   S Lehtola, MJT Oliveira, MAL Marques          : LibXC Library
   Liviu Ungur et al                             : ANISO software


 Your calculation uses the libint2 library for the computation of 2-el integrals
 For citations please refer to: http://libint.valeyev.net

 Your ORCA version has been built with support for libXC version: 6.2.2
 For citations please refer to: https://libxc.gitlab.io

 This ORCA versions uses:
   CBLAS   interface :  Fast vector & matrix operations
   LAPACKE interface :  Fast linear algebra routines
   Shared memory     :  Shared parallel matrices


Your calculation utilizes the atom-pairwise dispersion correction
with the Becke-Johnson damping scheme (D3BJ)


Warning: RI is on but no J-basis has been assigned. Assigning Def2/J (nothing to worry about!)
================================================================================

----- Orbital basis set information -----
Your calculation utilizes the basis: def2-SVP
   F. Weigend and R. Ahlrichs, Phys. Chem. Chem. Phys. 7, 3297 (2005).

----- AuxJ basis set information -----
Your calculation utilizes the auxiliary basis: def2/J
   F. Weigend, Phys. Chem. Chem. Phys. 8, 1057 (2006).

================================================================================
                                        WARNINGS
                       Please study these warnings very carefully!
================================================================================


WARNING: Geometry Optimization
  ===> : Switching off AutoStart
         For restart on a previous wavefunction, please use MOREAD

================================================================================
                                       INPUT FILE
================================================================================
NAME = data/geom_opt_P_BP86/69773/69773.inp
|  1> ! RI BP86 def2-SVP D3BJ TIGHTSCF Opt
|  2> %pal
|  3> nprocs 6
|  4> end
|  5> 
|  6> * xyz 0 1
|  7> C     -3.276795   -2.804494    0.137050
|  8> C     -2.559058   -3.016061   -1.035766
|  9> C     -1.603605   -2.083073   -1.448333
| 10> C     -1.344687   -0.923152   -0.695243
| 11> C     -2.082793   -0.728145    0.481428
| 12> C     -3.039520   -1.661283    0.894744
| 13> P     -0.079270    0.231635   -1.317060
| 14> C     -0.289797    1.720163   -0.286615
| 15> C     -1.257197    2.661742   -0.681843
| 16> C     -1.476158    3.827983    0.056728
| 17> C     -0.729325    4.075452    1.204168
| 18> C      0.234401    3.157647    1.611900
| 19> C      0.452701    1.990450    0.872528
| 20> C      1.495972   -0.482656   -0.741067
| 21> C      2.689244    0.050355   -1.263518
| 22> C      3.937120   -0.445009   -0.872072
| 23> C      4.006844   -1.485490    0.048074
| 24> C      2.842338   -2.032408    0.577826
| 25> C      1.595403   -1.533480    0.183820
| 26> Br     5.689846   -2.158381    0.581990
| 27> H     -4.021322   -3.527545    0.459271
| 28> H     -2.741075   -3.905614   -1.633132
| 29> H     -1.056913   -2.274545   -2.370347
| 30> H     -1.928469    0.148729    1.104866
| 31> H     -3.599530   -1.490177    1.810671
| 32> H     -1.857274    2.493210   -1.574672
| 33> H     -2.230021    4.540772   -0.267151
| 34> H     -0.897157    4.981982    1.779494
| 35> H      0.820537    3.346837    2.507701
| 36> H      1.210439    1.298427    1.230291
| 37> H      2.658301    0.866444   -1.984227
| 38> H      4.840784   -0.011328   -1.291697
| 39> H      2.887859   -2.846012    1.297040
| 40> H      0.708176   -1.982977    0.623152
| 41> **                         ****END OF INPUT****
================================================================================

                       *****************************
                       * Geometry Optimization Run *
                       *****************************

Geometry optimization settings:
Update method            Update   .... BFGS
Choice of coordinates    CoordSys .... (2022) Redundant Internals
Initial Hessian          InHess   .... Almloef's Model
Max. no of cycles        MaxIter  .... 102

Convergence Tolerances:
Energy Change            TolE     ....  5.0000e-06 Eh
Max. Gradient            TolMAXG  ....  3.0000e-04 Eh/bohr
RMS Gradient             TolRMSG  ....  1.0000e-04 Eh/bohr
Max. Displacement        TolMAXD  ....  4.0000e-03 bohr
RMS Displacement         TolRMSD  ....  2.0000e-03 bohr
Strict Convergence                .... False

------------------------------------------------------------------------------
                        ORCA OPTIMIZATION COORDINATE SETUP
------------------------------------------------------------------------------

The optimization will be done in redundant internal coordinates (2022)
Making redundant internal coordinates   ...  (2022 redundants) done
Evaluating the initial hessian          ...  (Almloef) done
Evaluating the coordinates              ...  done
Calculating the B-matrix                .... done
Calculating the G-matrix                .... done
Diagonalizing the G-matrix              .... done
Small eigenvalue found = 5.301e-03
Small eigenvalue found = 5.644e-03
Small eigenvalue found = 1.023e-02
The first mode is                       ....   81
The number of degrees of freedom        ....   96

    -----------------------------------------------------------------
                    Redundant Internal Coordinates


    -----------------------------------------------------------------
         Definition                    Initial Value    Approx d2E/dq
    -----------------------------------------------------------------
      1. B(C   1,C   0)                  1.3912         0.622075   
      2. B(C   2,C   1)                  1.3977         0.607368   
      3. B(C   3,C   2)                  1.4070         0.587008   
      4. B(C   4,C   3)                  1.4026         0.596460   
      5. B(C   5,C   4)                  1.3989         0.604713   
      6. B(C   5,C   0)                  1.3919         0.620495   
      7. B(P   6,C   3)                  1.8225         0.428768   
      8. B(C   7,P   6)                  1.8226         0.428602   
      9. B(C   8,C   7)                  1.4066         0.587745   
     10. B(C   9,C   8)                  1.3977         0.607383   
     11. B(C  10,C   9)                  1.3913         0.621899   
     12. B(C  11,C  10)                  1.3919         0.620456   
     13. B(C  12,C  11)                  1.3988         0.604895   
     14. B(C  12,C   7)                  1.4028         0.596001   
     15. B(C  13,P   6)                  1.8230         0.427949   
     16. B(C  14,C  13)                  1.4075         0.585971   
     17. B(C  15,C  14)                  1.3985         0.605582   
     18. B(C  16,C  15)                  1.3907         0.623122   
     19. B(C  17,C  16)                  1.3913         0.621725   
     20. B(C  18,C  17)                  1.3996         0.603038   
     21. B(C  18,C  13)                  1.4034         0.594783   
     22. B(Br 19,C  16)                  1.8895         0.335163   
     23. B(H  20,C   0)                  1.0867         0.364472   
     24. B(H  21,C   1)                  1.0869         0.364268   
     25. B(H  22,C   2)                  1.0889         0.361595   
     26. B(H  23,C   4)                  1.0869         0.364195   
     27. B(H  24,C   5)                  1.0871         0.363942   
     28. B(H  25,C   8)                  1.0889         0.361597   
     29. B(H  26,C   9)                  1.0869         0.364271   
     30. B(H  27,C  10)                  1.0867         0.364463   
     31. B(H  28,C  11)                  1.0871         0.363944   
     32. B(H  29,C  12)                  1.0868         0.364406   
     33. B(H  30,C  14)                  1.0892         0.361146   
     34. B(H  31,C  15)                  1.0866         0.364581   
     35. B(H  32,C  17)                  1.0869         0.364261   
     36. B(H  33,C  18)                  1.0873         0.363683   
     37. A(C   1,C   0,H  20)          120.1486         0.353831   
     38. A(C   1,C   0,C   5)          119.7276         0.434390   
     39. A(C   5,C   0,H  20)          120.1236         0.353679   
     40. A(C   0,C   1,H  21)          120.0937         0.353797   
     41. A(C   2,C   1,H  21)          119.9060         0.352367   
     42. A(C   0,C   1,C   2)          120.0002         0.432722   
     43. A(C   1,C   2,C   3)          121.2053         0.428237   
     44. A(C   1,C   2,H  22)          118.4098         0.351929   
     45. A(C   3,C   2,H  22)          120.3847         0.349907   
     46. A(C   2,C   3,C   4)          117.8268         0.426849   
     47. A(C   2,C   3,P   6)          117.8733         0.429165   
     48. A(C   4,C   3,P   6)          124.2989         0.430397   
     49. A(C   5,C   4,H  23)          117.7607         0.352094   
     50. A(C   3,C   4,H  23)          121.2400         0.351277   
     51. A(C   3,C   4,C   5)          120.9986         0.429129   
     52. A(C   0,C   5,H  24)          120.0071         0.353591   
     53. A(C   0,C   5,C   4)          120.2404         0.432184   
     54. A(C   4,C   5,H  24)          119.7524         0.352053   
     55. A(C   7,P   6,C  13)          103.9561         0.432559   
     56. A(C   3,P   6,C  13)          104.1166         0.432589   
     57. A(C   3,P   6,C   7)          104.1458         0.432708   
     58. A(C   8,C   7,C  12)          117.8526         0.426886   
     59. A(P   6,C   7,C  12)          124.2895         0.430308   
     60. A(P   6,C   7,C   8)          117.8575         0.429232   
     61. A(C   9,C   8,H  25)          118.4307         0.351931   
     62. A(C   7,C   8,H  25)          120.3841         0.349982   
     63. A(C   7,C   8,C   9)          121.1849         0.428336   
     64. A(C   8,C   9,C  10)          120.0090         0.432702   
     65. A(C  10,C   9,H  26)          120.0959         0.353781   
     66. A(C   8,C   9,H  26)          119.8951         0.352369   
     67. A(C   9,C  10,C  11)          119.7343         0.434362   
     68. A(C  11,C  10,H  27)          120.1261         0.353673   
     69. A(C   9,C  10,H  27)          120.1396         0.353813   
     70. A(C  12,C  11,H  28)          119.7770         0.352071   
     71. A(C  10,C  11,H  28)          119.9960         0.353588   
     72. A(C  10,C  11,C  12)          120.2270         0.432202   
     73. A(C   7,C  12,H  29)          121.2224         0.351266   
     74. A(C  11,C  12,H  29)          117.7842         0.352147   
     75. A(C   7,C  12,C  11)          120.9919         0.429093   
     76. A(C  14,C  13,C  18)          117.9128         0.426499   
     77. A(P   6,C  13,C  18)          124.2517         0.430032   
     78. A(P   6,C  13,C  14)          117.8347         0.428882   
     79. A(C  15,C  14,H  30)          118.4210         0.351680   
     80. A(C  13,C  14,H  30)          120.3495         0.349730   
     81. A(C  13,C  14,C  15)          121.2291         0.427876   
     82. A(C  16,C  15,H  31)          120.8238         0.353950   
     83. A(C  14,C  15,H  31)          119.5110         0.352243   
     84. A(C  14,C  15,C  16)          119.6652         0.432624   
     85. A(C  17,C  16,Br 19)          119.8620         0.414932   
     86. A(C  15,C  16,Br 19)          119.8702         0.415098   
     87. A(C  15,C  16,C  17)          120.2678         0.434676   
     88. A(C  18,C  17,H  32)          119.3690         0.351940   
     89. A(C  16,C  17,H  32)          120.7406         0.353763   
     90. A(C  16,C  17,C  18)          119.8903         0.432122   
     91. A(C  17,C  18,H  33)          117.7651         0.351846   
     92. A(C  13,C  18,H  33)          121.1994         0.351027   
     93. A(C  13,C  18,C  17)          121.0343         0.428699   
     94. D(H  21,C   1,C   0,C   5)   -179.8659         0.026789   
     95. D(C   2,C   1,C   0,H  20)    179.9046         0.026789   
     96. D(H  21,C   1,C   0,H  20)     -0.0075         0.026789   
     97. D(C   2,C   1,C   0,C   5)      0.0462         0.026789   
     98. D(C   3,C   2,C   1,C   0)      0.1736         0.025465   
     99. D(C   3,C   2,C   1,H  21)   -179.9142         0.025465   
    100. D(H  22,C   2,C   1,C   0)   -179.9995         0.025465   
    101. D(H  22,C   2,C   1,H  21)     -0.0873         0.025465   
    102. D(P   6,C   3,C   2,H  22)      0.1452         0.023701   
    103. D(C   4,C   3,C   2,C   1)     -0.3618         0.023701   
    104. D(C   4,C   3,C   2,H  22)    179.8147         0.023701   
    105. D(P   6,C   3,C   2,C   1)    179.9687         0.023701   
    106. D(H  23,C   4,C   3,C   2)   -179.9515         0.024510   
    107. D(C   5,C   4,C   3,C   2)      0.3403         0.024510   
    108. D(C   5,C   4,C   3,P   6)    179.9867         0.024510   
    109. D(H  23,C   4,C   3,P   6)     -0.3051         0.024510   
    110. D(H  24,C   5,C   4,H  23)      0.2356         0.025231   
    111. D(C   0,C   5,C   4,H  23)   -179.8502         0.025231   
    112. D(H  24,C   5,C   0,H  20)     -0.0113         0.026644   
    113. D(H  24,C   5,C   0,C   1)    179.8471         0.026644   
    114. D(C   4,C   5,C   0,H  20)   -179.9252         0.026644   
    115. D(H  24,C   5,C   4,C   3)    179.9537         0.025231   
    116. D(C   4,C   5,C   0,C   1)     -0.0668         0.026644   
    117. D(C   0,C   5,C   4,C   3)     -0.1322         0.025231   
    118. D(C  13,P   6,C   3,C   4)     97.6526         0.003789   
    119. D(C  13,P   6,C   3,C   2)    -82.7012         0.003789   
    120. D(C   7,P   6,C   3,C   4)    -11.0012         0.003789   
    121. D(C   7,P   6,C   3,C   2)    168.6450         0.003789   
    122. D(C  12,C   7,P   6,C   3)     95.0110         0.003787   
    123. D(C   8,C   7,P   6,C  13)    166.0260         0.003787   
    124. D(C   8,C   7,P   6,C   3)    -85.2018         0.003787   
    125. D(C  12,C   7,P   6,C  13)    -13.7613         0.003787   
    126. D(H  25,C   8,C   7,C  12)   -179.9678         0.023763   
    127. D(H  25,C   8,C   7,P   6)      0.2310         0.023763   
    128. D(C   9,C   8,C   7,C  12)     -0.1733         0.023763   
    129. D(C   9,C   8,C   7,P   6)   -179.9745         0.023763   
    130. D(H  26,C   9,C   8,H  25)     -0.1245         0.025466   
    131. D(H  26,C   9,C   8,C   7)   -179.9229         0.025466   
    132. D(C  10,C   9,C   8,H  25)    179.9068         0.025466   
    133. D(C  10,C   9,C   8,C   7)      0.1084         0.025466   
    134. D(H  27,C  10,C   9,H  26)     -0.0265         0.026773   
    135. D(H  27,C  10,C   9,C   8)    179.9421         0.026773   
    136. D(C  11,C  10,C   9,H  26)   -179.9844         0.026773   
    137. D(C  11,C  10,C   9,C   8)     -0.0158         0.026773   
    138. D(H  28,C  11,C  10,H  27)      0.0294         0.026641   
    139. D(H  28,C  11,C  10,C   9)    179.9873         0.026641   
    140. D(C  12,C  11,C  10,H  27)   -179.9643         0.026641   
    141. D(C  12,C  11,C  10,C   9)     -0.0064         0.026641   
    142. D(H  29,C  12,C  11,H  28)      0.3832         0.025247   
    143. D(C   7,C  12,C  11,H  28)    179.9429         0.025247   
    144. D(C   7,C  12,C  11,C  10)     -0.0634         0.025247   
    145. D(H  29,C  12,C   7,C   8)    179.6950         0.024470   
    146. D(H  29,C  12,C   7,P   6)     -0.5177         0.024470   
    147. D(H  29,C  12,C  11,C  10)   -179.6231         0.025247   
    148. D(C  11,C  12,C   7,C   8)      0.1505         0.024470   
    149. D(C  11,C  12,C   7,P   6)    179.9377         0.024470   
    150. D(C  18,C  13,P   6,C   7)     97.9803         0.003780   
    151. D(C  18,C  13,P   6,C   3)    -10.8135         0.003780   
    152. D(C  14,C  13,P   6,C   7)    -82.3594         0.003780   
    153. D(C  14,C  13,P   6,C   3)    168.8468         0.003780   
    154. D(H  30,C  14,C  13,P   6)      0.2977         0.023613   
    155. D(C  15,C  14,C  13,C  18)     -0.2489         0.023613   
    156. D(C  15,C  14,C  13,P   6)   -179.9311         0.023613   
    157. D(H  30,C  14,C  13,C  18)    179.9799         0.023613   
    158. D(H  31,C  15,C  14,H  30)     -0.0988         0.025307   
    159. D(H  31,C  15,C  14,C  13)   -179.8743         0.025307   
    160. D(C  16,C  15,C  14,H  30)    179.9147         0.025307   
    161. D(C  16,C  15,C  14,C  13)      0.1391         0.025307   
    162. D(Br 19,C  16,C  15,H  31)      0.0586         0.026885   
    163. D(Br 19,C  16,C  15,C  14)   -179.9550         0.026885   
    164. D(C  17,C  16,C  15,H  31)   -179.9856         0.026885   
    165. D(C  17,C  16,C  15,C  14)      0.0008         0.026885   
    166. D(H  32,C  17,C  16,Br 19)     -0.0736         0.026757   
    167. D(H  32,C  17,C  16,C  15)    179.9707         0.026757   
    168. D(C  18,C  17,C  16,Br 19)    179.9325         0.026757   
    169. D(C  18,C  17,C  16,C  15)     -0.0233         0.026757   
    170. D(H  33,C  18,C  17,H  32)      0.3019         0.025083   
    171. D(H  33,C  18,C  17,C  16)   -179.7041         0.025083   
    172. D(C  13,C  18,C  17,H  32)    179.9124         0.025083   
    173. D(C  13,C  18,C  17,C  16)     -0.0936         0.025083   
    174. D(H  33,C  18,C  13,C  14)    179.8226         0.024365   
    175. D(H  33,C  18,C  13,P   6)     -0.5174         0.024365   
    176. D(C  17,C  18,C  13,C  14)      0.2256         0.024365   
    177. D(C  17,C  18,C  13,P   6)    179.8856         0.024365   
    -----------------------------------------------------------------

Number of atoms                         .... 34
Number of degrees of freedom            .... 177


         *************************************************************
         *                GEOMETRY OPTIMIZATION CYCLE   1            *
         *************************************************************
---------------------------------
CARTESIAN COORDINATES (ANGSTROEM)
---------------------------------
  C     -3.276795   -2.804494    0.137050
  C     -2.559058   -3.016061   -1.035766
  C     -1.603605   -2.083073   -1.448333
  C     -1.344687   -0.923152   -0.695243
  C     -2.082793   -0.728145    0.481428
  C     -3.039520   -1.661283    0.894744
  P     -0.079270    0.231635   -1.317060
  C     -0.289797    1.720163   -0.286615
  C     -1.257197    2.661742   -0.681843
  C     -1.476158    3.827983    0.056728
  C     -0.729325    4.075452    1.204168
  C      0.234401    3.157647    1.611900
  C      0.452701    1.990450    0.872528
  C      1.495972   -0.482656   -0.741067
  C      2.689244    0.050355   -1.263518
  C      3.937120   -0.445009   -0.872072
  C      4.006844   -1.485490    0.048074
  C      2.842338   -2.032408    0.577826
  C      1.595403   -1.533480    0.183820
  Br     5.689846   -2.158381    0.581990
  H     -4.021322   -3.527545    0.459271
  H     -2.741075   -3.905614   -1.633132
  H     -1.056913   -2.274545   -2.370347
  H     -1.928469    0.148729    1.104866
  H     -3.599530   -1.490177    1.810671
  H     -1.857274    2.493210   -1.574672
  H     -2.230021    4.540772   -0.267151
  H     -0.897157    4.981982    1.779494
  H      0.820537    3.346837    2.507701
  H      1.210439    1.298427    1.230291
  H      2.658301    0.866444   -1.984227
  H      4.840784   -0.011328   -1.291697
  H      2.887859   -2.846012    1.297040
  H      0.708176   -1.982977    0.623152

----------------------------
CARTESIAN COORDINATES (A.U.)
----------------------------
  NO LB      ZA    FRAG     MASS         X           Y           Z
   0 C     6.0000    0    12.011   -6.192245   -5.299726    0.258987
   1 C     6.0000    0    12.011   -4.835919   -5.699529   -1.957314
   2 C     6.0000    0    12.011   -3.030374   -3.936437   -2.736953
   3 C     6.0000    0    12.011   -2.541090   -1.744504   -1.313819
   4 C     6.0000    0    12.011   -3.935908   -1.375995    0.909767
   5 C     6.0000    0    12.011   -5.743860   -3.139370    1.690821
   6 P    15.0000    0    30.974   -0.149799    0.437727   -2.488883
   7 C     6.0000    0    12.011   -0.547637    3.250637   -0.541624
   8 C     6.0000    0    12.011   -2.375758    5.029963   -1.288497
   9 C     6.0000    0    12.011   -2.789534    7.233840    0.107200
  10 C     6.0000    0    12.011   -1.378225    7.701488    2.275548
  11 C     6.0000    0    12.011    0.442954    5.967088    3.046050
  12 C     6.0000    0    12.011    0.855481    3.761405    1.648839
  13 C     6.0000    0    12.011    2.826977   -0.912088   -1.400414
  14 C     6.0000    0    12.011    5.081935    0.095157   -2.387703
  15 C     6.0000    0    12.011    7.440079   -0.840945   -1.647977
  16 C     6.0000    0    12.011    7.571838   -2.807169    0.090847
  17 C     6.0000    0    12.011    5.371240   -3.840695    1.091933
  18 C     6.0000    0    12.011    3.014875   -2.897857    0.347369
  19 Br   35.0000    0    79.900   10.752251   -4.078749    1.099802
  20 H     1.0000    0     1.008   -7.599197   -6.666094    0.867896
  21 H     1.0000    0     1.008   -5.179881   -7.380541   -3.086172
  22 H     1.0000    0     1.008   -1.997276   -4.298267   -4.479307
  23 H     1.0000    0     1.008   -3.644278    0.281057    2.087894
  24 H     1.0000    0     1.008   -6.802126   -2.816026    3.421672
  25 H     1.0000    0     1.008   -3.509739    4.711484   -2.975699
  26 H     1.0000    0     1.008   -4.214129    8.580816   -0.504842
  27 H     1.0000    0     1.008   -1.695381    9.414582    3.362756
  28 H     1.0000    0     1.008    1.550590    6.324605    4.738868
  29 H     1.0000    0     1.008    2.287398    2.453671    2.324913
  30 H     1.0000    0     1.008    5.023461    1.637342   -3.749646
  31 H     1.0000    0     1.008    9.147756   -0.021407   -2.440954
  32 H     1.0000    0     1.008    5.457263   -5.378183    2.451050
  33 H     1.0000    0     1.008    1.338259   -3.747283    1.177587

--------------------------------
INTERNAL COORDINATES (ANGSTROEM)
--------------------------------
 C      0   0   0     0.000000000000     0.00000000     0.00000000
 C      1   0   0     1.391188113274     0.00000000     0.00000000
 C      2   1   0     1.397701174372   120.00023975     0.00000000
 C      3   2   1     1.406982517683   121.20527490     0.17361758
 C      4   3   2     1.402634250090   117.82683022   359.63821768
 C      1   2   3     1.391880387742   119.72760549     0.04617633
 P      4   3   2     1.822489939821   117.87334881   179.96870638
 C      7   4   3     1.822595435783   104.14577294   168.64501127
 C      8   7   4     1.406641015051   117.85753990   274.79820507
 C      9   8   7     1.397694212495   121.18493837   180.02553516
 C     10   9   8     1.391265247697   120.00903038     0.10841685
 C     11  10   9     1.391897699159   119.73430406     0.00000000
 C     12  11  10     1.398811881989   120.22702630     0.00000000
 C      7   4   3     1.823010402410   104.11655243   277.29882576
 C     14   7   4     1.407463619248   117.83470451   168.84676336
 C     15  14   7     1.398502761809   121.22911709   180.06890614
 C     16  15  14     1.390730314926   119.66520105     0.13911914
 C     17  16  15     1.391341332766   120.26782951     0.00000000
 C     18  17  16     1.399648802895   119.89034348   359.97673632
 Br    17  16  15     1.889535478614   119.87016109   180.04500306
 H      1   2   3     1.086715038624   120.14864911   179.90459563
 H      2   1   3     1.086867455605   120.09374974   180.08794262
 H      3   2   1     1.088872575577   118.40978879   180.00049258
 H      5   4   3     1.086921730713   121.24001500   180.04851142
 H      6   1   2     1.087111186892   120.00707958   179.84711882
 H      9   8   7     1.088870545195   120.38407203     0.23101589
 H     10   9   8     1.086864843452   119.89511186   180.07706030
 H     11  10   9     1.086721780126   120.13962444   179.94205243
 H     12  11  10     1.087109791234   119.99601688   179.98729989
 H     13  12  11     1.086764497645   117.78424518   180.37688884
 H     15  14   7     1.089210809647   120.34948520     0.29766995
 H     16  15  14     1.086633781585   119.51098536   180.12568950
 H     18  17  16     1.086872765347   120.74061959   179.97067367
 H     19  18  17     1.087304883076   117.76511172   180.29594211

---------------------------
INTERNAL COORDINATES (A.U.)
---------------------------
 C      0   0   0     0.000000000000     0.00000000     0.00000000
 C      1   0   0     2.628964534854     0.00000000     0.00000000
 C      2   1   0     2.641272436624   120.00023975     0.00000000
 C      3   2   1     2.658811633635   121.20527490     0.17361758
 C      4   3   2     2.650594598728   117.82683022   359.63821768
 C      1   2   3     2.630272744009   119.72760549     0.04617633
 P      4   3   2     3.444006868087   117.87334881   179.96870638
 C      7   4   3     3.444206226565   104.14577294   168.64501127
 C      8   7   4     2.658166287188   117.85753990   274.79820507
 C      9   8   7     2.641259280583   121.18493837   180.02553516
 C     10   9   8     2.629110297790   120.00903038     0.10841685
 C     11  10   9     2.630305457846   119.73430406     0.00000000
 C     12  11  10     2.643371369834   120.22702630     0.00000000
 C      7   4   3     3.444990399844   104.11655243   277.29882576
 C     14   7   4     2.659720783836   117.83470451   168.84676336
 C     15  14   7     2.642787217352   121.22911709   180.06890614
 C     16  15  14     2.628099421351   119.66520105     0.13911914
 C     17  16  15     2.629254077733   120.26782951     0.00000000
 C     18  17  16     2.644952921142   119.89034348   359.97673632
 Br    17  16  15     3.570704574908   119.87016109   180.04500306
 H      1   2   3     2.053593808613   120.14864911   179.90459563
 H      2   1   3     2.053881834966   120.09374974   180.08794262
 H      3   2   1     2.057670962578   118.40978879   180.00049258
 H      5   4   3     2.053984400055   121.24001500   180.04851142
 H      6   1   2     2.054342420347   120.00707958   179.84711882
 H      9   8   7     2.057667125713   120.38407203     0.23101589
 H     10   9   8     2.053876898711   119.89511186   180.07706030
 H     11  10   9     2.053606548205   120.13962444   179.94205243
 H     12  11  10     2.054339782937   119.99601688   179.98729989
 H     13  12  11     2.053687272618   117.78424518   180.37688884
 H     15  14   7     2.058310132339   120.34948520     0.29766995
 H     16  15  14     2.053440255063   119.51098536   180.12568950
 H     18  17  16     2.053891868923   120.74061959   179.97067367
 H     19  18  17     2.054708453090   117.76511172   180.29594211

---------------------
BASIS SET INFORMATION
---------------------
There are 4 groups of distinct atoms

 Group   1 Type C   : 7s4p1d contracted to 3s2p1d pattern {511/31/1}
 Group   2 Type P   : 10s7p1d contracted to 4s3p1d pattern {5311/511/1}
 Group   3 Type Br  : 14s10p6d contracted to 5s4p3d pattern {63311/5311/411}
 Group   4 Type H   : 4s1p contracted to 2s1p pattern {31/1}

Atom   0C    basis set group =>   1
Atom   1C    basis set group =>   1
Atom   2C    basis set group =>   1
Atom   3C    basis set group =>   1
Atom   4C    basis set group =>   1
Atom   5C    basis set group =>   1
Atom   6P    basis set group =>   2
Atom   7C    basis set group =>   1
Atom   8C    basis set group =>   1
Atom   9C    basis set group =>   1
Atom  10C    basis set group =>   1
Atom  11C    basis set group =>   1
Atom  12C    basis set group =>   1
Atom  13C    basis set group =>   1
Atom  14C    basis set group =>   1
Atom  15C    basis set group =>   1
Atom  16C    basis set group =>   1
Atom  17C    basis set group =>   1
Atom  18C    basis set group =>   1
Atom  19Br   basis set group =>   3
Atom  20H    basis set group =>   4
Atom  21H    basis set group =>   4
Atom  22H    basis set group =>   4
Atom  23H    basis set group =>   4
Atom  24H    basis set group =>   4
Atom  25H    basis set group =>   4
Atom  26H    basis set group =>   4
Atom  27H    basis set group =>   4
Atom  28H    basis set group =>   4
Atom  29H    basis set group =>   4
Atom  30H    basis set group =>   4
Atom  31H    basis set group =>   4
Atom  32H    basis set group =>   4
Atom  33H    basis set group =>   4
---------------------------------
AUXILIARY/J BASIS SET INFORMATION
---------------------------------
There are 4 groups of distinct atoms

 Group   1 Type C   : 12s5p4d2f1g contracted to 6s4p3d1f1g pattern {711111/2111/211/2/1}
 Group   2 Type P   : 14s5p5d2f1g contracted to 8s4p3d1f1g pattern {71111111/2111/311/2/1}
 Group   3 Type Br  : 19s5p5d3f1g contracted to 8s4p3d2f1g pattern {121111111/2111/311/21/1}
 Group   4 Type H   : 5s2p1d contracted to 3s1p1d pattern {311/2/1}

Atom   0C    basis set group =>   1
Atom   1C    basis set group =>   1
Atom   2C    basis set group =>   1
Atom   3C    basis set group =>   1
Atom   4C    basis set group =>   1
Atom   5C    basis set group =>   1
Atom   6P    basis set group =>   2
Atom   7C    basis set group =>   1
Atom   8C    basis set group =>   1
Atom   9C    basis set group =>   1
Atom  10C    basis set group =>   1
Atom  11C    basis set group =>   1
Atom  12C    basis set group =>   1
Atom  13C    basis set group =>   1
Atom  14C    basis set group =>   1
Atom  15C    basis set group =>   1
Atom  16C    basis set group =>   1
Atom  17C    basis set group =>   1
Atom  18C    basis set group =>   1
Atom  19Br   basis set group =>   3
Atom  20H    basis set group =>   4
Atom  21H    basis set group =>   4
Atom  22H    basis set group =>   4
Atom  23H    basis set group =>   4
Atom  24H    basis set group =>   4
Atom  25H    basis set group =>   4
Atom  26H    basis set group =>   4
Atom  27H    basis set group =>   4
Atom  28H    basis set group =>   4
Atom  29H    basis set group =>   4
Atom  30H    basis set group =>   4
Atom  31H    basis set group =>   4
Atom  32H    basis set group =>   4
Atom  33H    basis set group =>   4


           ************************************************************
           *        Program running with 6 parallel MPI-processes     *
           *              working on a common directory               *
           ************************************************************
------------------------------------------------------------------------------
                             ORCA STARTUP CALCULATIONS
                           -- RI-GTO INTEGRALS CHOSEN --
------------------------------------------------------------------------------
------------------------------------------------------------------------------
                   ___                                                        
                  /   \      - P O W E R E D   B Y -                         
                 /     \                                                     
                 |  |  |   _    _      __       _____    __    __             
                 |  |  |  | |  | |    /  \     |  _  \  |  |  /  |          
                  \  \/   | |  | |   /    \    | | | |  |  | /  /          
                 / \  \   | |__| |  /  /\  \   | |_| |  |  |/  /          
                |  |  |   |  __  | /  /__\  \  |    /   |      \           
                |  |  |   | |  | | |   __   |  |    \   |  |\   \          
                \     /   | |  | | |  |  |  |  | |\  \  |  | \   \       
                 \___/    |_|  |_| |__|  |__|  |_| \__\ |__|  \__/        
                                                                              
                      - O R C A' S   B I G   F R I E N D -                    
                                      &                                       
                       - I N T E G R A L  F E E D E R -                       
                                                                              
 v1 FN, 2020, v2 2021, v3 2022-2024                                           
------------------------------------------------------------------------------


----------------------
SHARK INTEGRAL PACKAGE
----------------------

Number of atoms                             ...     34
Number of basis functions                   ...    372
Number of shells                            ...    170
Maximum angular momentum                    ...      2
Integral batch strategy                     ... SHARK/LIBINT Hybrid
RI-J (if used) integral strategy            ... SPLIT-RIJ (Revised 2003 algorithm where possible)
Printlevel                                  ...      1
Contraction scheme used                     ... SEGMENTED contraction
Prescreening option                         ... SCHWARTZ
   Thresh                                   ... 2.500e-11
   Tcut                                     ... 2.500e-12
   Tpresel                                  ... 2.500e-12 
Coulomb Range Separation                    ... NOT USED
Exchange Range Separation                   ... NOT USED
Multipole approximations                    ... NOT USED
Finite Nucleus Model                        ... NOT USED
CABS basis                                  ... NOT available
Auxiliary Coulomb fitting basis             ... AVAILABLE
   # of basis functions in Aux-J            ...   1145
   # of shells in Aux-J                     ...    375
   Maximum angular momentum in Aux-J        ...      4
Auxiliary J/K fitting basis                 ... NOT available
Auxiliary Correlation fitting basis         ... NOT available
Auxiliary 'external' fitting basis          ... NOT available

Checking pre-screening integrals            ... done (  0.0 sec) Dimension = 170
Check shell pair data                       ... done (  0.0 sec)
Shell pair information
Shell pair cut-off parameter TPreSel        ...   2.5e-12
Total number of shell pairs                 ...     14535
Shell pairs after pre-screening             ...     10808
Total number of primitive shell pairs       ...     56284
Primitive shell pairs kept                  ...     26181
          la=0 lb=0:   3220 shell pairs
          la=1 lb=0:   3986 shell pairs
          la=1 lb=1:   1271 shell pairs
          la=2 lb=0:   1342 shell pairs
          la=2 lb=1:    850 shell pairs
          la=2 lb=2:    139 shell pairs

Calculating one electron integrals          ... done (  0.0 sec)
Calculating RI/J V-Matrix + Cholesky decomp.... done (  0.1 sec)
Calculating Nuclear repulsion               ... done (  0.0 sec) ENN=   1852.671319227431 Eh

Diagonalization of the overlap matrix:
Smallest eigenvalue                        ... 2.644e-04
Time for diagonalization                   ...    0.018 sec
Threshold for overlap eigenvalues          ... 1.000e-07
Number of eigenvalues below threshold      ... 0
Time for construction of square roots      ...    0.009 sec
Total time needed                          ...    0.028 sec

-------------------
DFT GRID GENERATION
-------------------

General Integration Accuracy     IntAcc      ... 4.388
Radial Grid Type                 RadialGrid  ... OptM3 with GC (2021)
Angular Grid (max. ang.)         AngularGrid ... 4 (Lebedev-302)
Angular grid pruning method      GridPruning ... 4 (adaptive)
Weight generation scheme         WeightScheme... mBecke (2022)
Basis function cutoff            BFCut       ... 1.0000e-11
Integration weight cutoff        WCut        ... 1.0000e-14
Partially contracted basis set               ... off
Rotationally invariant grid construction     ... off
Angular grids for H and He will be reduced by one unit
Core-polarized basis detected: some atoms will have their core
                               angular grid increased.

Total number of grid points                  ...   170780
Total number of batches                      ...     2687
Average number of points per batch           ...       63
Average number of grid points per atom       ...     5023
Initializing property integral containers    ... done (  0.0 sec)

SHARK setup successfully completed in   1.3 seconds

Maximum memory used throughout the entire STARTUP-calculation: 54.6 MB


           ************************************************************
           *        Program running with 6 parallel MPI-processes     *
           *              working on a common directory               *
           ************************************************************
-------------------------------------------------------------------------------
                                 ORCA GUESS
                   Start orbitals & Density for SCF / CASSCF
-------------------------------------------------------------------------------

------------
SCF SETTINGS
------------
Hamiltonian:
 Density Functional     Method          .... DFT(GTOs)
 Exchange Functional    Exchange        .... B88
   X-Alpha parameter    XAlpha          ....  0.666667
   Becke's b parameter  XBeta           ....  0.004200
 Correlation Functional Correlation     .... P86
 LDA part of GGA corr.  LDAOpt          .... PW91-LDA
 Gradients option       PostSCFGGA      .... off
   NL short-range parameter             ....  4.400000
 RI-approximation to the Coulomb term is turned on
   Number of AuxJ basis functions       .... 1145


General Settings:
 Integral files         IntName         .... data/geom_opt_P_BP86/69773/69773
 Hartree-Fock type      HFTyp           .... RHF
 Total Charge           Charge          ....    0
 Multiplicity           Mult            ....    1
 Number of Electrons    NEL             ....  172
 Basis Dimension        Dim             ....  372
 Nuclear Repulsion      ENuc            ....   1852.6713192274 Eh

Convergence Acceleration:
 AO-DIIS                CNVDIIS         .... on
   Start iteration      DIISMaxIt       ....    12
   Startup error        DIISStart       ....  0.200000
   # of expansion vecs  DIISMaxEq       ....     5
   Bias factor          DIISBfac        ....   1.050
   Max. coefficient     DIISMaxC        ....  10.000
 MO-DIIS                CNVKDIIS        .... off
 Trust-Rad. Augm. Hess. CNVTRAH         .... auto
   Auto Start mean grad. ratio tolernc. ....  1.125000
   Auto Start start iteration           ....    50
   Auto Start num. interpolation iter.  ....    10
   Max. Number of Micro iterations      ....    24
   Max. Number of Macro iterations      .... Maxiter - #DIIS iter
   Number of Davidson start vectors     ....     2
   Converg. threshold    (grad. norm)   ....   1.000e-05
   Grad. Scal. Fac. for Micro threshold ....   0.100
   Minimum threshold for Micro iter.    ....   1.000e-02
   NR start threshold (gradient norm)   ....   1.000e-04
   Initial trust radius                 ....   0.400
   Minimum AH scaling param. (alpha)    ....   1.000
   Maximum AH scaling param. (alpha)    .... 1000.000
   Quad. conv. algorithm                .... NR
   White noise on init. David. guess    .... on
   Maximum white noise                  ....   0.010
   Pseudo random numbers                .... off
   Inactive MOs                         .... canonical
   Orbital update algorithm             .... Taylor
   Preconditioner                       .... Diag
   Full preconditioner red. dimension   ....   250
 SOSCF                  CNVSOSCF        .... on
   Start iteration      SOSCFMaxIt      ....   150
   Startup grad/error   SOSCFStart      ....  0.003300
   Hessian update       SOSCFHessUp     .... L-BFGS
 Level Shifting         CNVShift        .... on
   Level shift para.    LevelShift      ....    0.2500
   Turn off err/grad.   ShiftErr        ....    0.0010
 Zerner damping         CNVZerner       .... off
 Static damping         CNVDamp         .... on
   Fraction old density DampFac         ....    0.7000
   Max. Damping (<1)    DampMax         ....    0.9800
   Min. Damping (>=0)   DampMin         ....    0.0000
   Turn off err/grad.   DampErr         ....    0.1000

SCF Procedure:
 Maximum # iterations   MaxIter         ....   125
 SCF integral mode      SCFMode         .... Direct
   Integral package                     .... SHARK and LIBINT hybrid scheme
 Reset frequency        DirectResetFreq ....    20
 Integral Threshold     Thresh          ....  2.500e-11 Eh
 Primitive CutOff       TCut            ....  2.500e-12 Eh

Convergence Tolerance:
 Convergence Check Mode ConvCheckMode   .... Total+1el-Energy
 Convergence forced     ConvForced      .... 0
 Energy Change          TolE            ....  1.000e-08 Eh
 1-El. energy change                    ....  1.000e-05 Eh
 Orbital Gradient       TolG            ....  1.000e-05
 Orbital Rotation angle TolX            ....  1.000e-05
 DIIS Error             TolErr          ....  5.000e-07

------------------------------
INITIAL GUESS: MODEL POTENTIAL
------------------------------
Loading Hartree-Fock densities                     ... done
Calculating cut-offs                               ... done
Initializing the effective Hamiltonian             ... done
Setting up the integral package (SHARK)            ... done
Starting the Coulomb interaction                   ... done (   0.1 sec)
Making the grid                                    ... done (   0.3 sec)
Mapping shells                                     ... done
Starting the XC term evaluation                    ... done (   0.1 sec)
  promolecular density results
     # of electrons  =    171.987860782
     EX              =   -209.038412183
     EC              =     -7.033280143
     EX+EC           =   -216.071692327
Transforming the Hamiltonian                       ... done (   0.0 sec)
Diagonalizing the Hamiltonian                      ... done (   0.0 sec)
Back transforming the eigenvectors                 ... done (   0.0 sec)
Now organizing SCF variables                       ... done
                      ------------------
                      INITIAL GUESS DONE (   0.7 sec)
                      ------------------
             **** ENERGY FILE WAS UPDATED (data/geom_opt_P_BP86/69773/69773.en.tmp) ****
Finished Guess after   0.7 sec
Maximum memory used throughout the entire GUESS-calculation: 31.8 MB


           ************************************************************
           *        Program running with 6 parallel MPI-processes     *
           *              working on a common directory               *
           ************************************************************

-------------------------------------------------------------------------------------------
                                      ORCA LEAN-SCF
                              memory conserving SCF solver
-------------------------------------------------------------------------------------------

----------------------------------------D-I-I-S--------------------------------------------
Iteration    Energy (Eh)           Delta-E    RMSDP     MaxDP     DIISErr   Damp  Time(sec)
-------------------------------------------------------------------------------------------
               ***  Starting incremental Fock matrix formation  ***
    1    -3608.9279106819903973     0.00e+00  1.97e-03  5.61e-02  9.85e-02  0.700   1.0
    2    -3609.0809889490055866    -1.53e-01  1.39e-03  5.58e-02  4.93e-02  0.700   0.9
                               ***Turning on AO-DIIS***
    3    -3609.1371974485737155    -5.62e-02  5.96e-04  3.23e-02  1.81e-02  0.700   0.9
    4    -3609.1701131231138788    -3.29e-02  1.10e-03  5.94e-02  8.94e-03  0.000   0.9
    5    -3609.2434505912406166    -7.33e-02  2.25e-04  1.36e-02  4.32e-03  0.000   0.9
                              *** Initializing SOSCF ***
---------------------------------------S-O-S-C-F--------------------------------------
Iteration    Energy (Eh)           Delta-E    RMSDP     MaxDP     MaxGrad    Time(sec)
--------------------------------------------------------------------------------------
    6    -3609.2440496239387357    -5.99e-04  8.03e-05  4.43e-03  7.76e-04     0.9
               *** Restarting incremental Fock matrix formation ***
    7    -3609.2440851555020345    -3.55e-05  6.22e-05  2.39e-03  2.01e-04     1.0
    8    -3609.2440765079245466     8.65e-06  3.00e-05  7.58e-04  5.82e-04     0.8
    9    -3609.2440898845134143    -1.34e-05  2.97e-05  1.61e-03  2.67e-04     0.7
   10    -3609.2440887752818526     1.11e-06  1.54e-05  6.88e-04  2.32e-04     0.8
   11    -3609.2440913069985982    -2.53e-06  9.68e-06  5.57e-04  5.05e-05     0.8
   12    -3609.2440909296619793     3.77e-07  5.97e-06  3.16e-04  9.32e-05     0.8
   13    -3609.2440914568978769    -5.27e-07  2.73e-06  1.35e-04  1.23e-05     0.7
   14    -3609.2440914175776925     3.93e-08  1.68e-06  8.63e-05  3.03e-05     0.8
   15    -3609.2440914780199819    -6.04e-08  5.68e-07  3.17e-05  3.40e-06     0.7
   16    -3609.2440914617509407     1.63e-08  2.53e-07  1.06e-05  3.93e-06     0.7
   17    -3609.2440914603939746     1.36e-09  2.63e-07  1.51e-05  1.20e-06     0.7
                 **** Energy Check signals convergence ****

               *****************************************************
               *                     SUCCESS                       *
               *           SCF CONVERGED AFTER  17 CYCLES          *
               *****************************************************

             **** ENERGY FILE WAS UPDATED (data/geom_opt_P_BP86/69773/69773.en.tmp) ****

----------------
TOTAL SCF ENERGY
----------------

Total Energy       :      -3609.24409146039397 Eh          -98212.52476 eV

Components:
Nuclear Repulsion  :       1852.67131922743101 Eh           50413.74958 eV
Electronic Energy  :      -5461.91541068782499 Eh         -148626.27434 eV
One Electron Energy:      -8676.15945146675767 Eh         -236090.30127 eV
Two Electron Energy:       3214.24404077893223 Eh           87464.02693 eV

Virial components:
Potential Energy   :      -7205.96046619401932 Eh         -196084.15301 eV
Kinetic Energy     :       3596.71637473362534 Eh           97871.62825 eV
Virial Ratio       :          2.00348309831011

DFT components:
N(Alpha)           :       86.000079934773 electrons
N(Beta)            :       86.000079934773 electrons
N(Total)           :      172.000159869547 electrons
E(X)               :     -210.618382102652 Eh       
E(C)               :       -7.038527485008 Eh       
E(XC)              :     -217.656909587660 Eh       

---------------
SCF CONVERGENCE
---------------

  Last Energy change         ...   -1.3570e-09  Tolerance :   1.0000e-08
  Last MAX-Density change    ...    1.5064e-05  Tolerance :   1.0000e-07
  Last RMS-Density change    ...    2.6319e-07  Tolerance :   5.0000e-09
  Last DIIS Error            ...    7.7648e-04  Tolerance :   5.0000e-07
  Last Orbital Gradient      ...    1.2017e-06  Tolerance :   1.0000e-05
  Last Orbital Rotation      ...    3.1622e-06  Tolerance :   1.0000e-05


----------------
ORBITAL ENERGIES
----------------

  NO   OCC          E(Eh)            E(eV) 
   0   2.0000    -481.078188    -13090.8030 
   1   2.0000     -76.346775     -2077.5014 
   2   2.0000     -61.806854     -1681.8500 
   3   2.0000     -55.736800     -1516.6754 
   4   2.0000     -55.734030     -1516.6001 
   5   2.0000     -55.733957     -1516.5981 
   6   2.0000      -9.970323      -271.3063 
   7   2.0000      -9.932367      -270.2734 
   8   2.0000      -9.932039      -270.2645 
   9   2.0000      -9.931808      -270.2582 
  10   2.0000      -9.931272      -270.2436 
  11   2.0000      -9.930479      -270.2221 
  12   2.0000      -9.928487      -270.1679 
  13   2.0000      -9.928413      -270.1658 
  14   2.0000      -9.924654      -270.0636 
  15   2.0000      -9.924561      -270.0610 
  16   2.0000      -9.923192      -270.0238 
  17   2.0000      -9.922868      -270.0150 
  18   2.0000      -9.922162      -269.9958 
  19   2.0000      -9.922159      -269.9957 
  20   2.0000      -9.921843      -269.9871 
  21   2.0000      -9.921730      -269.9840 
  22   2.0000      -9.921636      -269.9814 
  23   2.0000      -9.921525      -269.9784 
  24   2.0000      -8.411486      -228.8882 
  25   2.0000      -6.316211      -171.8728 
  26   2.0000      -6.293867      -171.2648 
  27   2.0000      -6.280124      -170.8909 
  28   2.0000      -6.279521      -170.8744 
  29   2.0000      -4.537594      -123.4742 
  30   2.0000      -4.537547      -123.4729 
  31   2.0000      -4.533857      -123.3725 
  32   2.0000      -2.496262       -67.9267 
  33   2.0000      -2.492858       -67.8341 
  34   2.0000      -2.492468       -67.8235 
  35   2.0000      -2.482109       -67.5416 
  36   2.0000      -2.482096       -67.5413 
  37   2.0000      -0.800617       -21.7859 
  38   2.0000      -0.783626       -21.3235 
  39   2.0000      -0.778484       -21.1836 
  40   2.0000      -0.742893       -20.2151 
  41   2.0000      -0.700451       -19.0602 
  42   2.0000      -0.685852       -18.6630 
  43   2.0000      -0.677008       -18.4223 
  44   2.0000      -0.676142       -18.3988 
  45   2.0000      -0.673871       -18.3370 
  46   2.0000      -0.662151       -18.0180 
  47   2.0000      -0.590319       -16.0634 
  48   2.0000      -0.561092       -15.2681 
  49   2.0000      -0.549836       -14.9618 
  50   2.0000      -0.548785       -14.9332 
  51   2.0000      -0.540929       -14.7194 
  52   2.0000      -0.539244       -14.6736 
  53   2.0000      -0.510777       -13.8990 
  54   2.0000      -0.473545       -12.8858 
  55   2.0000      -0.471104       -12.8194 
  56   2.0000      -0.443637       -12.0720 
  57   2.0000      -0.429186       -11.6788 
  58   2.0000      -0.414911       -11.2903 
  59   2.0000      -0.414088       -11.2679 
  60   2.0000      -0.409924       -11.1546 
  61   2.0000      -0.406082       -11.0501 
  62   2.0000      -0.400156       -10.8888 
  63   2.0000      -0.388988       -10.5849 
  64   2.0000      -0.380792       -10.3619 
  65   2.0000      -0.380368       -10.3503 
  66   2.0000      -0.372920       -10.1477 
  67   2.0000      -0.372620       -10.1395 
  68   2.0000      -0.354794        -9.6544 
  69   2.0000      -0.340028        -9.2526 
  70   2.0000      -0.338975        -9.2240 
  71   2.0000      -0.331961        -9.0331 
  72   2.0000      -0.321984        -8.7616 
  73   2.0000      -0.311288        -8.4706 
  74   2.0000      -0.310042        -8.4367 
  75   2.0000      -0.298821        -8.1313 
  76   2.0000      -0.296509        -8.0684 
  77   2.0000      -0.286173        -7.7872 
  78   2.0000      -0.256327        -6.9750 
  79   2.0000      -0.251990        -6.8570 
  80   2.0000      -0.246608        -6.7105 
  81   2.0000      -0.242789        -6.6066 
  82   2.0000      -0.237601        -6.4654 
  83   2.0000      -0.236321        -6.4306 
  84   2.0000      -0.228025        -6.2049 
  85   2.0000      -0.189718        -5.1625 
  86   0.0000      -0.065993        -1.7958 
  87   0.0000      -0.062253        -1.6940 
  88   0.0000      -0.060885        -1.6568 
  89   0.0000      -0.047053        -1.2804 
  90   0.0000      -0.045464        -1.2371 
  91   0.0000      -0.042651        -1.1606 
  92   0.0000      -0.026510        -0.7214 
  93   0.0000       0.029024         0.7898 
  94   0.0000       0.033787         0.9194 
  95   0.0000       0.046234         1.2581 
  96   0.0000       0.056840         1.5467 
*Only the first 10 virtual orbitals were printed.

                    ********************************
                    * MULLIKEN POPULATION ANALYSIS *
                    ********************************

-----------------------
MULLIKEN ATOMIC CHARGES
-----------------------
   0 C :    0.010223
   1 C :    0.009653
   2 C :    0.009329
   3 C :   -0.129058
   4 C :   -0.000744
   5 C :    0.013281
   6 P :    0.288467
   7 C :   -0.128200
   8 C :    0.012023
   9 C :    0.009624
  10 C :    0.010367
  11 C :    0.013019
  12 C :    0.000763
  13 C :   -0.122344
  14 C :    0.009126
  15 C :    0.018115
  16 C :   -0.019086
  17 C :    0.024406
  18 C :   -0.003893
  19 Br:   -0.033232
  20 H :   -0.002591
  21 H :   -0.001551
  22 H :   -0.002170
  23 H :    0.006382
  24 H :   -0.004330
  25 H :   -0.002154
  26 H :   -0.001694
  27 H :   -0.002441
  28 H :   -0.003751
  29 H :    0.004524
  30 H :    0.004669
  31 H :    0.001019
  32 H :   -0.001483
  33 H :    0.013735
Sum of atomic charges:   -0.0000000

--------------------------------
MULLIKEN REDUCED ORBITAL CHARGES
--------------------------------
  0 C s       :     3.168960  s :     3.168960
      pz      :     0.954785  p :     2.787656
      px      :     0.914103
      py      :     0.918769
      dz2     :     0.008074  d :     0.033160
      dxz     :     0.005842
      dyz     :     0.008008
      dx2y2   :     0.004523
      dxy     :     0.006713

  1 C s       :     3.168937  s :     3.168937
      pz      :     0.932036  p :     2.788522
      px      :     0.972629
      py      :     0.883857
      dz2     :     0.006676  d :     0.032887
      dxz     :     0.006330
      dyz     :     0.008192
      dx2y2   :     0.006501
      dxy     :     0.005189

  2 C s       :     3.220127  s :     3.220127
      pz      :     0.883772  p :     2.738021
      px      :     0.914780
      py      :     0.939470
      dz2     :     0.006041  d :     0.032523
      dxz     :     0.005817
      dyz     :     0.006877
      dx2y2   :     0.007059
      dxy     :     0.006729

  3 C s       :     3.075194  s :     3.075194
      pz      :     0.996466  p :     3.018935
      px      :     1.011435
      py      :     1.011035
      dz2     :     0.008187  d :     0.034929
      dxz     :     0.006655
      dyz     :     0.008699
      dx2y2   :     0.004913
      dxy     :     0.006475

  4 C s       :     3.234859  s :     3.234859
      pz      :     0.927864  p :     2.733229
      px      :     0.944941
      py      :     0.860425
      dz2     :     0.006561  d :     0.032656
      dxz     :     0.006176
      dyz     :     0.008205
      dx2y2   :     0.006562
      dxy     :     0.005153

  5 C s       :     3.168591  s :     3.168591
      pz      :     0.875547  p :     2.785242
      px      :     0.944672
      py      :     0.965022
      dz2     :     0.006256  d :     0.032887
      dxz     :     0.005832
      dyz     :     0.006866
      dx2y2   :     0.007254
      dxy     :     0.006679

  6 P s       :     5.654796  s :     5.654796
      pz      :     3.329927  p :     8.880850
      px      :     2.766960
      py      :     2.783963
      dz2     :     0.017367  d :     0.175888
      dxz     :     0.029447
      dyz     :     0.039034
      dx2y2   :     0.040921
      dxy     :     0.049119

  7 C s       :     3.075271  s :     3.075271
      pz      :     0.989618  p :     3.017995
      px      :     1.026417
      py      :     1.001960
      dz2     :     0.007997  d :     0.034934
      dxz     :     0.005966
      dyz     :     0.008374
      dx2y2   :     0.006872
      dxy     :     0.005725

  8 C s       :     3.219407  s :     3.219407
      pz      :     0.878143  p :     2.736040
      px      :     0.933889
      py      :     0.924007
      dz2     :     0.005727  d :     0.032531
      dxz     :     0.005933
      dyz     :     0.006752
      dx2y2   :     0.007333
      dxy     :     0.006786

  9 C s       :     3.168918  s :     3.168918
      pz      :     0.958534  p :     2.788588
      px      :     0.914839
      py      :     0.915215
      dz2     :     0.007795  d :     0.032870
      dxz     :     0.005647
      dyz     :     0.007829
      dx2y2   :     0.004720
      dxy     :     0.006880

 10 C s       :     3.168998  s :     3.168998
      pz      :     0.931304  p :     2.787476
      px      :     0.971874
      py      :     0.884298
      dz2     :     0.006534  d :     0.033160
      dxz     :     0.006283
      dyz     :     0.007984
      dx2y2   :     0.006921
      dxy     :     0.005438

 11 C s       :     3.168860  s :     3.168860
      pz      :     0.882884  p :     2.785246
      px      :     0.934565
      py      :     0.967797
      dz2     :     0.005899  d :     0.032876
      dxz     :     0.005912
      dyz     :     0.006787
      dx2y2   :     0.007268
      dxy     :     0.007010

 12 C s       :     3.233727  s :     3.233727
      pz      :     0.933645  p :     2.732828
      px      :     0.921320
      py      :     0.877863
      dz2     :     0.007562  d :     0.032682
      dxz     :     0.005652
      dyz     :     0.007936
      dx2y2   :     0.004729
      dxy     :     0.006803

 13 C s       :     3.070004  s :     3.070004
      pz      :     0.997400  p :     3.017511
      px      :     1.000467
      py      :     1.019644
      dz2     :     0.006261  d :     0.034830
      dxz     :     0.008170
      dyz     :     0.004964
      dx2y2   :     0.007699
      dxy     :     0.007736

 14 C s       :     3.223517  s :     3.223517
      pz      :     0.917991  p :     2.734675
      px      :     0.914737
      py      :     0.901947
      dz2     :     0.003707  d :     0.032683
      dxz     :     0.007819
      dyz     :     0.004276
      dx2y2   :     0.008768
      dxy     :     0.008113

 15 C s       :     3.224018  s :     3.224018
      pz      :     0.954429  p :     2.725631
      px      :     0.820490
      py      :     0.950712
      dz2     :     0.005508  d :     0.032236
      dxz     :     0.006658
      dyz     :     0.004769
      dx2y2   :     0.007904
      dxy     :     0.007396

 16 C s       :     3.002644  s :     3.002644
      pz      :     1.029706  p :     2.972076
      px      :     0.917126
      py      :     1.025243
      dz2     :     0.007503  d :     0.044367
      dxz     :     0.009823
      dyz     :     0.005386
      dx2y2   :     0.010730
      dxy     :     0.010924

 17 C s       :     3.224300  s :     3.224300
      pz      :     0.913369  p :     2.719037
      px      :     0.911736
      py      :     0.893932
      dz2     :     0.003806  d :     0.032257
      dxz     :     0.007772
      dyz     :     0.004051
      dx2y2   :     0.008297
      dxy     :     0.008332

 18 C s       :     3.239511  s :     3.239511
      pz      :     0.941852  p :     2.731558
      px      :     0.832221
      py      :     0.957486
      dz2     :     0.005236  d :     0.032825
      dxz     :     0.007341
      dyz     :     0.004396
      dx2y2   :     0.007417
      dxy     :     0.008435

 19 Brs       :     7.962105  s :     7.962105
      pz      :     5.875123  p :    17.025589
      px      :     5.308158
      py      :     5.842307
      dz2     :     2.005989  d :    10.045539
      dxz     :     2.012047
      dyz     :     2.002248
      dx2y2   :     2.011982
      dxy     :     2.013273

 20 H s       :     0.980226  s :     0.980226
      pz      :     0.004931  p :     0.022365
      px      :     0.009022
      py      :     0.008412

 21 H s       :     0.979156  s :     0.979156
      pz      :     0.007092  p :     0.022395
      px      :     0.004629
      py      :     0.010674

 22 H s       :     0.979679  s :     0.979679
      pz      :     0.011265  p :     0.022491
      px      :     0.007000
      py      :     0.004226

 23 H s       :     0.970438  s :     0.970438
      pz      :     0.007203  p :     0.023179
      px      :     0.004703
      py      :     0.011273

 24 H s       :     0.981984  s :     0.981984
      pz      :     0.011092  p :     0.022345
      px      :     0.006995
      py      :     0.004259

 25 H s       :     0.979661  s :     0.979661
      pz      :     0.010945  p :     0.022493
      px      :     0.007194
      py      :     0.004354

 26 H s       :     0.979301  s :     0.979301
      pz      :     0.005013  p :     0.022394
      px      :     0.009106
      py      :     0.008275

 27 H s       :     0.980079  s :     0.980079
      pz      :     0.006877  p :     0.022362
      px      :     0.004555
      py      :     0.010929

 28 H s       :     0.981400  s :     0.981400
      pz      :     0.010838  p :     0.022350
      px      :     0.007219
      py      :     0.004294

 29 H s       :     0.972332  s :     0.972332
      pz      :     0.005102  p :     0.023143
      px      :     0.009397
      py      :     0.008644

 30 H s       :     0.972781  s :     0.972781
      pz      :     0.008867  p :     0.022550
      px      :     0.003730
      py      :     0.009953

 31 H s       :     0.976321  s :     0.976321
      pz      :     0.005882  p :     0.022661
      px      :     0.011008
      py      :     0.005771

 32 H s       :     0.978872  s :     0.978872
      pz      :     0.008912  p :     0.022611
      px      :     0.003641
      py      :     0.010058

 33 H s       :     0.963016  s :     0.963016
      pz      :     0.005939  p :     0.023248
      px      :     0.011428
      py      :     0.005881



                     *******************************
                     * LOEWDIN POPULATION ANALYSIS *
                     *******************************

----------------------
LOEWDIN ATOMIC CHARGES
----------------------
   0 C :   -0.025799
   1 C :   -0.027913
   2 C :   -0.028525
   3 C :   -0.178226
   4 C :   -0.031941
   5 C :   -0.027555
   6 P :    0.510399
   7 C :   -0.177666
   8 C :   -0.027611
   9 C :   -0.027801
  10 C :   -0.025327
  11 C :   -0.027472
  12 C :   -0.031979
  13 C :   -0.178067
  14 C :   -0.021014
  15 C :   -0.039951
  16 C :   -0.123537
  17 C :   -0.039918
  18 C :   -0.025547
  19 Br:    0.106976
  20 H :    0.030555
  21 H :    0.031857
  22 H :    0.028926
  23 H :    0.031601
  24 H :    0.031089
  25 H :    0.029022
  26 H :    0.031784
  27 H :    0.030622
  28 H :    0.031280
  29 H :    0.030872
  30 H :    0.033275
  31 H :    0.036304
  32 H :    0.035579
  33 H :    0.035708

-------------------------------
LOEWDIN REDUCED ORBITAL CHARGES
-------------------------------
  0 C s       :     2.863228  s :     2.863228
      pz      :     1.038696  p :     3.072727
      px      :     1.002827
      py      :     1.031204
      dz2     :     0.021210  d :     0.089844
      dxz     :     0.016363
      dyz     :     0.023128
      dx2y2   :     0.011903
      dxy     :     0.017240

  1 C s       :     2.863702  s :     2.863702
      pz      :     1.033774  p :     3.075061
      px      :     1.017176
      py      :     1.024112
      dz2     :     0.017922  d :     0.089149
      dxz     :     0.018302
      dyz     :     0.021921
      dx2y2   :     0.016006
      dxy     :     0.014998

  2 C s       :     2.869365  s :     2.869365
      pz      :     1.022097  p :     3.070219
      px      :     1.007935
      py      :     1.040187
      dz2     :     0.016280  d :     0.088941
      dxz     :     0.015260
      dyz     :     0.019663
      dx2y2   :     0.018083
      dxy     :     0.019654

  3 C s       :     2.914588  s :     2.914588
      pz      :     1.068392  p :     3.172533
      px      :     1.047679
      py      :     1.056462
      dz2     :     0.020403  d :     0.091105
      dxz     :     0.018430
      dyz     :     0.024147
      dx2y2   :     0.012502
      dxy     :     0.015624

  4 C s       :     2.868392  s :     2.868392
      pz      :     1.025075  p :     3.074156
      px      :     1.017925
      py      :     1.031156
      dz2     :     0.017636  d :     0.089393
      dxz     :     0.018517
      dyz     :     0.022133
      dx2y2   :     0.016252
      dxy     :     0.014856

  5 C s       :     2.864325  s :     2.864325
      pz      :     1.021124  p :     3.074101
      px      :     1.009249
      py      :     1.043728
      dz2     :     0.016326  d :     0.089129
      dxz     :     0.015058
      dyz     :     0.019952
      dx2y2   :     0.018586
      dxy     :     0.019207

  6 P s       :     5.234571  s :     5.234571
      pz      :     3.389836  p :     9.010226
      px      :     2.801331
      py      :     2.819059
      dz2     :     0.024643  d :     0.244803
      dxz     :     0.038655
      dyz     :     0.054088
      dx2y2   :     0.057398
      dxy     :     0.070019

  7 C s       :     2.914493  s :     2.914493
      pz      :     1.063541  p :     3.172020
      px      :     1.044805
      py      :     1.063675
      dz2     :     0.019987  d :     0.091153
      dxz     :     0.017162
      dyz     :     0.021820
      dx2y2   :     0.016142
      dxy     :     0.016044

  8 C s       :     2.869448  s :     2.869448
      pz      :     1.021269  p :     3.069203
      px      :     1.008546
      py      :     1.039388
      dz2     :     0.015294  d :     0.088960
      dxz     :     0.015429
      dyz     :     0.019270
      dx2y2   :     0.019227
      dxy     :     0.019740

  9 C s       :     2.863721  s :     2.863721
      pz      :     1.035826  p :     3.074976
      px      :     1.007065
      py      :     1.032085
      dz2     :     0.020152  d :     0.089104
      dxz     :     0.015900
      dyz     :     0.022718
      dx2y2   :     0.012656
      dxy     :     0.017679

 10 C s       :     2.863269  s :     2.863269
      pz      :     1.028767  p :     3.072226
      px      :     1.018254
      py      :     1.025205
      dz2     :     0.017260  d :     0.089832
      dxz     :     0.018266
      dyz     :     0.021347
      dx2y2   :     0.017251
      dxy     :     0.015708

 11 C s       :     2.864335  s :     2.864335
      pz      :     1.018309  p :     3.074035
      px      :     1.012259
      py      :     1.043466
      dz2     :     0.015255  d :     0.089101
      dxz     :     0.015387
      dyz     :     0.019584
      dx2y2   :     0.018919
      dxy     :     0.019956

 12 C s       :     2.868478  s :     2.868478
      pz      :     1.025996  p :     3.074036
      px      :     1.012340
      py      :     1.035701
      dz2     :     0.019795  d :     0.089465
      dxz     :     0.015820
      dyz     :     0.023632
      dx2y2   :     0.012674
      dxy     :     0.017543

 13 C s       :     2.914662  s :     2.914662
      pz      :     1.038317  p :     3.172602
      px      :     1.080455
      py      :     1.053830
      dz2     :     0.013717  d :     0.090802
      dxz     :     0.020900
      dyz     :     0.014770
      dx2y2   :     0.020655
      dxy     :     0.020761

 14 C s       :     2.869352  s :     2.869352
      pz      :     0.996897  p :     3.062623
      px      :     1.060650
      py      :     1.005077
      dz2     :     0.009340  d :     0.089039
      dxz     :     0.020677
      dyz     :     0.010752
      dx2y2   :     0.025892
      dxy     :     0.022377

 15 C s       :     2.867273  s :     2.867273
      pz      :     1.009891  p :     3.084005
      px      :     1.055204
      py      :     1.018910
      dz2     :     0.013109  d :     0.088673
      dxz     :     0.017959
      dyz     :     0.014432
      dx2y2   :     0.022380
      dxy     :     0.020793

 16 C s       :     2.910078  s :     2.910078
      pz      :     1.055757  p :     3.104596
      px      :     0.989852
      py      :     1.058987
      dz2     :     0.016616  d :     0.108863
      dxz     :     0.023511
      dyz     :     0.014979
      dx2y2   :     0.027108
      dxy     :     0.026649

 17 C s       :     2.867898  s :     2.867898
      pz      :     1.006936  p :     3.083317
      px      :     1.062208
      py      :     1.014173
      dz2     :     0.009492  d :     0.088704
      dxz     :     0.020907
      dyz     :     0.010314
      dx2y2   :     0.024684
      dxy     :     0.023306

 18 C s       :     2.868624  s :     2.868624
      pz      :     0.996761  p :     3.067387
      px      :     1.049138
      py      :     1.021488
      dz2     :     0.012474  d :     0.089537
      dxz     :     0.019670
      dyz     :     0.013108
      dx2y2   :     0.020939
      dxy     :     0.023345

 19 Brs       :     7.802324  s :     7.802324
      pz      :     5.859079  p :    17.026174
      px      :     5.338955
      py      :     5.828141
      dz2     :     2.008534  d :    10.064525
      dxz     :     2.016490
      dyz     :     2.002889
      dx2y2   :     2.017551
      dxy     :     2.019060

 20 H s       :     0.901266  s :     0.901266
      pz      :     0.015135  p :     0.068178
      px      :     0.027293
      py      :     0.025751

 21 H s       :     0.900034  s :     0.900034
      pz      :     0.021587  p :     0.068109
      px      :     0.013928
      py      :     0.032594

 22 H s       :     0.902138  s :     0.902138
      pz      :     0.034660  p :     0.068936
      px      :     0.021290
      py      :     0.012986

 23 H s       :     0.897902  s :     0.897902
      pz      :     0.022495  p :     0.070497
      px      :     0.014146
      py      :     0.033857

 24 H s       :     0.900769  s :     0.900769
      pz      :     0.033886  p :     0.068142
      px      :     0.021133
      py      :     0.013123

 25 H s       :     0.902050  s :     0.902050
      pz      :     0.033415  p :     0.068928
      px      :     0.022381
      py      :     0.013133

 26 H s       :     0.900107  s :     0.900107
      pz      :     0.015220  p :     0.068109
      px      :     0.027572
      py      :     0.025317

 27 H s       :     0.901208  s :     0.901208
      pz      :     0.020986  p :     0.068169
[...]
      px      :     1.014175
      py      :     1.038032
      dz2     :     0.014811  d :     0.086223
      dxz     :     0.015812
      dyz     :     0.018376
      dx2y2   :     0.018068
      dxy     :     0.019156

 12 C s       :     2.876334  s :     2.876334
      pz      :     1.028509  p :     3.072715
      px      :     1.014947
      py      :     1.029260
      dz2     :     0.020116  d :     0.087033
      dxz     :     0.016140
      dyz     :     0.021773
      dx2y2   :     0.011929
      dxy     :     0.017075

 13 C s       :     2.923093  s :     2.923093
      pz      :     1.037422  p :     3.163731
      px      :     1.078011
      py      :     1.048298
      dz2     :     0.013496  d :     0.087892
      dxz     :     0.020145
      dyz     :     0.014305
      dx2y2   :     0.019950
      dxy     :     0.019996

 14 C s       :     2.875513  s :     2.875513
      pz      :     0.999059  p :     3.063054
      px      :     1.061619
      py      :     1.002376
      dz2     :     0.009687  d :     0.087640
      dxz     :     0.020846
      dyz     :     0.010486
      dx2y2   :     0.024929
      dxy     :     0.021691

 15 C s       :     2.875637  s :     2.875637
      pz      :     1.010845  p :     3.080375
      px      :     1.053359
      py      :     1.016171
      dz2     :     0.013476  d :     0.085933
      dxz     :     0.017265
      dyz     :     0.014348
      dx2y2   :     0.021814
      dxy     :     0.019030

 16 C s       :     2.921522  s :     2.921522
      pz      :     1.049904  p :     3.091864
      px      :     0.987156
      py      :     1.054804
      dz2     :     0.015900  d :     0.103316
      dxz     :     0.022691
      dyz     :     0.014349
      dx2y2   :     0.025412
      dxy     :     0.024964

 17 C s       :     2.875841  s :     2.875841
      pz      :     1.007776  p :     3.079859
      px      :     1.059042
      py      :     1.013041
      dz2     :     0.009487  d :     0.086108
      dxz     :     0.020415
      dyz     :     0.009943
      dx2y2   :     0.023678
      dxy     :     0.022585

 18 C s       :     2.875603  s :     2.875603
      pz      :     0.999383  p :     3.064624
      px      :     1.047334
      py      :     1.017906
      dz2     :     0.012984  d :     0.087526
      dxz     :     0.019082
      dyz     :     0.013198
      dx2y2   :     0.020574
      dxy     :     0.021688

 19 Brs       :     7.810532  s :     7.810532
      pz      :     5.840756  p :    17.031200
      px      :     5.359204
      py      :     5.831239
      dz2     :     2.007979  d :    10.061550
      dxz     :     2.016931
      dyz     :     2.003127
      dx2y2   :     2.015785
      dxy     :     2.017729

 20 H s       :     0.900317  s :     0.900317
      pz      :     0.015096  p :     0.065950
      px      :     0.025781
      py      :     0.025073

 21 H s       :     0.899597  s :     0.899597
      pz      :     0.019988  p :     0.065864
      px      :     0.013426
      py      :     0.032450

 22 H s       :     0.901675  s :     0.901675
      pz      :     0.035051  p :     0.066672
      px      :     0.019622
      py      :     0.012000

 23 H s       :     0.894858  s :     0.894858
      pz      :     0.020123  p :     0.069173
      px      :     0.014105
      py      :     0.034946

 24 H s       :     0.900080  s :     0.900080
      pz      :     0.034195  p :     0.065880
      px      :     0.019337
      py      :     0.012348

 25 H s       :     0.901697  s :     0.901697
      pz      :     0.032854  p :     0.066668
      px      :     0.021413
      py      :     0.012401

 26 H s       :     0.899699  s :     0.899699
      pz      :     0.013619  p :     0.065853
      px      :     0.027701
      py      :     0.024533

 27 H s       :     0.900338  s :     0.900338
      pz      :     0.021579  p :     0.065951
      px      :     0.012965
      py      :     0.031407

 28 H s       :     0.899870  s :     0.899870
      pz      :     0.032021  p :     0.065896
      px      :     0.021571
      py      :     0.012305

 29 H s       :     0.895965  s :     0.895965
      pz      :     0.013596  p :     0.069016
      px      :     0.028643
      py      :     0.026777

 30 H s       :     0.897610  s :     0.897610
      pz      :     0.026929  p :     0.066686
      px      :     0.010498
      py      :     0.029260

 31 H s       :     0.893414  s :     0.893414
      pz      :     0.016049  p :     0.067165
      px      :     0.034566
      py      :     0.016550

 32 H s       :     0.893822  s :     0.893822
      pz      :     0.027137  p :     0.067188
      px      :     0.010296
      py      :     0.029755

 33 H s       :     0.890956  s :     0.890956
      pz      :     0.016190  p :     0.069300
      px      :     0.036469
      py      :     0.016641



                      *****************************
                      * MAYER POPULATION ANALYSIS *
                      *****************************

  NA   - Mulliken gross atomic population
  ZA   - Total nuclear charge
  QA   - Mulliken gross atomic charge
  VA   - Mayer's total valence
  BVA  - Mayer's bonded valence
  FA   - Mayer's free valence

  ATOM       NA         ZA         QA         VA         BVA        FA
  0 C      5.9962     6.0000     0.0038     3.8252     3.8252    -0.0000
  1 C      6.0005     6.0000    -0.0005     3.8581     3.8581    -0.0000
  2 C      5.9854     6.0000     0.0146     3.8647     3.8647    -0.0000
  3 C      6.1661     6.0000    -0.1661     3.8424     3.8424    -0.0000
  4 C      5.9939     6.0000     0.0061     3.8791     3.8791    -0.0000
  5 C      5.9961     6.0000     0.0039     3.8352     3.8352    -0.0000
  6 P     14.6934    15.0000     0.3066     2.9864     2.9864    -0.0000
  7 C      6.1631     6.0000    -0.1631     3.8438     3.8438    -0.0000
  8 C      5.9841     6.0000     0.0159     3.8654     3.8654    -0.0000
  9 C      6.0003     6.0000    -0.0003     3.8581     3.8581    -0.0000
 10 C      5.9964     6.0000     0.0036     3.8257     3.8257    -0.0000
 11 C      5.9961     6.0000     0.0039     3.8367     3.8367    -0.0000
 12 C      5.9945     6.0000     0.0055     3.8796     3.8796    -0.0000
 13 C      6.1501     6.0000    -0.1501     3.8112     3.8112    -0.0000
 14 C      5.9935     6.0000     0.0065     3.8821     3.8821    -0.0000
 15 C      5.9788     6.0000     0.0212     3.8921     3.8921    -0.0000
 16 C      6.0378     6.0000    -0.0378     3.8657     3.8657    -0.0000
 17 C      5.9727     6.0000     0.0273     3.8669     3.8669    -0.0000
 18 C      6.0019     6.0000    -0.0019     3.8952     3.8952    -0.0000
 19 Br    35.0380    35.0000    -0.0380     1.1364     1.1364    -0.0000
 20 H      0.9933     1.0000     0.0067     0.9789     0.9789    -0.0000
 21 H      0.9929     1.0000     0.0071     0.9791     0.9791    -0.0000
 22 H      0.9943     1.0000     0.0057     0.9903     0.9903    -0.0000
 23 H      0.9815     1.0000     0.0185     0.9908     0.9908    -0.0000
 24 H      0.9954     1.0000     0.0046     0.9789     0.9789     0.0000
 25 H      0.9943     1.0000     0.0057     0.9902     0.9902    -0.0000
 26 H      0.9931     1.0000     0.0069     0.9791     0.9791     0.0000
 27 H      0.9933     1.0000     0.0067     0.9789     0.9789    -0.0000
 28 H      0.9950     1.0000     0.0050     0.9789     0.9789    -0.0000
 29 H      0.9835     1.0000     0.0165     0.9898     0.9898    -0.0000
 30 H      0.9877     1.0000     0.0123     0.9912     0.9912    -0.0000
 31 H      0.9900     1.0000     0.0100     0.9958     0.9958    -0.0000
 32 H      0.9922     1.0000     0.0078     0.9956     0.9956    -0.0000
 33 H      0.9748     1.0000     0.0252     0.9918     0.9918    -0.0000

  Mayer bond orders larger than 0.100000
B(  0-C ,  1-C ) :   1.3747 B(  0-C ,  5-C ) :   1.3792 B(  0-C , 20-H ) :   0.9758 
B(  1-C ,  2-C ) :   1.4040 B(  1-C , 21-H ) :   0.9759 B(  2-C ,  3-C ) :   1.3608 
B(  2-C , 22-H ) :   0.9718 B(  3-C ,  4-C ) :   1.3822 B(  3-C ,  6-P ) :   0.9359 
B(  4-C ,  5-C ) :   1.3818 B(  4-C , 23-H ) :   0.9670 B(  5-C , 24-H ) :   0.9749 
B(  6-P ,  7-C ) :   0.9367 B(  6-P , 13-C ) :   0.9329 B(  7-C ,  8-C ) :   1.3616 
B(  7-C , 12-C ) :   1.3818 B(  8-C ,  9-C ) :   1.4044 B(  8-C , 25-H ) :   0.9715 
B(  9-C , 10-C ) :   1.3745 B(  9-C , 26-H ) :   0.9758 B( 10-C , 11-C ) :   1.3795 
B( 10-C , 27-H ) :   0.9758 B( 11-C , 12-C ) :   1.3826 B( 11-C , 28-H ) :   0.9748 
B( 12-C , 29-H ) :   0.9669 B( 13-C , 14-C ) :   1.3517 B( 13-C , 18-C ) :   1.3755 
B( 14-C , 15-C ) :   1.4058 B( 14-C , 30-H ) :   0.9690 B( 15-C , 16-C ) :   1.3757 
B( 15-C , 31-H ) :   0.9750 B( 16-C , 17-C ) :   1.3795 B( 16-C , 19-Br) :   0.9890 
B( 17-C , 18-C ) :   1.3816 B( 17-C , 32-H ) :   0.9745 B( 18-C , 33-H ) :   0.9639 


-------
TIMINGS
-------

Total SCF time: 0 days 0 hours 0 min 5 sec 

Total time                  ....       5.966 sec
Sum of individual times     ....       5.882 sec  ( 98.6%)

SCF preparation             ....       0.115 sec  (  1.9%)
Fock matrix formation       ....       5.270 sec  ( 88.3%)
  Startup                   ....       0.025 sec  (  0.5% of F)
  Split-RI-J                ....       1.855 sec  ( 35.2% of F)
  XC integration            ....       3.289 sec  ( 62.4% of F)
    Basis function eval.    ....       0.998 sec  ( 30.3% of XC)
    Density eval.           ....       1.043 sec  ( 31.7% of XC)
    XC-Functional eval.     ....       0.096 sec  (  2.9% of XC)
    XC-Potential eval.      ....       0.681 sec  ( 20.7% of XC)
Diagonalization             ....       0.000 sec  (  0.0%)
Density matrix formation    ....       0.064 sec  (  1.1%)
Total Energy calculation    ....       0.025 sec  (  0.4%)
Population analysis         ....       0.080 sec  (  1.3%)
Orbital Transformation      ....       0.037 sec  (  0.6%)
Orbital Orthonormalization  ....       0.000 sec  (  0.0%)
DIIS solution               ....       0.047 sec  (  0.8%)
SOSCF solution              ....       0.244 sec  (  4.1%)
Finished LeanSCF after   6.0 sec

Maximum memory used throughout the entire LEANSCF-calculation: 38.2 MB


-------------------------------------------------------------------------------
                          DFT DISPERSION CORRECTION                            
                                                                               
                              DFTD3 V3.1  Rev 1                                
                          USING Becke-Johnson damping                          
-------------------------------------------------------------------------------
The BP86 functional is recognized
Active option DFTDOPT                   ...         4   

molecular C6(AA) [au] = 19608.050066 


            DFT-D V3
 parameters
 s6 scaling factor         :     1.0000 
 a1 scaling factor         :     0.3946 
 s8 scaling factor         :     3.2822 
 a2 scaling factor         :     4.8516 
 ad hoc parameters k1-k3   :    16.0000     1.3333    -4.0000 

 Edisp/kcal,au: -54.452516825622  -0.086775599840 
 E6   /kcal   : -19.320921268 
 E8   /kcal   : -35.131595557 
 % E8         :  64.517854464 

-------------------------   ----------------
Dispersion correction           -0.086775600
-------------------------   ----------------


-------------------------   --------------------
FINAL SINGLE POINT ENERGY     -3609.335962726059
-------------------------   --------------------

                                *** OPTIMIZATION RUN DONE ***



           ************************************************************
           *        Program running with 6 parallel MPI-processes     *
           *              working on a common directory               *
           ************************************************************

------------------------------------------------------------------------------
                              ORCA PROPERTY CALCULATIONS
------------------------------------------------------------------------------

GBWName                                 ... data/geom_opt_P_BP86/69773/69773.gbw
Number of atoms                         ...     34
Number of basis functions               ...    372
Max core memory                         ...   1024 MB

Electric properties:
Dipole moment                           ... YES
Quadrupole moment                       ...  NO
Static polarizability (Dipole/Dipole)   ...  NO
Static polarizability (Dipole/Quad.)    ...  NO
Static polarizability (Quad./Quad.)     ...  NO
Static polarizability (Velocity)        ...  NO

Atomic electric properties:
Dipole moment                           ...  NO
Quadrupole moment                       ...  NO
Static polarizability                   ...  NO

Choice of electric origin               ... Center of mass
Position of electric origin             ...     2.414242    -0.872296     0.021465

General magnetic properties:
Magnetizability                         ...  NO

EPR properties:
g-Tensor (aka g-matrix)                 ...  NO
Zero-Field splitting spin-orbit         ...  NO
Zero-field splitting spin-spin          ...  NO
Hyperfine couplings                     ...  NO (   0 nuclei)
Quadrupole couplings                    ...  NO (   0 nuclei)
Contact density                         ...  NO (   0 nuclei)

NMR properties:
Chemical shifts                         ...  NO (   0 nuclei)
Spin-rotation constants                 ...  NO (   0 nuclei)
Spin-spin couplings                     ...  NO (   0 nuclei,    0 pairs)

Choice of magnetic origin               ... GIAO
Position of magnetic origin             ...     0.000000     0.000000     0.000000

Properties with geometric perturbations:
SCF Hessian                             ...  NO
IR spectrum                             ...  NO
VCD spectrum                            ...  NO
X-ray spectroscopy properties:
SCF XES/XAS/RIXS spectra                ...  NO


-------------
DIPOLE MOMENT
-------------

Method             : SCF
Type of density    : Electron Density
Multiplicity       :   1
Irrep              :   0
Energy             : -3609.2491871262186578 Eh
Relativity type    : 
Basis              : AO
                                X                 Y                 Z
Electronic contribution:     60.037759698     -22.310726141       4.413489420
Nuclear contribution   :    -60.637768046      22.464829261      -4.056233478
                        -----------------------------------------
Total Dipole Moment    :     -0.600008348       0.154103120       0.357255943
                        -----------------------------------------
Magnitude (a.u.)       :      0.715115094
Magnitude (Debye)      :      1.817678116



--------------------
Rotational spectrum 
--------------------
 
Rotational constants in cm-1:             0.011494             0.004554             0.003643 
Rotational constants in MHz :           344.573277           136.512008           109.208584 

Dipole components along the rotational axes: 
x,y,z [a.u.] :    -0.583611     0.006668     0.413212 
x,y,z [Debye]:    -1.483420     0.016948     1.050300 

 

Dipole moment calculation done in   0.0 sec 

Maximum memory used throughout the entire PROP-calculation: 19.5 MB

--------------------------------
SUGGESTED CITATIONS FOR THIS RUN
--------------------------------

Below you find a list of papers that are relevant to this ORCA run
We neither can nor want to force you to cite these papers, but we appreciate if you do
You receive ORCA, which is the product of decades of hard work by many enthusiastic individuals, for free
The only thing we kindly ask in return is that you cite our papers,
We deeply appreciate it, if you show your appreciation for ORCA by not just citing the generic ORCA reference.

Please note that relegating all ORCA citations to the supporting information does *not* help us.
SI sections are not indexed - citations you put there will not count into any citation statistics
But we need these citations in order to attract the funding resources that allow us to do what we are doing

Therefore, if you are a happy ORCA user, please consider citing a few of the papers listed below in the main body of your paper

In addition to the list printed below, the program has created the file data/geom_opt_P_BP86/69773/69773.bibtex that contains the list in bibtex format
You can import this file easily into all common literature databanks and citation aid programs


List of essential papers. We consider these as the minimum necessary citations

  1. Neese,F.
     Software update: the ORCA program system, version 5.0
     WIRES Comput. Molec. Sci., 2022 12(1)e1606
     doi.org/10.1002/wcms.1606

List of papers to cite with high priority. The work reported in these papers was absolutely
necessary for this run to complete.
Our perspective: the developers of density functionals and basis sets usually get cited in chemistry papers
Good! But without the algorithms to do something with them, the functionals or basis sets would not do anything.
Hence, in our opinion, the algorithm design and method developments papers are equally worthy of getting cited

  1. Neese,F.
     An improvement of the resolution of the identity approximation for the formation of the Coulomb matrix
     J. Comp. Chem., 2003 24(14)1740-1747
     doi.org/10.1002/jcc.10318
  2. Neese,F.
     The SHARK Integral Generation and Digestion System
     J. Comp. Chem., 2022  1-16
     doi.org/10.1002/jcc.26942
  3. Grimme,S.; Antony,J.; Ehrlich,S.; Krieg,H.
     A consistent and accurate ab initio parametrization of density functional dispersion correction (DFT-D) for the 94 elements H-Pu
     J. Chem. Phys., 2010 132 154104-XXXX
     doi.org/10.1063/1.3382344
  4. Grimme,S.; Ehrlich,S.; Goerigk,L.
     Effect of the damping function in dispersion corrected density functional theory
     J. Comput. Chem., 2011 32(7)1456-1465
     doi.org/10.1002/jcc.21759

List of suggested additional citations. These are papers that are important in the 'surrounding' of 
of this run, or papers that preceded the highly important papers. If you like your results we are grateful for a citation.

  1. Neese,F.
     The ORCA program system
     WIRES Comput. Molec. Sci., 2012 2(1)73-78
     doi.org/10.1002/wcms.81
  2. Neese,F.
     Software update: the ORCA program system, version 4.0
     WIRES Comput. Molec. Sci., 2018 8(1)1-6
     doi.org/10.1002/wcms.1327
  3. Neese,F.; Wennmohs,F.; Becker,U.; Riplinger,C.
     The ORCA quantum chemistry program package
     J. Chem. Phys., 2020 152 Art. No. L224108
     doi.org/10.1063/5.0004608

List of optional additional citations

  1. Neese,F.
     Approximate second-order SCF convergence for spin unrestricted wavefunctions
     Chem. Phys. Lett., 2000 325(1-3)93-98
     doi.org/10.1016/s0009-2614(00)00662-x

Timings for individual modules:

Sum of individual times          ...      125.768 sec (=   2.096 min)
Startup calculation              ...       11.026 sec (=   0.184 min)   8.8 %
SCF iterations                   ...       76.783 sec (=   1.280 min)  61.1 %
Property calculations            ...        0.174 sec (=   0.003 min)   0.1 %
SCF Gradient evaluation          ...       37.674 sec (=   0.628 min)  30.0 %
Geometry relaxation              ...        0.111 sec (=   0.002 min)   0.1 %
                             ****ORCA TERMINATED NORMALLY****
TOTAL RUN TIME: 0 days 0 hours 2 minutes 7 seconds 256 msec
