
                                 *****************
                                 * O   R   C   A *
                                 *****************

                                            #,                                       
                                            ###                                      
                                            ####                                     
                                            #####                                    
                                            ######                                   
                                           ########,                                 
                                     ,,################,,,,,                         
                               ,,#################################,,                 
                          ,,##########################################,,             
                       ,#########################################, ''#####,          
                    ,#############################################,,   '####,        
                  ,##################################################,,,,####,       
                ,###########''''           ''''###############################       
              ,#####''   ,,,,##########,,,,          '''####'''          '####       
            ,##' ,,,,###########################,,,                        '##       
           ' ,,###''''                  '''############,,,                           
         ,,##''                                '''############,,,,        ,,,,,,###''
      ,#''                                            '''#######################'''  
     '                                                          ''''####''''         
             ,#######,   #######,   ,#######,      ##                                
            ,#'     '#,  ##    ##  ,#'     '#,    #''#        ,####,   ,####,        
            ##       ##  ##   ,#'  ##            #'  '#       #'       #'  '#        
            ##       ##  #######   ##           ,######,      #####,   #    #        
            '#,     ,#'  ##    ##  '#,     ,#' ,#      #,     #,   #   #,  ,#        
             '#######'   ##     ##  '#######'  #'      '#     '####' # '####'        



                #########################################################
                #                        -***-                          #
                #          Department of theory and spectroscopy        #
                #                                                       #
                #                      Frank Neese                      #
                #                                                       #
                #     Directorship, Architecture, Infrastructure        #
                #                    SHARK, DRIVERS                     #
                #        Core code/Algorithms in most modules           #
                #                                                       #
                #        Max Planck Institute fuer Kohlenforschung      #
                #                Kaiser Wilhelm Platz 1                 #
                #                 D-45470 Muelheim/Ruhr                 #
                #                      Germany                          #
                #                                                       #
                #                  All rights reserved                  #
                #                        -***-                          #
                #########################################################


                         Program Version 6.0.0  -   RELEASE   -


 With contributions from (in alphabetic order):
   Daniel Aravena         : Magnetic Suceptibility
   Michael Atanasov       : Ab Initio Ligand Field Theory (pilot matlab implementation)
   Alexander A. Auer      : GIAO ZORA, VPT2 properties, NMR spectrum
   Ute Becker             : All parallelization in ORCA, NUMFREQ, NUMCALC
   Giovanni Bistoni       : ED, misc. LED, open-shell LED, HFLD
   Martin Brehm           : Molecular dynamics
   Dmytro Bykov           : pre 5.0 version of the SCF Hessian
   Marcos Casanova-Páez   : Triplet and SCS-CIS(D). UHF-(DLPNO)-IP/EA/STEOM-CCSD. UHF-CVS-IP/STEOM-CCSD
   Vijay G. Chilkuri      : MRCI spin determinant printing, contributions to CSF-ICE
   Pauline Colinet        : FMM embedding
   Dipayan Datta          : RHF DLPNO-CCSD density
   Achintya Kumar Dutta   : EOM-CC, STEOM-CC
   Nicolas Foglia         : Exact transition moments, OPA infrastructure, MCD improvements
   Dmitry Ganyushin       : Spin-Orbit,Spin-Spin,Magnetic field MRCI
   Miquel Garcia          : C-PCM and meta-GGA Hessian, CCSD/C-PCM, Gaussian charge scheme
   Tiago L. C. Gouveia    : GS-ROHF, GS-ROCIS
   Yang Guo               : DLPNO-NEVPT2, F12-NEVPT2, CIM, IAO-localization
   Andreas Hansen         : Spin unrestricted coupled pair/coupled cluster methods
   Ingolf Harden          : AUTO-CI MPn and infrastructure 
   Benjamin Helmich-Paris : MC-RPA, TRAH-(SCF,CASSCF), AVAS, COSX integrals, SCF dyn. polar.
   Lee Huntington         : MR-EOM, pCC
   Robert Izsak           : Overlap fitted RIJCOSX, COSX-SCS-MP3, EOM
   Riya Kayal             : Wick's Theorem for AUTO-CI, AUTO-CI UHF-CCSDT
   Emily Kempfer          : AUTO-CI, RHF CISDT and CCSDT
   Christian Kollmar      : KDIIS, OOCD, Brueckner-CCSD(T), CCSD density, CASPT2, CASPT2-K, improved NEVPT2
   Axel Koslowski         : Symmetry handling
   Simone Kossmann        : Meta GGA functionals, TD-DFT gradient, OOMP2, (MP2 Hessian; deprecated post 5.0)
   Lucas Lang             : DCDCAS
   Marvin Lechner         : AUTO-CI (C++ implementation), FIC-MRCC
   Spencer Leger          : CASSCF response
   Dagmar Lenk            : GEPOL surface, SMD, ORCA-2-JSON
   Dimitrios Liakos       : Extrapolation schemes; Compound Job, initial MDCI parallelization
   Dimitrios Manganas     : Further ROCIS development; embedding schemes. LFT, Crystal Embedding
   Dimitrios Pantazis     : SARC Basis sets
   Anastasios Papadopoulos: AUTO-CI, single reference methods and gradients
   Taras Petrenko         : pre 6.0 DFT Hessian and TD-DFT gradient, (ASA, deprecated), ECA, 1-Electron XAS/XES, NRVS
   Peter Pinski           : DLPNO-MP2, DLPNO-MP2 Gradient
   Christoph Reimann      : Effective Core Potentials
   Marius Retegan         : Local ZFS, SOC
   Christoph Riplinger    : Optimizer, TS searches, QM/MM, DLPNO-CCSD(T), (RO)-DLPNO pert. Triples
   Michael Roemelt        : Original ROCIS implementation
   Masaaki Saitow         : Open-shell DLPNO-CCSD energy and density
   Barbara Sandhoefer     : DKH picture change effects
   Kantharuban Sivalingam : CASSCF convergence/infrastructure, NEVPT2 and variants, FIC-MRCI
   Bernardo de Souza      : ESD, SOC TD-DFT
   Georgi Stoychev        : AutoAux, RI-MP2 NMR, DLPNO-MP2 response, X2C
   Van Anh Tran           : RI-MP2 g-tensors
   Willem Van den Heuvel  : Paramagnetic NMR
   Zikuan Wang            : NOTCH, Electric field optimization 
   Frank Wennmohs         : Technical directorship and infrastructure
   Hang Xu                : AUTO-CI-Response properties 


 We gratefully acknowledge several colleagues who have allowed us to
 interface, adapt or use parts of their codes:
   Stefan Grimme, W. Hujo, H. Kruse, P. Pracht,  : VdW corrections, initial TS optimization,
                  C. Bannwarth, S. Ehlert,         DFT functionals, gCP, sTDA/sTD-DF
                  L. Wittmann, M. Mueller
   Ed Valeev, F. Pavosevic, A. Kumar             : LibInt (2-el integral package), F12 methods
   Garnet Chan, S. Sharma, J. Yang, R. Olivares  : DMRG
   Ulf Ekstrom                                   : XCFun DFT Library
   Mihaly Kallay                                 : mrcc  (arbitrary order and MRCC methods)
   Frank Weinhold                                : gennbo (NPA and NBO analysis)
   Simon Mueller                                 : openCOSMO-RS
   Christopher J. Cramer and Donald G. Truhlar   : smd solvation model
   Lars Goerigk                                  : TD-DFT with DH, B97 family of functionals
   V. Asgeirsson, H. Jonsson                     : NEB implementation
   FAccTs GmbH                                   : IRC, NEB, NEB-TS, DLPNO-Multilevel, CI-OPT
                                                   MM, QMMM, 2- and 3-layer-ONIOM, Crystal-QMMM,
                                                   LR-CPCM, SF, NACMEs, symmetry and pop. for TD-DFT,
                                                   nearIR, NL-DFT gradient (VV10), updates on ESD,
                                                   ML-optimized integration grids, MBIS, APM,
                                                   GOAT, DOCKER, SOLVATOR, interface openCOSMO-RS
   S Lehtola, MJT Oliveira, MAL Marques          : LibXC Library
   Liviu Ungur et al                             : ANISO software


 Your calculation uses the libint2 library for the computation of 2-el integrals
 For citations please refer to: http://libint.valeyev.net

 Your ORCA version has been built with support for libXC version: 6.2.2
 For citations please refer to: https://libxc.gitlab.io

 This ORCA versions uses:
   CBLAS   interface :  Fast vector & matrix operations
   LAPACKE interface :  Fast linear algebra routines
   Shared memory     :  Shared parallel matrices


Your calculation utilizes the atom-pairwise dispersion correction
with the Becke-Johnson damping scheme (D3BJ)


Warning: RI is on but no J-basis has been assigned. Assigning Def2/J (nothing to worry about!)
================================================================================

----- Orbital basis set information -----
Your calculation utilizes the basis: def2-SVP
   F. Weigend and R. Ahlrichs, Phys. Chem. Chem. Phys. 7, 3297 (2005).

----- AuxJ basis set information -----
Your calculation utilizes the auxiliary basis: def2/J
   F. Weigend, Phys. Chem. Chem. Phys. 8, 1057 (2006).

================================================================================
                                        WARNINGS
                       Please study these warnings very carefully!
================================================================================


WARNING: Geometry Optimization
  ===> : Switching off AutoStart
         For restart on a previous wavefunction, please use MOREAD

================================================================================
                                       INPUT FILE
================================================================================
NAME = data/geom_opt/82100/82100.inp
|  1> ! RIJONX B3LYP def2-SVP D3BJ TIGHTSCF Opt
|  2> %pal
|  3> nprocs 6
|  4> end
|  5> 
|  6> * xyz 0 1
|  7> C      3.939771   -1.242537   -0.465123
|  8> C      2.635732   -1.328774    0.314423
|  9> C      1.900392    0.013441    0.314691
| 10> P      0.349145   -0.034553    1.322572
| 11> C     -0.437501    1.584132    0.991036
| 12> C     -1.831938    1.719274    1.109529
| 13> C     -2.463907    2.945284    0.882291
| 14> C     -1.710314    4.065279    0.547186
| 15> C     -0.326246    3.959755    0.448134
| 16> C      0.304532    2.731545    0.675138
| 17> C     -0.686293   -1.167693    0.332886
| 18> C     -1.171843   -2.336732    0.937522
| 19> C     -1.960639   -3.238826    0.218923
| 20> C     -2.274163   -2.983780   -1.113781
| 21> C     -1.799997   -1.827427   -1.728262
| 22> C     -1.010438   -0.925680   -1.010098
| 23> H      4.451477   -2.210019   -0.455465
| 24> H      3.755255   -0.966180   -1.508163
| 25> H      4.611766   -0.498725   -0.025273
| 26> H      2.856560   -1.643175    1.341980
| 27> H      2.013083   -2.112785   -0.132150
| 28> H      1.687190    0.320903   -0.715106
| 29> H      2.566405    0.768718    0.747088
| 30> H     -2.448485    0.864102    1.381277
| 31> H     -3.544228    3.021265    0.972666
| 32> H     -2.199377    5.019787    0.373002
| 33> H      0.268210    4.835467    0.200630
| 34> H      1.387841    2.700036    0.607418
| 35> H     -0.939579   -2.557266    1.977489
| 36> H     -2.329283   -4.139864    0.702000
| 37> H     -2.888578   -3.684685   -1.672528
| 38> H     -2.045510   -1.623368   -2.767132
| 39> H     -0.659043   -0.026920   -1.511905
| 40> **                         ****END OF INPUT****
================================================================================

                       *****************************
                       * Geometry Optimization Run *
                       *****************************

Geometry optimization settings:
Update method            Update   .... BFGS
Choice of coordinates    CoordSys .... (2022) Redundant Internals
Initial Hessian          InHess   .... Almloef's Model
Max. no of cycles        MaxIter  .... 99

Convergence Tolerances:
Energy Change            TolE     ....  5.0000e-06 Eh
Max. Gradient            TolMAXG  ....  3.0000e-04 Eh/bohr
RMS Gradient             TolRMSG  ....  1.0000e-04 Eh/bohr
Max. Displacement        TolMAXD  ....  4.0000e-03 bohr
RMS Displacement         TolRMSD  ....  2.0000e-03 bohr
Strict Convergence                .... False

------------------------------------------------------------------------------
                        ORCA OPTIMIZATION COORDINATE SETUP
------------------------------------------------------------------------------

The optimization will be done in redundant internal coordinates (2022)
Making redundant internal coordinates   ...  (2022 redundants) done
Evaluating the initial hessian          ...  (Almloef) done
Evaluating the coordinates              ...  done
Calculating the B-matrix                .... done
Calculating the G-matrix                .... done
Diagonalizing the G-matrix              .... done
Small eigenvalue found = 5.282e-03
Small eigenvalue found = 6.710e-03
Small eigenvalue found = 1.387e-02
Small eigenvalue found = 2.671e-02
The first mode is                       ....   71
The number of degrees of freedom        ....   93

    -----------------------------------------------------------------
                    Redundant Internal Coordinates


    -----------------------------------------------------------------
         Definition                    Initial Value    Approx d2E/dq
    -----------------------------------------------------------------
      1. B(C   1,C   0)                  1.5217         0.385106   
      2. B(C   2,C   1)                  1.5304         0.372963   
      3. B(P   3,C   2)                  1.8505         0.386787   
      4. B(C   4,P   3)                  1.8300         0.417113   
      5. B(C   5,C   4)                  1.4060         0.589190   
      6. B(C   6,C   5)                  1.3979         0.606926   
      7. B(C   7,C   6)                  1.3909         0.622747   
      8. B(C   8,C   7)                  1.3916         0.621102   
      9. B(C   9,C   8)                  1.3993         0.603913   
     10. B(C   9,C   4)                  1.4025         0.596790   
     11. B(C  10,P   3)                  1.8264         0.422704   
     12. B(C  11,C  10)                  1.4029         0.595982   
     13. B(C  12,C  11)                  1.3973         0.608336   
     14. B(C  13,C  12)                  1.3926         0.618767   
     15. B(C  14,C  13)                  1.3927         0.618663   
     16. B(C  15,C  14)                  1.3973         0.608373   
     17. B(C  15,C  10)                  1.4026         0.596567   
     18. B(H  16,C   0)                  1.0945         0.354180   
     19. B(H  17,C   0)                  1.0947         0.353946   
     20. B(H  18,C   0)                  1.0947         0.353975   
     21. B(H  19,C   1)                  1.0970         0.350912   
     22. B(H  20,C   1)                  1.0963         0.351909   
     23. B(H  21,C   2)                  1.0957         0.352690   
     24. B(H  22,C   2)                  1.0959         0.352387   
     25. B(H  23,C   5)                  1.0887         0.361806   
     26. B(H  24,C   6)                  1.0868         0.364420   
     27. B(H  25,C   7)                  1.0866         0.364682   
     28. B(H  26,C   8)                  1.0870         0.364128   
     29. B(H  27,C   9)                  1.0859         0.365591   
     30. B(H  28,C  11)                  1.0882         0.362529   
     31. B(H  29,C  12)                  1.0868         0.364360   
     32. B(H  30,C  13)                  1.0867         0.364458   
     33. B(H  31,C  14)                  1.0868         0.364338   
     34. B(H  32,C  15)                  1.0877         0.363176   
     35. A(C   1,C   0,H  16)          110.2445         0.325056   
     36. A(H  16,C   0,H  17)          108.0811         0.289300   
     37. A(C   1,C   0,H  18)          111.0223         0.325025   
     38. A(C   1,C   0,H  17)          110.9756         0.325021   
     39. A(H  16,C   0,H  18)          108.0639         0.289304   
     40. A(H  17,C   0,H  18)          108.3479         0.289274   
     41. A(C   0,C   1,H  20)          108.5766         0.324713   
     42. A(H  19,C   1,H  20)          106.9136         0.288620   
     43. A(C   2,C   1,H  19)          110.3587         0.322859   
     44. A(C   2,C   1,H  20)          110.7556         0.323010   
     45. A(C   0,C   1,C   2)          111.2311         0.365143   
     46. A(C   0,C   1,H  19)          108.8793         0.324562   
     47. A(C   1,C   2,H  22)          108.2095         0.323081   
     48. A(C   1,C   2,H  21)          109.8424         0.323127   
     49. A(H  21,C   2,H  22)          107.1996         0.288910   
     50. A(P   3,C   2,H  21)          110.8586         0.345120   
     51. A(P   3,C   2,H  22)          108.2054         0.345070   
     52. A(C   1,C   2,P   3)          112.3409         0.388901   
     53. A(C   2,P   3,C   4)          103.8115         0.422726   
     54. A(C   2,P   3,C  10)          101.3150         0.423733   
     55. A(C   4,P   3,C  10)          101.9416         0.429501   
     56. A(C   5,C   4,C   9)          117.7159         0.427175   
     57. A(P   3,C   4,C   9)          122.4819         0.428317   
     58. A(P   3,C   4,C   5)          119.7416         0.427334   
     59. A(C   4,C   5,C   6)          121.2636         0.428467   
     60. A(C   6,C   5,H  23)          118.2590         0.351920   
     61. A(C   4,C   5,H  23)          120.4773         0.350161   
     62. A(C   7,C   6,H  24)          120.1546         0.353887   
     63. A(C   5,C   6,C   7)          120.0293         0.432749   
     64. A(C   5,C   6,H  24)          119.8155         0.352349   
     65. A(C   6,C   7,C   8)          119.6668         0.434550   
     66. A(C   6,C   7,H  25)          120.1409         0.353930   
     67. A(C   8,C   7,H  25)          120.1897         0.353772   
     68. A(C   9,C   8,H  26)          119.8391         0.352005   
     69. A(C   7,C   8,H  26)          119.9367         0.353681   
     70. A(C   7,C   8,C   9)          120.2228         0.432157   
     71. A(C   8,C   9,H  27)          117.7155         0.352243   
     72. A(C   4,C   9,H  27)          121.2075         0.351537   
     73. A(C   4,C   9,C   8)          121.0746         0.429069   
     74. A(P   3,C  10,C  11)          118.6656         0.429237   
     75. A(C  11,C  10,C  15)          118.4564         0.428025   
     76. A(P   3,C  10,C  15)          122.8764         0.429312   
     77. A(C  10,C  11,C  12)          120.7798         0.429527   
     78. A(C  12,C  11,H  28)          118.7612         0.352177   
     79. A(C  10,C  11,H  28)          120.4591         0.350958   
     80. A(C  13,C  12,H  29)          120.0554         0.353493   
     81. A(C  11,C  12,H  29)          119.8778         0.352477   
     82. A(C  11,C  12,C  13)          120.0668         0.432431   
     83. A(C  14,C  13,H  30)          120.0768         0.353499   
     84. A(C  12,C  13,H  30)          120.0790         0.353509   
     85. A(C  12,C  13,C  14)          119.8441         0.433742   
     86. A(C  15,C  14,H  31)          119.8537         0.352477   
     87. A(C  13,C  14,H  31)          120.0490         0.353479   
     88. A(C  13,C  14,C  15)          120.0972         0.432423   
     89. A(C  14,C  15,H  32)          118.6009         0.352287   
     90. A(C  10,C  15,H  32)          120.6414         0.351122   
     91. A(C  10,C  15,C  14)          120.7556         0.429607   
     92. D(C   2,C   1,C   0,H  18)     60.3116         0.011804   
     93. D(H  19,C   1,C   0,H  16)     58.2103         0.011804   
     94. D(H  19,C   1,C   0,H  18)    -61.5120         0.011804   
     95. D(C   2,C   1,C   0,H  16)   -179.9662         0.011804   
     96. D(C   2,C   1,C   0,H  17)    -60.2525         0.011804   
     97. D(H  19,C   1,C   0,H  17)    177.9240         0.011804   
     98. D(H  21,C   2,C   1,H  19)    179.8085         0.011109   
     99. D(H  21,C   2,C   1,C   0)     58.8492         0.011109   
    100. D(P   3,C   2,C   1,H  20)     61.8910         0.011109   
    101. D(P   3,C   2,C   1,C   0)   -177.2638         0.011109   
    102. D(P   3,C   2,C   1,H  19)    -56.3045         0.011109   
    103. D(H  21,C   2,C   1,H  20)    -61.9960         0.011109   
    104. D(C   4,P   3,C   2,H  22)     67.6040         0.003521   
    105. D(C   4,P   3,C   2,H  21)    -49.6820         0.003521   
    106. D(C   4,P   3,C   2,C   1)   -173.0018         0.003521   
    107. D(C  10,P   3,C   2,H  21)     55.7734         0.003521   
    108. D(C  10,P   3,C   2,C   1)    -67.5463         0.003521   
    109. D(C   9,C   4,P   3,C  10)   -134.1036         0.003662   
    110. D(C   9,C   4,P   3,C   2)    -29.1222         0.003662   
    111. D(C   5,C   4,P   3,C  10)     48.7924         0.003662   
    112. D(C   5,C   4,P   3,C   2)    153.7738         0.003662   
    113. D(H  23,C   5,C   4,C   9)   -178.2371         0.023886   
    114. D(H  23,C   5,C   4,P   3)     -0.9965         0.023886   
    115. D(C   6,C   5,C   4,C   9)      1.8410         0.023886   
    116. D(C   6,C   5,C   4,P   3)    179.0816         0.023886   
    117. D(H  24,C   6,C   5,H  23)     -0.4143         0.025426   
    118. D(H  24,C   6,C   5,C   4)    179.5093         0.025426   
    119. D(C   7,C   6,C   5,H  23)    179.3087         0.025426   
    120. D(C   7,C   6,C   5,C   4)     -0.7677         0.025426   
    121. D(C   8,C   7,C   6,H  24)    179.3184         0.026850   
    122. D(C   8,C   7,C   6,C   5)     -0.4036         0.026850   
    123. D(H  25,C   7,C   6,H  24)     -0.0998         0.026850   
    124. D(H  25,C   7,C   6,C   5)   -179.8218         0.026850   
    125. D(H  26,C   8,C   7,H  25)      0.3009         0.026700   
    126. D(H  26,C   8,C   7,C   6)   -179.1170         0.026700   
    127. D(C   9,C   8,C   7,H  25)    179.8617         0.026700   
    128. D(C   9,C   8,C   7,C   6)      0.4438         0.026700   
    129. D(H  27,C   9,C   8,H  26)      0.8104         0.025160   
    130. D(H  27,C   9,C   8,C   7)   -178.7508         0.025160   
    131. D(C   4,C   9,C   8,H  26)   -179.7508         0.025160   
    132. D(C   4,C   9,C   8,C   7)      0.6879         0.025160   
    133. D(H  27,C   9,C   4,C   5)    177.6215         0.024539   
    134. D(H  27,C   9,C   4,P   3)      0.4618         0.024539   
    135. D(C   8,C   9,C   4,C   5)     -1.7976         0.024539   
    136. D(C   8,C   9,C   4,P   3)   -178.9572         0.024539   
    137. D(C  15,C  10,P   3,C   4)     49.1206         0.003722   
    138. D(C  15,C  10,P   3,C   2)    -57.8070         0.003722   
    139. D(C  11,C  10,P   3,C   4)   -131.3512         0.003722   
    140. D(C  11,C  10,P   3,C   2)    121.7212         0.003722   
    141. D(H  28,C  11,C  10,C  15)    179.9503         0.024469   
    142. D(H  28,C  11,C  10,P   3)      0.4010         0.024469   
    143. D(C  12,C  11,C  10,C  15)     -0.0330         0.024469   
    144. D(C  12,C  11,C  10,P   3)   -179.5823         0.024469   
    145. D(H  29,C  12,C  11,H  28)      0.0347         0.025551   
    146. D(H  29,C  12,C  11,C  10)   -179.9818         0.025551   
    147. D(C  13,C  12,C  11,H  28)   -179.9787         0.025551   
    148. D(C  13,C  12,C  11,C  10)      0.0048         0.025551   
    149. D(H  30,C  13,C  12,H  29)      0.0565         0.026487   
    150. D(H  30,C  13,C  12,C  11)   -179.9301         0.026487   
    151. D(C  14,C  13,C  12,H  29)    179.9668         0.026487   
    152. D(C  14,C  13,C  12,C  11)     -0.0197         0.026487   
    153. D(C  15,C  14,C  13,H  30)    179.9738         0.026478   
    154. D(C  15,C  14,C  13,C  12)      0.0635         0.026478   
    155. D(H  31,C  14,C  13,H  30)      0.1228         0.026478   
    156. D(H  31,C  14,C  13,C  12)   -179.7875         0.026478   
    157. D(H  32,C  15,C  14,H  31)      0.2784         0.025554   
    158. D(H  32,C  15,C  14,C  13)   -179.5729         0.025554   
    159. D(C  10,C  15,C  14,H  31)    179.7582         0.025554   
    160. D(C  10,C  15,C  14,C  13)     -0.0932         0.025554   
    161. D(H  32,C  15,C  10,C  11)    179.5461         0.024519   
    162. D(H  32,C  15,C  10,P   3)     -0.9248         0.024519   
    163. D(C  14,C  15,C  10,C  11)      0.0770         0.024519   
    164. D(C  14,C  15,C  10,P   3)    179.6061         0.024519   
    -----------------------------------------------------------------

Number of atoms                         .... 33
Number of degrees of freedom            .... 164


         *************************************************************
         *                GEOMETRY OPTIMIZATION CYCLE   1            *
         *************************************************************
---------------------------------
CARTESIAN COORDINATES (ANGSTROEM)
---------------------------------
  C      3.939771   -1.242537   -0.465123
  C      2.635732   -1.328774    0.314423
  C      1.900392    0.013441    0.314691
  P      0.349145   -0.034553    1.322572
  C     -0.437501    1.584132    0.991036
  C     -1.831938    1.719274    1.109529
  C     -2.463907    2.945284    0.882291
  C     -1.710314    4.065279    0.547186
  C     -0.326246    3.959755    0.448134
  C      0.304532    2.731545    0.675138
  C     -0.686293   -1.167693    0.332886
  C     -1.171843   -2.336732    0.937522
  C     -1.960639   -3.238826    0.218923
  C     -2.274163   -2.983780   -1.113781
  C     -1.799997   -1.827427   -1.728262
  C     -1.010438   -0.925680   -1.010098
  H      4.451477   -2.210019   -0.455465
  H      3.755255   -0.966180   -1.508163
  H      4.611766   -0.498725   -0.025273
  H      2.856560   -1.643175    1.341980
  H      2.013083   -2.112785   -0.132150
  H      1.687190    0.320903   -0.715106
  H      2.566405    0.768718    0.747088
  H     -2.448485    0.864102    1.381277
  H     -3.544228    3.021265    0.972666
  H     -2.199377    5.019787    0.373002
  H      0.268210    4.835467    0.200630
  H      1.387841    2.700036    0.607418
  H     -0.939579   -2.557266    1.977489
  H     -2.329283   -4.139864    0.702000
  H     -2.888578   -3.684685   -1.672528
  H     -2.045510   -1.623368   -2.767132
  H     -0.659043   -0.026920   -1.511905

----------------------------
CARTESIAN COORDINATES (A.U.)
----------------------------
  NO LB      ZA    FRAG     MASS         X           Y           Z
   0 C     6.0000    0    12.011    7.445088   -2.348055   -0.878955
   1 C     6.0000    0    12.011    4.980812   -2.511019    0.594173
   2 C     6.0000    0    12.011    3.591220    0.025400    0.594680
   3 P    15.0000    0    30.974    0.659788   -0.065296    2.499299
   4 C     6.0000    0    12.011   -0.826757    2.993576    1.872787
   5 C     6.0000    0    12.011   -3.461861    3.248957    2.096706
   6 C     6.0000    0    12.011   -4.656109    5.565780    1.667288
   7 C     6.0000    0    12.011   -3.232025    7.682264    1.034032
   8 C     6.0000    0    12.011   -0.616516    7.482853    0.846851
   9 C     6.0000    0    12.011    0.575482    5.161872    1.275826
  10 C     6.0000    0    12.011   -1.296906   -2.206620    0.629063
  11 C     6.0000    0    12.011   -2.214462   -4.415784    1.771660
  12 C     6.0000    0    12.011   -3.705071   -6.120494    0.413705
  13 C     6.0000    0    12.011   -4.297545   -5.638527   -2.104741
  14 C     6.0000    0    12.011   -3.401501   -3.453337   -3.265942
  15 C     6.0000    0    12.011   -1.909451   -1.749282   -1.908809
  16 H     1.0000    0     1.008    8.412072   -4.176331   -0.860704
  17 H     1.0000    0     1.008    7.096404   -1.825816   -2.850015
  18 H     1.0000    0     1.008    8.714975   -0.942454   -0.047759
  19 H     1.0000    0     1.008    5.398116   -3.105151    2.535975
  20 H     1.0000    0     1.008    3.804176   -3.992585   -0.249727
  21 H     1.0000    0     1.008    3.188327    0.606419   -1.351354
  22 H     1.0000    0     1.008    4.849803    1.452666    1.411792
  23 H     1.0000    0     1.008   -4.626966    1.632916    2.610235
  24 H     1.0000    0     1.008   -6.697620    5.709363    1.838072
  25 H     1.0000    0     1.008   -4.156220    9.486023    0.704872
  26 H     1.0000    0     1.008    0.506843    9.137708    0.379136
  27 H     1.0000    0     1.008    2.622639    5.102329    1.147854
  28 H     1.0000    0     1.008   -1.775547   -4.832532    3.736913
  29 H     1.0000    0     1.008   -4.401707   -7.823209    1.326588
  30 H     1.0000    0     1.008   -5.458621   -6.963046   -3.160620
  31 H     1.0000    0     1.008   -3.865454   -3.067721   -5.229122
  32 H     1.0000    0     1.008   -1.245411   -0.050871   -2.857086

--------------------------------
INTERNAL COORDINATES (ANGSTROEM)
--------------------------------
 C      0   0   0     0.000000000000     0.00000000     0.00000000
 C      1   0   0     1.521724843658     0.00000000     0.00000000
 C      2   1   0     1.530446370720   111.23109579     0.00000000
 P      3   2   1     1.850539053683   112.34086791   182.73621100
 C      4   3   2     1.829991578625   103.81149240   186.99824169
 C      5   4   3     1.405972438628   119.74157926   153.77378991
 C      6   5   4     1.397899297412   121.26361474   179.08155720
 C      7   6   5     1.390894162292   120.02931029   359.23225830
 C      8   7   6     1.391614473158   119.66682543   359.59640429
 C      9   8   7     1.399253910268   120.22276433     0.44377449
 C      4   3   2     1.826367019534   101.31498317   292.45366451
 C     11   4   3     1.402852693093   118.66558503   121.72118400
 C     12  11   4     1.397267775787   120.77978022   180.41774306
 C     13  12  11     1.392639835818   120.06684495     0.00000000
 C     14  13  12     1.392685375642   119.84414781     0.00000000
 C     15  14  13     1.397251086021   120.09715423     0.06347697
 H      1   2   3     1.094512552566   110.24445510   180.03384563
 H      1   2   3     1.094692553782   110.97557557   299.74754529
 H      1   2   3     1.094669627727   111.02226179    60.31155800
 H      2   1   3     1.097035269549   108.87930424   238.17645284
 H      2   1   3     1.096262956435   108.57658603   122.11707153
 H      3   2   1     1.095659543589   109.84242308    58.84924347
 H      3   2   1     1.095894077230   108.20948139   302.12801540
 H      6   5   4     1.088713152441   120.47729150   359.00347932
 H      7   6   5     1.086753981372   119.81551620   179.50930329
 H      8   7   6     1.086557962508   120.14089104   180.17819914
 H      9   8   7     1.086971790294   119.93668040   180.88297361
 H     10   9   8     1.085880842893   117.71545017   181.24921881
 H     12  11   4     1.088169642997   120.45906455     0.40100642
 H     13  12  11     1.086798630892   119.87777598   180.01823467
 H     14  13  12     1.086725274050   120.07901366   180.06994957
 H     15  14  13     1.086815341054   120.04897982   180.21245304
 H     16  15  14     1.087684811365   118.60088256   180.42711595

---------------------------
INTERNAL COORDINATES (A.U.)
---------------------------
 C      0   0   0     0.000000000000     0.00000000     0.00000000
 C      1   0   0     2.875643205698     0.00000000     0.00000000
 C      2   1   0     2.892124503314   111.23109579     0.00000000
 P      3   2   1     3.497012011587   112.34086791   182.73621100
 C      4   3   2     3.458182910983   103.81149240   186.99824169
 C      5   4   3     2.656902860849   119.74157926   153.77378991
 C      6   5   4     2.641646834910   121.26361474   179.08155720
 C      7   6   5     2.628409048002   120.02931029   359.23225830
 C      8   7   6     2.629770238271   119.66682543   359.59640429
 C      9   8   7     2.644206682225   120.22276433     0.44377449
 C      4   3   2     3.451333486944   101.31498317   292.45366451
 C     11   4   3     2.651007396179   118.66558503   121.72118400
 C     12  11   4     2.640453431991   120.77978022   180.41774306
 C     13  12  11     2.631707892886   120.06684495     0.00000000
 C     14  13  12     2.631793950680   119.84414781     0.00000000
 C     15  14  13     2.640421892903   120.09715423     0.06347697
 H      1   2   3     2.068328974488   110.24445510   180.03384563
 H      1   2   3     2.068669127490   110.97557557   299.74754529
 H      1   2   3     2.068625803526   111.02226179    60.31155800
 H      2   1   3     2.073096218700   108.87930424   238.17645284
 H      2   1   3     2.071636758424   108.57658603   122.11707153
 H      3   2   1     2.070496473400   109.84242308    58.84924347
 H      3   2   1     2.070939677750   108.20948139   302.12801540
 H      6   5   4     2.057369696511   120.47729150   359.00347932
 H      7   6   5     2.053667399741   119.81551620   179.50930329
 H      8   7   6     2.053296977771   120.14089104   180.17819914
 H      9   8   7     2.054078998955   119.93668040   180.88297361
 H     10   9   8     2.052017407139   117.71545017   181.24921881
 H     12  11   4     2.056342612512   120.45906455     0.40100642
 H     13  12  11     2.053751775107   119.87777598   180.01823467
 H     14  13  12     2.053613150765   120.07901366   180.06994957
 H     15  14  13     2.053783352736   120.04897982   180.21245304
 H     16  15  14     2.055426413506   118.60088256   180.42711595

---------------------
BASIS SET INFORMATION
---------------------
There are 3 groups of distinct atoms

 Group   1 Type C   : 7s4p1d contracted to 3s2p1d pattern {511/31/1}
 Group   2 Type P   : 10s7p1d contracted to 4s3p1d pattern {5311/511/1}
 Group   3 Type H   : 4s1p contracted to 2s1p pattern {31/1}

Atom   0C    basis set group =>   1
Atom   1C    basis set group =>   1
Atom   2C    basis set group =>   1
Atom   3P    basis set group =>   2
Atom   4C    basis set group =>   1
Atom   5C    basis set group =>   1
Atom   6C    basis set group =>   1
Atom   7C    basis set group =>   1
Atom   8C    basis set group =>   1
Atom   9C    basis set group =>   1
Atom  10C    basis set group =>   1
Atom  11C    basis set group =>   1
Atom  12C    basis set group =>   1
Atom  13C    basis set group =>   1
Atom  14C    basis set group =>   1
Atom  15C    basis set group =>   1
Atom  16H    basis set group =>   3
Atom  17H    basis set group =>   3
Atom  18H    basis set group =>   3
Atom  19H    basis set group =>   3
Atom  20H    basis set group =>   3
Atom  21H    basis set group =>   3
Atom  22H    basis set group =>   3
Atom  23H    basis set group =>   3
Atom  24H    basis set group =>   3
Atom  25H    basis set group =>   3
Atom  26H    basis set group =>   3
Atom  27H    basis set group =>   3
Atom  28H    basis set group =>   3
Atom  29H    basis set group =>   3
Atom  30H    basis set group =>   3
Atom  31H    basis set group =>   3
Atom  32H    basis set group =>   3
---------------------------------
AUXILIARY/J BASIS SET INFORMATION
---------------------------------
There are 3 groups of distinct atoms

 Group   1 Type C   : 12s5p4d2f1g contracted to 6s4p3d1f1g pattern {711111/2111/211/2/1}
 Group   2 Type P   : 14s5p5d2f1g contracted to 8s4p3d1f1g pattern {71111111/2111/311/2/1}
 Group   3 Type H   : 5s2p1d contracted to 3s1p1d pattern {311/2/1}

Atom   0C    basis set group =>   1
Atom   1C    basis set group =>   1
Atom   2C    basis set group =>   1
Atom   3P    basis set group =>   2
Atom   4C    basis set group =>   1
Atom   5C    basis set group =>   1
Atom   6C    basis set group =>   1
Atom   7C    basis set group =>   1
Atom   8C    basis set group =>   1
Atom   9C    basis set group =>   1
Atom  10C    basis set group =>   1
Atom  11C    basis set group =>   1
Atom  12C    basis set group =>   1
Atom  13C    basis set group =>   1
Atom  14C    basis set group =>   1
Atom  15C    basis set group =>   1
Atom  16H    basis set group =>   3
Atom  17H    basis set group =>   3
Atom  18H    basis set group =>   3
Atom  19H    basis set group =>   3
Atom  20H    basis set group =>   3
Atom  21H    basis set group =>   3
Atom  22H    basis set group =>   3
Atom  23H    basis set group =>   3
Atom  24H    basis set group =>   3
Atom  25H    basis set group =>   3
Atom  26H    basis set group =>   3
Atom  27H    basis set group =>   3
Atom  28H    basis set group =>   3
Atom  29H    basis set group =>   3
Atom  30H    basis set group =>   3
Atom  31H    basis set group =>   3
Atom  32H    basis set group =>   3


           ************************************************************
           *        Program running with 6 parallel MPI-processes     *
           *              working on a common directory               *
           ************************************************************
------------------------------------------------------------------------------
                             ORCA STARTUP CALCULATIONS
                           -- RI-GTO INTEGRALS CHOSEN --
------------------------------------------------------------------------------
------------------------------------------------------------------------------
                   ___                                                        
                  /   \      - P O W E R E D   B Y -                         
                 /     \                                                     
                 |  |  |   _    _      __       _____    __    __             
                 |  |  |  | |  | |    /  \     |  _  \  |  |  /  |          
                  \  \/   | |  | |   /    \    | | | |  |  | /  /          
                 / \  \   | |__| |  /  /\  \   | |_| |  |  |/  /          
                |  |  |   |  __  | /  /__\  \  |    /   |      \           
                |  |  |   | |  | | |   __   |  |    \   |  |\   \          
                \     /   | |  | | |  |  |  |  | |\  \  |  | \   \       
                 \___/    |_|  |_| |__|  |__|  |_| \__\ |__|  \__/        
                                                                              
                      - O R C A' S   B I G   F R I E N D -                    
                                      &                                       
                       - I N T E G R A L  F E E D E R -                       
                                                                              
 v1 FN, 2020, v2 2021, v3 2022-2024                                           
------------------------------------------------------------------------------


----------------------
SHARK INTEGRAL PACKAGE
----------------------

Number of atoms                             ...     33
Number of basis functions                   ...    313
Number of shells                            ...    149
Maximum angular momentum                    ...      2
Integral batch strategy                     ... SHARK/LIBINT Hybrid
RI-J (if used) integral strategy            ... SPLIT-RIJ (Revised 2003 algorithm where possible)
Printlevel                                  ...      1
Contraction scheme used                     ... SEGMENTED contraction
Prescreening option                         ... SCHWARTZ
   Thresh                                   ... 2.500e-11
   Tcut                                     ... 2.500e-12
   Tpresel                                  ... 2.500e-12 
Coulomb Range Separation                    ... NOT USED
Exchange Range Separation                   ... NOT USED
Multipole approximations                    ... NOT USED
Finite Nucleus Model                        ... NOT USED
CABS basis                                  ... NOT available
Auxiliary Coulomb fitting basis             ... AVAILABLE
   # of basis functions in Aux-J            ...    973
   # of shells in Aux-J                     ...    327
   Maximum angular momentum in Aux-J        ...      4
Auxiliary J/K fitting basis                 ... NOT available
Auxiliary Correlation fitting basis         ... NOT available
Auxiliary 'external' fitting basis          ... NOT available

Checking pre-screening integrals            ... done (  0.0 sec) Dimension = 149
Check shell pair data                       ... done (  0.0 sec)
Shell pair information
Shell pair cut-off parameter TPreSel        ...   2.5e-12
Total number of shell pairs                 ...     11175
Shell pairs after pre-screening             ...      9014
Total number of primitive shell pairs       ...     40455
Primitive shell pairs kept                  ...     21517
          la=0 lb=0:   2896 shell pairs
          la=1 lb=0:   3390 shell pairs
          la=1 lb=1:   1019 shell pairs
          la=2 lb=0:   1030 shell pairs
          la=2 lb=1:    589 shell pairs
          la=2 lb=2:     90 shell pairs

Calculating one electron integrals          ... done (  0.0 sec)
Calculating RI/J V-Matrix + Cholesky decomp.... done (  0.0 sec)
Calculating Nuclear repulsion               ... done (  0.0 sec) ENN=   1132.897141242795 Eh

Diagonalization of the overlap matrix:
Smallest eigenvalue                        ... 2.688e-04
Time for diagonalization                   ...    0.011 sec
Threshold for overlap eigenvalues          ... 1.000e-07
Number of eigenvalues below threshold      ... 0
Time for construction of square roots      ...    0.007 sec
Total time needed                          ...    0.019 sec

-------------------
DFT GRID GENERATION
-------------------

General Integration Accuracy     IntAcc      ... 4.388
Radial Grid Type                 RadialGrid  ... OptM3 with GC (2021)
Angular Grid (max. ang.)         AngularGrid ... 4 (Lebedev-302)
Angular grid pruning method      GridPruning ... 4 (adaptive)
Weight generation scheme         WeightScheme... mBecke (2022)
Basis function cutoff            BFCut       ... 1.0000e-11
Integration weight cutoff        WCut        ... 1.0000e-14
Partially contracted basis set               ... off
Rotationally invariant grid construction     ... off
Angular grids for H and He will be reduced by one unit

Total number of grid points                  ...   151074
Total number of batches                      ...     2381
Average number of points per batch           ...       63
Average number of grid points per atom       ...     4578
Initializing property integral containers    ... done (  0.0 sec)

SHARK setup successfully completed in   0.9 seconds

Maximum memory used throughout the entire STARTUP-calculation: 40.2 MB


           ************************************************************
           *        Program running with 6 parallel MPI-processes     *
           *              working on a common directory               *
           ************************************************************
-------------------------------------------------------------------------------
                                 ORCA GUESS
                   Start orbitals & Density for SCF / CASSCF
-------------------------------------------------------------------------------

------------
SCF SETTINGS
------------
Hamiltonian:
 Density Functional     Method          .... DFT(GTOs)
 Exchange Functional    Exchange        .... B88
   X-Alpha parameter    XAlpha          ....  0.666667
   Becke's b parameter  XBeta           ....  0.004200
 Correlation Functional Correlation     .... LYP
 LDA part of GGA corr.  LDAOpt          .... VWN-5
 Gradients option       PostSCFGGA      .... off
 Hybrid DFT is turned on
   Fraction HF Exchange ScalHFX         ....  0.200000
   Scaling of DF-GGA-X  ScalDFX         ....  0.720000
   Scaling of DF-GGA-C  ScalDFC         ....  0.810000
   Scaling of DF-LDA-C  ScalLDAC        ....  1.000000
   Perturbative correction              ....  0.000000
   NL short-range parameter             ....  4.800000
 RI-approximation to the Coulomb term is turned on
   Number of AuxJ basis functions       .... 973
   RIJ-ON(X) (HFX calculated with O(N)) .... on


General Settings:
 Integral files         IntName         .... data/geom_opt/82100/82100
 Hartree-Fock type      HFTyp           .... RHF
 Total Charge           Charge          ....    0
 Multiplicity           Mult            ....    1
 Number of Electrons    NEL             ....  122
 Basis Dimension        Dim             ....  313
 Nuclear Repulsion      ENuc            ....   1132.8971412428 Eh

Convergence Acceleration:
 AO-DIIS                CNVDIIS         .... on
   Start iteration      DIISMaxIt       ....    12
   Startup error        DIISStart       ....  0.200000
   # of expansion vecs  DIISMaxEq       ....     5
   Bias factor          DIISBfac        ....   1.050
   Max. coefficient     DIISMaxC        ....  10.000
 MO-DIIS                CNVKDIIS        .... off
 Trust-Rad. Augm. Hess. CNVTRAH         .... auto
   Auto Start mean grad. ratio tolernc. ....  1.125000
   Auto Start start iteration           ....    50
   Auto Start num. interpolation iter.  ....    10
   Max. Number of Micro iterations      ....    24
   Max. Number of Macro iterations      .... Maxiter - #DIIS iter
   Number of Davidson start vectors     ....     2
   Converg. threshold    (grad. norm)   ....   1.000e-05
   Grad. Scal. Fac. for Micro threshold ....   0.100
   Minimum threshold for Micro iter.    ....   1.000e-02
   NR start threshold (gradient norm)   ....   1.000e-04
   Initial trust radius                 ....   0.400
   Minimum AH scaling param. (alpha)    ....   1.000
   Maximum AH scaling param. (alpha)    .... 1000.000
   Quad. conv. algorithm                .... NR
   White noise on init. David. guess    .... on
   Maximum white noise                  ....   0.010
   Pseudo random numbers                .... off
   Inactive MOs                         .... canonical
   Orbital update algorithm             .... Taylor
   Preconditioner                       .... Diag
   Full preconditioner red. dimension   ....   250
   COSX micro iterations for RIJONX calc.... off
 SOSCF                  CNVSOSCF        .... on
   Start iteration      SOSCFMaxIt      ....   150
   Startup grad/error   SOSCFStart      ....  0.003300
   Hessian update       SOSCFHessUp     .... L-BFGS
 Level Shifting         CNVShift        .... on
   Level shift para.    LevelShift      ....    0.2500
   Turn off err/grad.   ShiftErr        ....    0.0010
 Zerner damping         CNVZerner       .... off
 Static damping         CNVDamp         .... on
   Fraction old density DampFac         ....    0.7000
   Max. Damping (<1)    DampMax         ....    0.9800
   Min. Damping (>=0)   DampMin         ....    0.0000
   Turn off err/grad.   DampErr         ....    0.1000

SCF Procedure:
 Maximum # iterations   MaxIter         ....   125
 SCF integral mode      SCFMode         .... Direct
   Integral package                     .... SHARK and LIBINT hybrid scheme
 Reset frequency        DirectResetFreq ....    20
 Integral Threshold     Thresh          ....  2.500e-11 Eh
 Primitive CutOff       TCut            ....  2.500e-12 Eh

Convergence Tolerance:
 Convergence Check Mode ConvCheckMode   .... Total+1el-Energy
 Convergence forced     ConvForced      .... 0
 Energy Change          TolE            ....  1.000e-08 Eh
 1-El. energy change                    ....  1.000e-05 Eh
 Orbital Gradient       TolG            ....  1.000e-05
 Orbital Rotation angle TolX            ....  1.000e-05
 DIIS Error             TolErr          ....  5.000e-07

------------------------------
INITIAL GUESS: MODEL POTENTIAL
------------------------------
Loading Hartree-Fock densities                     ... done
Calculating cut-offs                               ... done
Initializing the effective Hamiltonian             ... done
Setting up the integral package (SHARK)            ... done
Starting the Coulomb interaction                   ... done (   0.1 sec)
Making the grid                                    ... done (   0.2 sec)
Mapping shells                                     ... done
Starting the XC term evaluation                    ... done (   0.1 sec)
  promolecular density results
     # of electrons  =    121.990028872
     EX              =   -104.801016323
     EC              =     -4.139184941
     EX+EC           =   -108.940201264
Transforming the Hamiltonian                       ... done (   0.0 sec)
Diagonalizing the Hamiltonian                      ... done (   0.0 sec)
Back transforming the eigenvectors                 ... done (   0.0 sec)
Now organizing SCF variables                       ... done
                      ------------------
                      INITIAL GUESS DONE (   0.4 sec)
                      ------------------
             **** ENERGY FILE WAS UPDATED (data/geom_opt/82100/82100.en.tmp) ****
Finished Guess after   0.5 sec
Maximum memory used throughout the entire GUESS-calculation: 22.2 MB


           ************************************************************
           *        Program running with 6 parallel MPI-processes     *
           *              working on a common directory               *
           ************************************************************

-------------------------------------------------------------------------------------------
                                      ORCA LEAN-SCF
                              memory conserving SCF solver
-------------------------------------------------------------------------------------------

----------------------------------------D-I-I-S--------------------------------------------
Iteration    Energy (Eh)           Delta-E    RMSDP     MaxDP     DIISErr   Damp  Time(sec)
-------------------------------------------------------------------------------------------
               ***  Starting incremental Fock matrix formation  ***
    1    -921.8458486300189634     0.00e+00  2.59e-03  7.97e-02  1.75e-01  0.700   3.2
    2    -922.0217526595831714    -1.76e-01  1.85e-03  4.87e-02  9.11e-02  0.700   3.0
                               ***Turning on AO-DIIS***
    3    -922.0966406533445934    -7.49e-02  8.74e-04  3.52e-02  3.40e-02  0.700   2.7
    4    -922.1398381315486859    -4.32e-02  1.68e-03  8.12e-02  1.69e-02  0.000   2.8
    5    -922.2326635685019482    -9.28e-02  2.28e-04  1.11e-02  5.65e-03  0.000   2.8
                              *** Initializing SOSCF ***
---------------------------------------S-O-S-C-F--------------------------------------
Iteration    Energy (Eh)           Delta-E    RMSDP     MaxDP     MaxGrad    Time(sec)
--------------------------------------------------------------------------------------
    6    -922.2332299042548129    -5.66e-04  8.00e-05  2.06e-03  1.44e-03     2.4
               *** Restarting incremental Fock matrix formation ***
    7    -922.2332709104859987    -4.10e-05  5.48e-05  1.81e-03  1.86e-04     3.2
    8    -922.2332710121406762    -1.02e-07  1.96e-05  6.40e-04  2.40e-04     2.2
    9    -922.2332750487578323    -4.04e-06  1.26e-05  5.89e-04  7.78e-05     2.0
   10    -922.2332748981787063     1.51e-07  6.09e-06  1.71e-04  6.41e-05     1.9
   11    -922.2332754257674878    -5.28e-07  2.88e-06  1.96e-04  2.02e-05     1.7
   12    -922.2332754151345853     1.06e-08  1.60e-06  8.49e-05  3.67e-05     1.7
   13    -922.2332754349065453    -1.98e-08  7.72e-07  5.34e-05  4.47e-06     1.5
   14    -922.2332754430647128    -8.16e-09  4.33e-07  3.12e-05  3.24e-06     1.5
                 **** Energy Check signals convergence ****

               *****************************************************
               *                     SUCCESS                       *
               *           SCF CONVERGED AFTER  14 CYCLES          *
               *****************************************************

             **** ENERGY FILE WAS UPDATED (data/geom_opt/82100/82100.en.tmp) ****

----------------
TOTAL SCF ENERGY
----------------

Total Energy       :       -922.23327544306471 Eh          -25095.24324 eV

Components:
Nuclear Repulsion  :       1132.89714124279521 Eh           30827.69846 eV
Electronic Energy  :      -2055.13041668585993 Eh          -55922.94171 eV
One Electron Energy:      -3505.90678811624775 Eh          -95400.57378 eV
Two Electron Energy:       1450.77637143038805 Eh           39477.63207 eV

Virial components:
Potential Energy   :      -1837.26311840356311 Eh          -49994.47112 eV
Kinetic Energy     :        915.02984296049840 Eh           24899.22788 eV
Virial Ratio       :          2.00787234704746

DFT components:
N(Alpha)           :       60.999989920039 electrons
N(Beta)            :       60.999989920039 electrons
N(Total)           :      121.999979840077 electrons
E(X)               :      -84.366001079108 Eh       
E(C)               :       -4.883837620575 Eh       
E(XC)              :      -89.249838699683 Eh       

---------------
SCF CONVERGENCE
---------------

  Last Energy change         ...    8.1582e-09  Tolerance :   1.0000e-08
  Last MAX-Density change    ...    3.1238e-05  Tolerance :   1.0000e-07
  Last RMS-Density change    ...    4.3253e-07  Tolerance :   5.0000e-09
  Last DIIS Error            ...    1.4448e-03  Tolerance :   5.0000e-07
  Last Orbital Gradient      ...    3.2368e-06  Tolerance :   1.0000e-05
  Last Orbital Rotation      ...    3.5201e-06  Tolerance :   1.0000e-05


----------------
ORBITAL ENERGIES
----------------

  NO   OCC          E(Eh)            E(eV) 
   0   2.0000     -77.040014     -2096.3654 
   1   2.0000     -10.191792      -277.3328 
   2   2.0000     -10.191612      -277.3279 
   3   2.0000     -10.191354      -277.3209 
   4   2.0000     -10.190221      -277.2900 
   5   2.0000     -10.189748      -277.2771 
   6   2.0000     -10.189048      -277.2581 
   7   2.0000     -10.188411      -277.2408 
   8   2.0000     -10.186748      -277.1955 
   9   2.0000     -10.185589      -277.1640 
  10   2.0000     -10.185412      -277.1592 
  11   2.0000     -10.184846      -277.1438 
  12   2.0000     -10.183053      -277.0950 
  13   2.0000     -10.182321      -277.0750 
  14   2.0000     -10.181053      -277.0405 
  15   2.0000     -10.173332      -276.8304 
  16   2.0000      -6.537382      -177.8912 
  17   2.0000      -4.702961      -127.9741 
  18   2.0000      -4.702604      -127.9644 
  19   2.0000      -4.699730      -127.8861 
  20   2.0000      -0.850486       -23.1429 
  21   2.0000      -0.842634       -22.9292 
  22   2.0000      -0.786466       -21.4008 
  23   2.0000      -0.753944       -20.5159 
  24   2.0000      -0.739010       -20.1095 
  25   2.0000      -0.734915       -19.9981 
  26   2.0000      -0.731875       -19.9153 
  27   2.0000      -0.686619       -18.6839 
  28   2.0000      -0.624514       -16.9939 
  29   2.0000      -0.600971       -16.3533 
  30   2.0000      -0.597909       -16.2699 
  31   2.0000      -0.589965       -16.0538 
  32   2.0000      -0.578698       -15.7472 
  33   2.0000      -0.547964       -14.9108 
  34   2.0000      -0.515101       -14.0166 
  35   2.0000      -0.495809       -13.4917 
  36   2.0000      -0.466656       -12.6984 
  37   2.0000      -0.454667       -12.3721 
  38   2.0000      -0.452152       -12.3037 
  39   2.0000      -0.447581       -12.1793 
  40   2.0000      -0.442169       -12.0320 
  41   2.0000      -0.422422       -11.4947 
  42   2.0000      -0.420377       -11.4390 
  43   2.0000      -0.415210       -11.2984 
  44   2.0000      -0.412886       -11.2352 
  45   2.0000      -0.401935       -10.9372 
  46   2.0000      -0.384984       -10.4759 
  47   2.0000      -0.371160       -10.0998 
  48   2.0000      -0.365352        -9.9417 
  49   2.0000      -0.364057        -9.9065 
  50   2.0000      -0.347728        -9.4622 
  51   2.0000      -0.344235        -9.3671 
  52   2.0000      -0.342082        -9.3085 
  53   2.0000      -0.332395        -9.0449 
  54   2.0000      -0.319572        -8.6960 
  55   2.0000      -0.313605        -8.5336 
  56   2.0000      -0.271173        -7.3790 
  57   2.0000      -0.257580        -7.0091 
  58   2.0000      -0.256164        -6.9706 
  59   2.0000      -0.249500        -6.7892 
  60   2.0000      -0.208690        -5.6787 
  61   0.0000      -0.023674        -0.6442 
  62   0.0000      -0.014655        -0.3988 
  63   0.0000      -0.010240        -0.2787 
  64   0.0000      -0.001880        -0.0512 
  65   0.0000       0.057306         1.5594 
  66   0.0000       0.061705         1.6791 
  67   0.0000       0.065933         1.7941 
  68   0.0000       0.085773         2.3340 
  69   0.0000       0.090828         2.4716 
  70   0.0000       0.092637         2.5208 
  71   0.0000       0.098019         2.6672 
*Only the first 10 virtual orbitals were printed.

                    ********************************
                    * MULLIKEN POPULATION ANALYSIS *
                    ********************************

-----------------------
MULLIKEN ATOMIC CHARGES
-----------------------
   0 C :    0.019267
   1 C :    0.014730
   2 C :   -0.150630
   3 P :    0.270933
   4 C :   -0.093510
   5 C :    0.007181
   6 C :    0.025316
   7 C :    0.020602
   8 C :    0.030329
   9 C :   -0.012676
  10 C :   -0.144892
  11 C :    0.023690
  12 C :    0.021340
  13 C :    0.028599
  14 C :    0.025804
  15 C :    0.032177
  16 H :    0.008111
  17 H :    0.004337
  18 H :    0.003371
  19 H :    0.006427
  20 H :    0.014817
  21 H :    0.018870
  22 H :    0.037081
  23 H :   -0.018617
  24 H :   -0.021843
  25 H :   -0.023101
  26 H :   -0.024399
  27 H :   -0.031261
  28 H :   -0.021763
  29 H :   -0.018968
  30 H :   -0.018142
  31 H :   -0.020905
  32 H :   -0.012274
Sum of atomic charges:   -0.0000000

--------------------------------
MULLIKEN REDUCED ORBITAL CHARGES
--------------------------------
  0 C s       :     2.982602  s :     2.982602
      pz      :     0.994280  p :     2.968291
      px      :     0.981171
      py      :     0.992840
      dz2     :     0.008654  d :     0.029840
      dxz     :     0.005356
      dyz     :     0.002979
      dx2y2   :     0.004145
      dxy     :     0.008705

  1 C s       :     2.997934  s :     2.997934
      pz      :     1.000961  p :     2.949355
      px      :     0.975829
      py      :     0.972565
      dz2     :     0.008510  d :     0.037981
      dxz     :     0.006683
      dyz     :     0.005826
      dx2y2   :     0.006732
      dxy     :     0.010230

  2 C s       :     3.080775  s :     3.080775
      pz      :     1.011847  p :     3.038952
      px      :     1.010174
      py      :     1.016931
      dz2     :     0.007049  d :     0.030903
      dxz     :     0.005539
      dyz     :     0.005629
      dx2y2   :     0.005514
      dxy     :     0.007173

  3 P s       :     5.720051  s :     5.720051
      pz      :     3.299789  p :     8.834346
      px      :     2.758039
      py      :     2.776518
      dz2     :     0.017335  d :     0.174670
      dxz     :     0.042632
      dyz     :     0.030993
      dx2y2   :     0.039659
      dxy     :     0.044051

  4 C s       :     3.054334  s :     3.054334
      pz      :     0.987125  p :     3.002665
      px      :     1.008335
      py      :     1.007204
      dz2     :     0.003304  d :     0.036512
      dxz     :     0.006150
      dyz     :     0.005279
      dx2y2   :     0.010683
      dxy     :     0.011096

  5 C s       :     3.212650  s :     3.212650
      pz      :     0.971985  p :     2.745433
      px      :     0.921937
      py      :     0.851511
      dz2     :     0.002624  d :     0.034737
      dxz     :     0.005327
      dyz     :     0.003957
      dx2y2   :     0.010405
      dxy     :     0.012424

  6 C s       :     3.157606  s :     3.157606
      pz      :     0.984601  p :     2.781660
      px      :     0.831557
      py      :     0.965503
      dz2     :     0.003120  d :     0.035418
      dxz     :     0.002830
      dyz     :     0.006446
      dx2y2   :     0.012738
      dxy     :     0.010285

  7 C s       :     3.156787  s :     3.156787
      pz      :     0.986761  p :     2.787223
      px      :     0.937849
      py      :     0.862613
      dz2     :     0.002878  d :     0.035388
      dxz     :     0.005922
      dyz     :     0.003399
      dx2y2   :     0.011196
      dxy     :     0.011994

  8 C s       :     3.154944  s :     3.154944
      pz      :     0.978349  p :     2.779383
      px      :     0.922097
      py      :     0.878937
      dz2     :     0.002579  d :     0.035344
      dxz     :     0.005721
      dyz     :     0.003884
      dx2y2   :     0.010747
      dxy     :     0.012413

  9 C s       :     3.214558  s :     3.214558
      pz      :     0.997290  p :     2.763204
      px      :     0.836820
      py      :     0.929094
      dz2     :     0.003062  d :     0.034915
      dxz     :     0.002591
      dyz     :     0.006260
      dx2y2   :     0.013101
      dxy     :     0.009901

 10 C s       :     3.087035  s :     3.087035
      pz      :     0.998571  p :     3.021121
      px      :     1.008194
      py      :     1.014355
      dz2     :     0.009620  d :     0.036736
      dxz     :     0.007215
      dyz     :     0.009810
      dx2y2   :     0.004565
      dxy     :     0.005526

 11 C s       :     3.223603  s :     3.223603
      pz      :     0.835255  p :     2.717566
      px      :     0.940173
      py      :     0.942139
      dz2     :     0.008767  d :     0.035141
      dxz     :     0.004773
      dyz     :     0.008668
      dx2y2   :     0.006631
      dxy     :     0.006302

 12 C s       :     3.160676  s :     3.160676
      pz      :     0.937875  p :     2.782993
      px      :     0.964694
      py      :     0.880424
      dz2     :     0.009123  d :     0.034991
      dxz     :     0.007099
      dyz     :     0.009825
      dx2y2   :     0.004541
      dxy     :     0.004403

 13 C s       :     3.157952  s :     3.157952
      pz      :     0.931536  p :     2.778018
      px      :     0.931422
      py      :     0.915060
      dz2     :     0.008774  d :     0.035431
      dxz     :     0.006938
      dyz     :     0.010347
      dx2y2   :     0.004050
      dxy     :     0.005323

 14 C s       :     3.159922  s :     3.159922
      pz      :     0.844152  p :     2.779156
      px      :     0.972009
      py      :     0.962996
      dz2     :     0.008920  d :     0.035118
      dxz     :     0.004913
      dyz     :     0.008495
      dx2y2   :     0.006542
      dxy     :     0.006249

 15 C s       :     3.209738  s :     3.209738
      pz      :     0.931074  p :     2.722874
      px      :     0.930280
      py      :     0.861520
      dz2     :     0.008876  d :     0.035210
      dxz     :     0.007192
      dyz     :     0.010159
      dx2y2   :     0.004674
      dxy     :     0.004309

 16 H s       :     0.968654  s :     0.968654
      pz      :     0.004823  p :     0.023235
      px      :     0.006443
      py      :     0.011969

 17 H s       :     0.972269  s :     0.972269
      pz      :     0.013147  p :     0.023394
      px      :     0.004523
      py      :     0.005723

 18 H s       :     0.973251  s :     0.973251
      pz      :     0.006182  p :     0.023378
      px      :     0.008050
      py      :     0.009146

 19 H s       :     0.971394  s :     0.971394
      pz      :     0.012764  p :     0.022179
      px      :     0.004513
      py      :     0.004902

 20 H s       :     0.962637  s :     0.962637
      pz      :     0.006291  p :     0.022545
      px      :     0.007366
      py      :     0.008888

 21 H s       :     0.958329  s :     0.958329
      pz      :     0.012940  p :     0.022801
      px      :     0.005006
      py      :     0.004855

 22 H s       :     0.939832  s :     0.939832
      pz      :     0.006366  p :     0.023087
      px      :     0.008024
      py      :     0.008697

 23 H s       :     0.995388  s :     0.995388
      pz      :     0.005350  p :     0.023229
      px      :     0.007069
      py      :     0.010810

 24 H s       :     0.998853  s :     0.998853
      pz      :     0.004728  p :     0.022990
      px      :     0.014726
      py      :     0.003537

 25 H s       :     1.000075  s :     1.000075
      pz      :     0.005016  p :     0.023026
      px      :     0.005727
      py      :     0.012283

 26 H s       :     1.001395  s :     1.001395
      pz      :     0.005284  p :     0.023005
      px      :     0.006807
      py      :     0.010913

 27 H s       :     1.007975  s :     1.007975
      pz      :     0.004941  p :     0.023286
      px      :     0.014673
      py      :     0.003672

 28 H s       :     0.998658  s :     0.998658
      pz      :     0.014231  p :     0.023104
      px      :     0.004818
      py      :     0.004056

 29 H s       :     0.995969  s :     0.995969
      pz      :     0.005776  p :     0.022999
      px      :     0.005621
      py      :     0.011602

 30 H s       :     0.995198  s :     0.995198
      pz      :     0.006533  p :     0.022944
      px      :     0.007925
      py      :     0.008487

 31 H s       :     0.997921  s :     0.997921
      pz      :     0.013993  p :     0.022984
      px      :     0.004881
      py      :     0.004110

 32 H s       :     0.989160  s :     0.989160
      pz      :     0.005853  p :     0.023114
      px      :     0.005472
      py      :     0.011789



                     *******************************
                     * LOEWDIN POPULATION ANALYSIS *
                     *******************************

----------------------
LOEWDIN ATOMIC CHARGES
----------------------
   0 C :   -0.051462
   1 C :   -0.042502
   2 C :   -0.171531
   3 P :    0.498151
   4 C :   -0.173790
   5 C :   -0.028830
   6 C :   -0.023257
   7 C :   -0.029651
   8 C :   -0.023893
   9 C :   -0.040459
  10 C :   -0.178910
  11 C :   -0.026786
  12 C :   -0.025954
  13 C :   -0.018086
  14 C :   -0.024764
  15 C :   -0.018373
  16 H :    0.022363
  17 H :    0.019431
  18 H :    0.018507
  19 H :    0.019494
  20 H :    0.021412
  21 H :    0.013678
  22 H :    0.020472
  23 H :    0.024139
  24 H :    0.025610
  25 H :    0.024139
  26 H :    0.024689
  27 H :    0.019930
  28 H :    0.023118
  29 H :    0.026136
  30 H :    0.026106
  31 H :    0.025797
  32 H :    0.025075

-------------------------------
LOEWDIN REDUCED ORBITAL CHARGES
-------------------------------
  0 C s       :     2.836476  s :     2.836476
      pz      :     1.051616  p :     3.140780
      px      :     1.029784
      py      :     1.059380
      dz2     :     0.020669  d :     0.074206
      dxz     :     0.014311
      dyz     :     0.007174
      dx2y2   :     0.010940
      dxy     :     0.021112

  1 C s       :     2.835204  s :     2.835204
      pz      :     1.056247  p :     3.115711
      px      :     1.031694
      py      :     1.027770
      dz2     :     0.020684  d :     0.091587
      dxz     :     0.016812
      dyz     :     0.012960
      dx2y2   :     0.016136
      dxy     :     0.024994

  2 C s       :     2.893292  s :     2.893292
      pz      :     1.081038  p :     3.203029
      px      :     1.069675
      py      :     1.052315
      dz2     :     0.018013  d :     0.075211
      dxz     :     0.013949
      dyz     :     0.012167
      dx2y2   :     0.012612
      dxy     :     0.018470

  3 P s       :     5.259786  s :     5.259786
      pz      :     3.378839  p :     9.003672
      px      :     2.804139
      py      :     2.820694
      dz2     :     0.023184  d :     0.238390
      dxz     :     0.057039
      dyz     :     0.041398
      dx2y2   :     0.055123
      dxy     :     0.061647

  4 C s       :     2.913583  s :     2.913583
      pz      :     0.988656  p :     3.168780
      px      :     1.087594
      py      :     1.092530
      dz2     :     0.007369  d :     0.091427
      dxz     :     0.013284
      dyz     :     0.010982
      dx2y2   :     0.029859
      dxy     :     0.029934

  5 C s       :     2.862890  s :     2.862890
      pz      :     0.975532  p :     3.075085
      px      :     1.053377
      py      :     1.046176
      dz2     :     0.006200  d :     0.090856
      dxz     :     0.011577
      dyz     :     0.008278
      dx2y2   :     0.029479
      dxy     :     0.035322

  6 C s       :     2.859660  s :     2.859660
      pz      :     0.972674  p :     3.071916
      px      :     1.036368
      py      :     1.062874
      dz2     :     0.007282  d :     0.091681
      dxz     :     0.005563
      dyz     :     0.014683
      dx2y2   :     0.034817
      dxy     :     0.029336

  7 C s       :     2.858322  s :     2.858322
      pz      :     0.977369  p :     3.079411
      px      :     1.062671
      py      :     1.039371
      dz2     :     0.006821  d :     0.091918
      dxz     :     0.013175
      dyz     :     0.007095
      dx2y2   :     0.031605
      dxy     :     0.033222

  8 C s       :     2.860062  s :     2.860062
      pz      :     0.972086  p :     3.072347
      px      :     1.060001
      py      :     1.040260
      dz2     :     0.006207  d :     0.091483
      dxz     :     0.012433
      dyz     :     0.008115
      dx2y2   :     0.030373
      dxy     :     0.034355

  9 C s       :     2.861126  s :     2.861126
      pz      :     0.986740  p :     3.087675
      px      :     1.038509
      py      :     1.062426
      dz2     :     0.007071  d :     0.091658
      dxz     :     0.005121
      dyz     :     0.014165
      dx2y2   :     0.036794
      dxy     :     0.028507

 10 C s       :     2.912963  s :     2.912963
      pz      :     1.088767  p :     3.173358
      px      :     1.022067
      py      :     1.062524
      dz2     :     0.025966  d :     0.092590
      dxz     :     0.017589
      dyz     :     0.026348
      dx2y2   :     0.010156
      dxy     :     0.012531

 11 C s       :     2.867973  s :     2.867973
      pz      :     1.035696  p :     3.066939
      px      :     0.990295
      py      :     1.040947
      dz2     :     0.023448  d :     0.091873
      dxz     :     0.011901
      dyz     :     0.023487
      dx2y2   :     0.015709
      dxy     :     0.017328

 12 C s       :     2.860558  s :     2.860558
      pz      :     1.054547  p :     3.074593
      px      :     0.997228
      py      :     1.022819
      dz2     :     0.025155  d :     0.090802
      dxz     :     0.018219
      dyz     :     0.026305
      dx2y2   :     0.010005
      dxy     :     0.011118

 13 C s       :     2.860277  s :     2.860277
      pz      :     1.053235  p :     3.066094
      px      :     0.983174
      py      :     1.029685
      dz2     :     0.024225  d :     0.091715
      dxz     :     0.016924
      dyz     :     0.028220
      dx2y2   :     0.009299
      dxy     :     0.013047

 14 C s       :     2.860505  s :     2.860505
      pz      :     1.031635  p :     3.073139
      px      :     0.998356
      py      :     1.043148
      dz2     :     0.023235  d :     0.091121
      dxz     :     0.012245
      dyz     :     0.023439
      dx2y2   :     0.015420
      dxy     :     0.016783

 15 C s       :     2.864700  s :     2.864700
      pz      :     1.053378  p :     3.061536
      px      :     0.985929
      py      :     1.022229
      dz2     :     0.024794  d :     0.092137
      dxz     :     0.018917
      dyz     :     0.027216
      dx2y2   :     0.010288
      dxy     :     0.010923

 16 H s       :     0.912780  s :     0.912780
      pz      :     0.012534  p :     0.064857
      px      :     0.018898
      py      :     0.033425

 17 H s       :     0.915783  s :     0.915783
      pz      :     0.037321  p :     0.064785
      px      :     0.013356
      py      :     0.014108

 18 H s       :     0.916793  s :     0.916793
      pz      :     0.016674  p :     0.064700
      px      :     0.023085
      py      :     0.024941

 19 H s       :     0.914919  s :     0.914919
      pz      :     0.036917  p :     0.065587
      px      :     0.013950
      py      :     0.014721

 20 H s       :     0.912394  s :     0.912394
      pz      :     0.017288  p :     0.066194
      px      :     0.022114
      py      :     0.026792

 21 H s       :     0.915413  s :     0.915413
      pz      :     0.040131  p :     0.070908
      px      :     0.015558
      py      :     0.015220

 22 H s       :     0.909736  s :     0.909736
      pz      :     0.017163  p :     0.069792
      px      :     0.025739
      py      :     0.026890

 23 H s       :     0.907450  s :     0.907450
      pz      :     0.016043  p :     0.068411
      px      :     0.021233
      py      :     0.031135

 24 H s       :     0.906986  s :     0.906986
      pz      :     0.014371  p :     0.067404
      px      :     0.041520
      py      :     0.011513

 25 H s       :     0.908249  s :     0.908249
      pz      :     0.015213  p :     0.067613
      px      :     0.017488
      py      :     0.034911

 26 H s       :     0.907888  s :     0.907888
      pz      :     0.015826  p :     0.067424
      px      :     0.020354
      py      :     0.031244

 27 H s       :     0.910992  s :     0.910992
      pz      :     0.015056  p :     0.069077
      px      :     0.042293
      py      :     0.011728

 28 H s       :     0.908346  s :     0.908346
      pz      :     0.041057  p :     0.068536
      px      :     0.014664
      py      :     0.012815

 29 H s       :     0.906243  s :     0.906243
      pz      :     0.017537  p :     0.067622
      px      :     0.016935
      py      :     0.033150

 30 H s       :     0.906434  s :     0.906434
      pz      :     0.019659  p :     0.067461
      px      :     0.023042
      py      :     0.024759

 31 H s       :     0.906541  s :     0.906541
      pz      :     0.039659  p :     0.067662
      px      :     0.014924
      py      :     0.013078

 32 H s       :     0.906682  s :     0.906682
      pz      :     0.017834  p :     0.068243
      px      :     0.016539
      py      :     0.033869



                      *****************************
                      * MAYER POPULATION ANALYSIS *
                      *****************************

  NA   - Mulliken gross atomic population
  ZA   - Total nuclear charge
  QA   - Mulliken gross atomic charge
  VA   - Mayer's total valence
  BVA  - Mayer's bonded valence
  FA   - Mayer's free valence

  ATOM       NA         ZA         QA         VA         BVA        FA
  0 C      5.9807     6.0000     0.0193     4.0321     4.0321    -0.0000
  1 C      5.9853     6.0000     0.0147     4.0830     4.0830    -0.0000
  2 C      6.1506     6.0000    -0.1506     3.9582     3.9582    -0.0000
  3 P     14.7291    15.0000     0.2709     2.9797     2.9797    -0.0000
  4 C      6.0935     6.0000    -0.0935     3.7523     3.7523    -0.0000
  5 C      5.9928     6.0000     0.0072     3.8941     3.8941    -0.0000
  6 C      5.9747     6.0000     0.0253     3.8612     3.8612    -0.0000
  7 C      5.9794     6.0000     0.0206     3.8332     3.8332    -0.0000
  8 C      5.9697     6.0000     0.0303     3.8547     3.8547    -0.0000
  9 C      6.0127     6.0000    -0.0127     3.9007     3.9007    -0.0000
 10 C      6.1449     6.0000    -0.1449     3.7831     3.7831    -0.0000
 11 C      5.9763     6.0000     0.0237     3.8613     3.8613    -0.0000
 12 C      5.9787     6.0000     0.0213     3.8427     3.8427    -0.0000
 13 C      5.9714     6.0000     0.0286     3.8270     3.8270    -0.0000
 14 C      5.9742     6.0000     0.0258     3.8463     3.8463    -0.0000
 15 C      5.9678     6.0000     0.0322     3.8622     3.8622    -0.0000
 16 H      0.9919     1.0000     0.0081     0.9828     0.9828    -0.0000
 17 H      0.9957     1.0000     0.0043     0.9895     0.9895    -0.0000
 18 H      0.9966     1.0000     0.0034     0.9895     0.9895    -0.0000
 19 H      0.9936     1.0000     0.0064     0.9817     0.9817    -0.0000
 20 H      0.9852     1.0000     0.0148     0.9848     0.9848    -0.0000
 21 H      0.9811     1.0000     0.0189     0.9906     0.9906    -0.0000
 22 H      0.9629     1.0000     0.0371     0.9771     0.9771    -0.0000
 23 H      1.0186     1.0000    -0.0186     0.9903     0.9903    -0.0000
 24 H      1.0218     1.0000    -0.0218     0.9767     0.9767    -0.0000
 25 H      1.0231     1.0000    -0.0231     0.9767     0.9767    -0.0000
 26 H      1.0244     1.0000    -0.0244     0.9762     0.9762     0.0000
 27 H      1.0313     1.0000    -0.0313     0.9906     0.9906    -0.0000
 28 H      1.0218     1.0000    -0.0218     0.9960     0.9960    -0.0000
 29 H      1.0190     1.0000    -0.0190     0.9772     0.9772    -0.0000
 30 H      1.0181     1.0000    -0.0181     0.9770     0.9770    -0.0000
 31 H      1.0209     1.0000    -0.0209     0.9772     0.9772    -0.0000
 32 H      1.0123     1.0000    -0.0123     0.9892     0.9892    -0.0000

  Mayer bond orders larger than 0.100000
B(  0-C ,  1-C ) :   1.1107 B(  0-C , 16-H ) :   0.9651 B(  0-C , 17-H ) :   0.9696 
B(  0-C , 18-H ) :   0.9705 B(  1-C ,  2-C ) :   1.0606 B(  1-C , 19-H ) :   0.9415 
B(  1-C , 20-H ) :   0.9440 B(  2-C ,  3-P ) :   0.9769 B(  2-C , 21-H ) :   0.9259 
B(  2-C , 22-H ) :   0.9349 B(  3-P ,  4-C ) :   0.9160 B(  3-P , 10-C ) :   0.9365 
[...]
      py      :     1.038271
      dz2     :     0.006410  d :     0.090557
      dxz     :     0.013667
      dyz     :     0.010960
      dx2y2   :     0.028219
      dxy     :     0.031301

  9 C s       :     2.864208  s :     2.864208
      pz      :     0.991936  p :     3.086952
      px      :     1.036542
      py      :     1.058474
      dz2     :     0.008176  d :     0.091260
      dxz     :     0.008331
      dyz     :     0.015749
      dx2y2   :     0.032636
      dxy     :     0.026368

 10 C s       :     2.918044  s :     2.918044
      pz      :     1.077922  p :     3.164557
      px      :     1.015010
      py      :     1.071625
      dz2     :     0.023266  d :     0.090769
      dxz     :     0.014482
      dyz     :     0.026321
      dx2y2   :     0.013105
      dxy     :     0.013594

 11 C s       :     2.869399  s :     2.869399
      pz      :     1.029607  p :     3.071173
      px      :     0.985936
      py      :     1.055631
      dz2     :     0.020657  d :     0.091397
      dxz     :     0.010244
      dyz     :     0.025745
      dx2y2   :     0.017097
      dxy     :     0.017655

 12 C s       :     2.863729  s :     2.863729
      pz      :     1.049120  p :     3.073632
      px      :     0.994603
      py      :     1.029910
      dz2     :     0.023826  d :     0.089939
      dxz     :     0.016294
      dyz     :     0.026053
      dx2y2   :     0.013124
      dxy     :     0.010643

 13 C s       :     2.864448  s :     2.864448
      pz      :     1.042259  p :     3.066792
      px      :     0.981993
      py      :     1.042540
      dz2     :     0.021097  d :     0.089920
      dxz     :     0.013742
      dyz     :     0.028913
      dx2y2   :     0.012064
      dxy     :     0.014104

 14 C s       :     2.863590  s :     2.863590
      pz      :     1.026337  p :     3.071914
      px      :     0.992247
      py      :     1.053331
      dz2     :     0.020111  d :     0.090211
      dxz     :     0.010453
      dyz     :     0.025514
      dx2y2   :     0.017144
      dxy     :     0.016989

 15 C s       :     2.866613  s :     2.866613
      pz      :     1.045426  p :     3.065312
      px      :     0.985105
      py      :     1.034781
      dz2     :     0.024152  d :     0.091515
      dxz     :     0.016933
      dyz     :     0.026198
      dx2y2   :     0.013571
      dxy     :     0.010660

 16 H s       :     0.912813  s :     0.912813
      pz      :     0.012145  p :     0.063656
      px      :     0.017885
      py      :     0.033626

 17 H s       :     0.915629  s :     0.915629
      pz      :     0.037197  p :     0.063501
      px      :     0.012667
      py      :     0.013637

 18 H s       :     0.916799  s :     0.916799
      pz      :     0.015893  p :     0.063398
      px      :     0.023324
      py      :     0.024181

 19 H s       :     0.915958  s :     0.915958
      pz      :     0.036895  p :     0.064351
      px      :     0.013073
      py      :     0.014383

 20 H s       :     0.911893  s :     0.911893
      pz      :     0.016425  p :     0.065343
      px      :     0.023031
      py      :     0.025887

 21 H s       :     0.915273  s :     0.915273
      pz      :     0.039794  p :     0.069501
      px      :     0.015022
      py      :     0.014685

 22 H s       :     0.911289  s :     0.911289
      pz      :     0.017080  p :     0.068579
      px      :     0.024963
      py      :     0.026536

 23 H s       :     0.907754  s :     0.907754
      pz      :     0.018675  p :     0.067205
      px      :     0.019662
      py      :     0.028869

 24 H s       :     0.906452  s :     0.906452
      pz      :     0.015127  p :     0.066388
      px      :     0.039672
      py      :     0.011589

 25 H s       :     0.907224  s :     0.907224
      pz      :     0.014604  p :     0.066618
      px      :     0.017198
      py      :     0.034816

 26 H s       :     0.907460  s :     0.907460
      pz      :     0.018669  p :     0.066429
      px      :     0.019441
      py      :     0.028318

 27 H s       :     0.908939  s :     0.908939
      pz      :     0.016081  p :     0.068570
      px      :     0.040552
      py      :     0.011937

 28 H s       :     0.909505  s :     0.909505
      pz      :     0.038134  p :     0.067576
      px      :     0.016311
      py      :     0.013131

 29 H s       :     0.906332  s :     0.906332
      pz      :     0.015110  p :     0.066554
      px      :     0.014514
      py      :     0.036930

 30 H s       :     0.906556  s :     0.906556
      pz      :     0.021111  p :     0.066490
      px      :     0.021423
      py      :     0.023957

 31 H s       :     0.906524  s :     0.906524
      pz      :     0.036796  p :     0.066549
      px      :     0.016210
      py      :     0.013544

 32 H s       :     0.904689  s :     0.904689
      pz      :     0.014776  p :     0.068063
      px      :     0.014393
      py      :     0.038894



                      *****************************
                      * MAYER POPULATION ANALYSIS *
                      *****************************

  NA   - Mulliken gross atomic population
  ZA   - Total nuclear charge
  QA   - Mulliken gross atomic charge
  VA   - Mayer's total valence
  BVA  - Mayer's bonded valence
  FA   - Mayer's free valence

  ATOM       NA         ZA         QA         VA         BVA        FA
  0 C      5.9873     6.0000     0.0127     4.0255     4.0255    -0.0000
  1 C      5.9838     6.0000     0.0162     4.0713     4.0713    -0.0000
  2 C      6.1682     6.0000    -0.1682     3.9558     3.9558    -0.0000
  3 P     14.7200    15.0000     0.2800     2.9685     2.9685    -0.0000
  4 C      6.1301     6.0000    -0.1301     3.7762     3.7762    -0.0000
  5 C      5.9801     6.0000     0.0199     3.8856     3.8856     0.0000
  6 C      5.9800     6.0000     0.0200     3.8612     3.8612    -0.0000
  7 C      5.9797     6.0000     0.0203     3.8293     3.8293    -0.0000
  8 C      5.9726     6.0000     0.0274     3.8415     3.8415    -0.0000
  9 C      6.0097     6.0000    -0.0097     3.8955     3.8955    -0.0000
 10 C      6.1540     6.0000    -0.1540     3.8091     3.8091    -0.0000
 11 C      5.9782     6.0000     0.0218     3.8636     3.8636    -0.0000
 12 C      5.9814     6.0000     0.0186     3.8427     3.8427    -0.0000
 13 C      5.9762     6.0000     0.0238     3.8272     3.8272    -0.0000
 14 C      5.9755     6.0000     0.0245     3.8381     3.8381    -0.0000
 15 C      5.9683     6.0000     0.0317     3.8688     3.8688    -0.0000
 16 H      0.9884     1.0000     0.0116     0.9826     0.9826    -0.0000
 17 H      0.9932     1.0000     0.0068     0.9888     0.9888    -0.0000
 18 H      0.9944     1.0000     0.0056     0.9881     0.9881     0.0000
 19 H      0.9933     1.0000     0.0067     0.9802     0.9802    -0.0000
 20 H      0.9823     1.0000     0.0177     0.9872     0.9872    -0.0000
 21 H      0.9731     1.0000     0.0269     0.9878     0.9878    -0.0000
 22 H      0.9601     1.0000     0.0399     0.9729     0.9729    -0.0000
 23 H      1.0166     1.0000    -0.0166     0.9902     0.9902     0.0000
 24 H      1.0168     1.0000    -0.0168     0.9774     0.9774    -0.0000
 25 H      1.0175     1.0000    -0.0175     0.9773     0.9773    -0.0000
 26 H      1.0203     1.0000    -0.0203     0.9770     0.9770    -0.0000
 27 H      1.0236     1.0000    -0.0236     0.9949     0.9949    -0.0000
 28 H      1.0200     1.0000    -0.0200     0.9939     0.9939     0.0000
 29 H      1.0161     1.0000    -0.0161     0.9776     0.9776    -0.0000
 30 H      1.0152     1.0000    -0.0152     0.9773     0.9773    -0.0000
 31 H      1.0176     1.0000    -0.0176     0.9776     0.9776    -0.0000
 32 H      1.0062     1.0000    -0.0062     0.9905     0.9905    -0.0000

  Mayer bond orders larger than 0.100000
B(  0-C ,  1-C ) :   1.1081 B(  0-C , 16-H ) :   0.9661 B(  0-C , 17-H ) :   0.9696 
B(  0-C , 18-H ) :   0.9708 B(  1-C ,  2-C ) :   1.0568 B(  1-C , 19-H ) :   0.9405 
B(  1-C , 20-H ) :   0.9432 B(  2-C ,  3-P ) :   0.9806 B(  2-C , 21-H ) :   0.9257 
B(  2-C , 22-H ) :   0.9349 B(  3-P ,  4-C ) :   0.9133 B(  3-P , 10-C ) :   0.9300 
B(  4-C ,  5-C ) :   1.3662 B(  4-C ,  9-C ) :   1.3880 B(  5-C ,  6-C ) :   1.4221 
B(  5-C , 23-H ) :   0.9805 B(  6-C ,  7-C ) :   1.3664 B(  6-C , 24-H ) :   0.9844 
B(  7-C ,  8-C ) :   1.3939 B(  7-C , 25-H ) :   0.9845 B(  8-C ,  9-C ) :   1.3814 
B(  8-C , 26-H ) :   0.9817 B(  9-C , 27-H ) :   0.9793 B( 10-C , 11-C ) :   1.3866 
B( 10-C , 15-C ) :   1.3695 B( 11-C , 12-C ) :   1.3793 B( 11-C , 28-H ) :   0.9848 
B( 12-C , 13-C ) :   1.3921 B( 12-C , 29-H ) :   0.9856 B( 13-C , 14-C ) :   1.3687 
B( 13-C , 30-H ) :   0.9845 B( 14-C , 15-C ) :   1.4036 B( 14-C , 31-H ) :   0.9837 
B( 15-C , 32-H ) :   0.9762 

-------
TIMINGS
-------

Total SCF time: 0 days 0 hours 0 min 19 sec 

Total time                  ....      19.567 sec
Sum of individual times     ....      19.318 sec  ( 98.7%)

SCF preparation             ....       0.119 sec  (  0.6%)
Fock matrix formation       ....      17.315 sec  ( 88.5%)
  Startup                   ....       0.119 sec  (  0.7% of F)
  Exchange formation        ....      12.837 sec  ( 74.1% of F)
  Split-RI-J                ....       1.501 sec  (  8.7% of F)
  XC integration            ....       2.537 sec  ( 14.7% of F)
    Basis function eval.    ....       0.791 sec  ( 31.2% of XC)
    Density eval.           ....       0.701 sec  ( 27.6% of XC)
    XC-Functional eval.     ....       0.072 sec  (  2.8% of XC)
    XC-Potential eval.      ....       0.516 sec  ( 20.3% of XC)
Diagonalization             ....       0.000 sec  (  0.0%)
Density matrix formation    ....       0.214 sec  (  1.1%)
Total Energy calculation    ....       0.189 sec  (  1.0%)
Population analysis         ....       0.440 sec  (  2.2%)
Orbital Transformation      ....       0.200 sec  (  1.0%)
Orbital Orthonormalization  ....       0.000 sec  (  0.0%)
DIIS solution               ....       0.220 sec  (  1.1%)
SOSCF solution              ....       0.621 sec  (  3.2%)
Finished LeanSCF after  19.7 sec

Maximum memory used throughout the entire LEANSCF-calculation: 33.3 MB


-------------------------------------------------------------------------------
                          DFT DISPERSION CORRECTION                            
                                                                               
                              DFTD3 V3.1  Rev 1                                
                          USING Becke-Johnson damping                          
-------------------------------------------------------------------------------
The B3LYP functional is recognized
Active option DFTDOPT                   ...         4   

molecular C6(AA) [au] = 13223.962276 


            DFT-D V3
 parameters
 s6 scaling factor         :     1.0000 
 a1 scaling factor         :     0.3981 
 s8 scaling factor         :     1.9889 
 a2 scaling factor         :     4.4211 
 ad hoc parameters k1-k3   :    16.0000     1.3333    -4.0000 

 Edisp/kcal,au: -46.183834274698  -0.073598616845 
 E6   /kcal   : -21.163301024 
 E8   /kcal   : -25.020533251 
 % E8         :  54.175954951 

-------------------------   ----------------
Dispersion correction           -0.073598617
-------------------------   ----------------


-------------------------   --------------------
FINAL SINGLE POINT ENERGY      -922.309337836872
-------------------------   --------------------

                                *** OPTIMIZATION RUN DONE ***



           ************************************************************
           *        Program running with 6 parallel MPI-processes     *
           *              working on a common directory               *
           ************************************************************

------------------------------------------------------------------------------
                              ORCA PROPERTY CALCULATIONS
------------------------------------------------------------------------------

GBWName                                 ... data/geom_opt/82100/82100.gbw
Number of atoms                         ...     33
Number of basis functions               ...    313
Max core memory                         ...   1024 MB

Electric properties:
Dipole moment                           ... YES
Quadrupole moment                       ...  NO
Static polarizability (Dipole/Dipole)   ...  NO
Static polarizability (Dipole/Quad.)    ...  NO
Static polarizability (Quad./Quad.)     ...  NO
Static polarizability (Velocity)        ...  NO

Atomic electric properties:
Dipole moment                           ...  NO
Quadrupole moment                       ...  NO
Static polarizability                   ...  NO

Choice of electric origin               ... Center of mass
Position of electric origin             ...    -0.549482     0.183909     0.580620

General magnetic properties:
Magnetizability                         ...  NO

EPR properties:
g-Tensor (aka g-matrix)                 ...  NO
Zero-Field splitting spin-orbit         ...  NO
Zero-field splitting spin-spin          ...  NO
Hyperfine couplings                     ...  NO (   0 nuclei)
Quadrupole couplings                    ...  NO (   0 nuclei)
Contact density                         ...  NO (   0 nuclei)

NMR properties:
Chemical shifts                         ...  NO (   0 nuclei)
Spin-rotation constants                 ...  NO (   0 nuclei)
Spin-spin couplings                     ...  NO (   0 nuclei,    0 pairs)

Choice of magnetic origin               ... GIAO
Position of magnetic origin             ...     0.000000     0.000000     0.000000

Properties with geometric perturbations:
SCF Hessian                             ...  NO
IR spectrum                             ...  NO
VCD spectrum                            ...  NO
X-ray spectroscopy properties:
SCF XES/XAS/RIXS spectra                ...  NO


-------------
DIPOLE MOMENT
-------------

Method             : SCF
Type of density    : Electron Density
Multiplicity       :   1
Irrep              :   0
Energy             :  -922.2357392200269715 Eh
Relativity type    : 
Basis              : AO
                                X                 Y                 Z
Electronic contribution:    -10.255908134       3.342797046       5.712162252
Nuclear contribution   :     10.250991014      -3.377870038      -6.208689375
                        -----------------------------------------
Total Dipole Moment    :     -0.004917120      -0.035072992      -0.496527123
                        -----------------------------------------
Magnitude (a.u.)       :      0.497788586
Magnitude (Debye)      :      1.265278033



--------------------
Rotational spectrum 
--------------------
 
Rotational constants in cm-1:             0.019345             0.012101             0.008646 
Rotational constants in MHz :           579.945534           362.785210           259.210715 

Dipole components along the rotational axes: 
x,y,z [a.u.] :    -0.116717    -0.078662    -0.477476 
x,y,z [Debye]:    -0.296670    -0.199944    -1.213646 

 

Dipole moment calculation done in   0.0 sec 

Maximum memory used throughout the entire PROP-calculation: 16.7 MB

--------------------------------
SUGGESTED CITATIONS FOR THIS RUN
--------------------------------

Below you find a list of papers that are relevant to this ORCA run
We neither can nor want to force you to cite these papers, but we appreciate if you do
You receive ORCA, which is the product of decades of hard work by many enthusiastic individuals, for free
The only thing we kindly ask in return is that you cite our papers,
We deeply appreciate it, if you show your appreciation for ORCA by not just citing the generic ORCA reference.

Please note that relegating all ORCA citations to the supporting information does *not* help us.
SI sections are not indexed - citations you put there will not count into any citation statistics
But we need these citations in order to attract the funding resources that allow us to do what we are doing

Therefore, if you are a happy ORCA user, please consider citing a few of the papers listed below in the main body of your paper

In addition to the list printed below, the program has created the file data/geom_opt/82100/82100.bibtex that contains the list in bibtex format
You can import this file easily into all common literature databanks and citation aid programs


List of essential papers. We consider these as the minimum necessary citations

  1. Neese,F.
     Software update: the ORCA program system, version 5.0
     WIRES Comput. Molec. Sci., 2022 12(1)e1606
     doi.org/10.1002/wcms.1606

List of papers to cite with high priority. The work reported in these papers was absolutely
necessary for this run to complete.
Our perspective: the developers of density functionals and basis sets usually get cited in chemistry papers
Good! But without the algorithms to do something with them, the functionals or basis sets would not do anything.
Hence, in our opinion, the algorithm design and method developments papers are equally worthy of getting cited

  1. Neese,F.
     An improvement of the resolution of the identity approximation for the formation of the Coulomb matrix
     J. Comp. Chem., 2003 24(14)1740-1747
     doi.org/10.1002/jcc.10318
  2. Neese,F.
     The SHARK Integral Generation and Digestion System
     J. Comp. Chem., 2022  1-16
     doi.org/10.1002/jcc.26942
  3. Grimme,S.; Antony,J.; Ehrlich,S.; Krieg,H.
     A consistent and accurate ab initio parametrization of density functional dispersion correction (DFT-D) for the 94 elements H-Pu
     J. Chem. Phys., 2010 132 154104-XXXX
     doi.org/10.1063/1.3382344
  4. Grimme,S.; Ehrlich,S.; Goerigk,L.
     Effect of the damping function in dispersion corrected density functional theory
     J. Comput. Chem., 2011 32(7)1456-1465
     doi.org/10.1002/jcc.21759

List of suggested additional citations. These are papers that are important in the 'surrounding' of 
of this run, or papers that preceded the highly important papers. If you like your results we are grateful for a citation.

  1. Neese,F.
     The ORCA program system
     WIRES Comput. Molec. Sci., 2012 2(1)73-78
     doi.org/10.1002/wcms.81
  2. Neese,F.
     Software update: the ORCA program system, version 4.0
     WIRES Comput. Molec. Sci., 2018 8(1)1-6
     doi.org/10.1002/wcms.1327
  3. Neese,F.; Wennmohs,F.; Becker,U.; Riplinger,C.
     The ORCA quantum chemistry program package
     J. Chem. Phys., 2020 152 Art. No. L224108
     doi.org/10.1063/5.0004608

List of optional additional citations

  1. Neese,F.
     Approximate second-order SCF convergence for spin unrestricted wavefunctions
     Chem. Phys. Lett., 2000 325(1-3)93-98
     doi.org/10.1016/s0009-2614(00)00662-x

Timings for individual modules:

Sum of individual times          ...      547.710 sec (=   9.128 min)
Startup calculation              ...       16.652 sec (=   0.278 min)   3.0 %
SCF iterations                   ...      345.821 sec (=   5.764 min)  63.1 %
Property calculations            ...        0.211 sec (=   0.004 min)   0.0 %
SCF Gradient evaluation          ...      184.807 sec (=   3.080 min)  33.7 %
Geometry relaxation              ...        0.219 sec (=   0.004 min)   0.0 %
                             ****ORCA TERMINATED NORMALLY****
TOTAL RUN TIME: 0 days 0 hours 9 minutes 10 seconds 725 msec
