
                                 *****************
                                 * O   R   C   A *
                                 *****************

                                            #,                                       
                                            ###                                      
                                            ####                                     
                                            #####                                    
                                            ######                                   
                                           ########,                                 
                                     ,,################,,,,,                         
                               ,,#################################,,                 
                          ,,##########################################,,             
                       ,#########################################, ''#####,          
                    ,#############################################,,   '####,        
                  ,##################################################,,,,####,       
                ,###########''''           ''''###############################       
              ,#####''   ,,,,##########,,,,          '''####'''          '####       
            ,##' ,,,,###########################,,,                        '##       
           ' ,,###''''                  '''############,,,                           
         ,,##''                                '''############,,,,        ,,,,,,###''
      ,#''                                            '''#######################'''  
     '                                                          ''''####''''         
             ,#######,   #######,   ,#######,      ##                                
            ,#'     '#,  ##    ##  ,#'     '#,    #''#        ,####,   ,####,        
            ##       ##  ##   ,#'  ##            #'  '#       #'       #'  '#        
            ##       ##  #######   ##           ,######,      #####,   #    #        
            '#,     ,#'  ##    ##  '#,     ,#' ,#      #,     #,   #   #,  ,#        
             '#######'   ##     ##  '#######'  #'      '#     '####' # '####'        



                #########################################################
                #                        -***-                          #
                #          Department of theory and spectroscopy        #
                #                                                       #
                #                      Frank Neese                      #
                #                                                       #
                #     Directorship, Architecture, Infrastructure        #
                #                    SHARK, DRIVERS                     #
                #        Core code/Algorithms in most modules           #
                #                                                       #
                #        Max Planck Institute fuer Kohlenforschung      #
                #                Kaiser Wilhelm Platz 1                 #
                #                 D-45470 Muelheim/Ruhr                 #
                #                      Germany                          #
                #                                                       #
                #                  All rights reserved                  #
                #                        -***-                          #
                #########################################################


                         Program Version 6.0.0  -   RELEASE   -


 With contributions from (in alphabetic order):
   Daniel Aravena         : Magnetic Suceptibility
   Michael Atanasov       : Ab Initio Ligand Field Theory (pilot matlab implementation)
   Alexander A. Auer      : GIAO ZORA, VPT2 properties, NMR spectrum
   Ute Becker             : All parallelization in ORCA, NUMFREQ, NUMCALC
   Giovanni Bistoni       : ED, misc. LED, open-shell LED, HFLD
   Martin Brehm           : Molecular dynamics
   Dmytro Bykov           : pre 5.0 version of the SCF Hessian
   Marcos Casanova-Páez   : Triplet and SCS-CIS(D). UHF-(DLPNO)-IP/EA/STEOM-CCSD. UHF-CVS-IP/STEOM-CCSD
   Vijay G. Chilkuri      : MRCI spin determinant printing, contributions to CSF-ICE
   Pauline Colinet        : FMM embedding
   Dipayan Datta          : RHF DLPNO-CCSD density
   Achintya Kumar Dutta   : EOM-CC, STEOM-CC
   Nicolas Foglia         : Exact transition moments, OPA infrastructure, MCD improvements
   Dmitry Ganyushin       : Spin-Orbit,Spin-Spin,Magnetic field MRCI
   Miquel Garcia          : C-PCM and meta-GGA Hessian, CCSD/C-PCM, Gaussian charge scheme
   Tiago L. C. Gouveia    : GS-ROHF, GS-ROCIS
   Yang Guo               : DLPNO-NEVPT2, F12-NEVPT2, CIM, IAO-localization
   Andreas Hansen         : Spin unrestricted coupled pair/coupled cluster methods
   Ingolf Harden          : AUTO-CI MPn and infrastructure 
   Benjamin Helmich-Paris : MC-RPA, TRAH-(SCF,CASSCF), AVAS, COSX integrals, SCF dyn. polar.
   Lee Huntington         : MR-EOM, pCC
   Robert Izsak           : Overlap fitted RIJCOSX, COSX-SCS-MP3, EOM
   Riya Kayal             : Wick's Theorem for AUTO-CI, AUTO-CI UHF-CCSDT
   Emily Kempfer          : AUTO-CI, RHF CISDT and CCSDT
   Christian Kollmar      : KDIIS, OOCD, Brueckner-CCSD(T), CCSD density, CASPT2, CASPT2-K, improved NEVPT2
   Axel Koslowski         : Symmetry handling
   Simone Kossmann        : Meta GGA functionals, TD-DFT gradient, OOMP2, (MP2 Hessian; deprecated post 5.0)
   Lucas Lang             : DCDCAS
   Marvin Lechner         : AUTO-CI (C++ implementation), FIC-MRCC
   Spencer Leger          : CASSCF response
   Dagmar Lenk            : GEPOL surface, SMD, ORCA-2-JSON
   Dimitrios Liakos       : Extrapolation schemes; Compound Job, initial MDCI parallelization
   Dimitrios Manganas     : Further ROCIS development; embedding schemes. LFT, Crystal Embedding
   Dimitrios Pantazis     : SARC Basis sets
   Anastasios Papadopoulos: AUTO-CI, single reference methods and gradients
   Taras Petrenko         : pre 6.0 DFT Hessian and TD-DFT gradient, (ASA, deprecated), ECA, 1-Electron XAS/XES, NRVS
   Peter Pinski           : DLPNO-MP2, DLPNO-MP2 Gradient
   Christoph Reimann      : Effective Core Potentials
   Marius Retegan         : Local ZFS, SOC
   Christoph Riplinger    : Optimizer, TS searches, QM/MM, DLPNO-CCSD(T), (RO)-DLPNO pert. Triples
   Michael Roemelt        : Original ROCIS implementation
   Masaaki Saitow         : Open-shell DLPNO-CCSD energy and density
   Barbara Sandhoefer     : DKH picture change effects
   Kantharuban Sivalingam : CASSCF convergence/infrastructure, NEVPT2 and variants, FIC-MRCI
   Bernardo de Souza      : ESD, SOC TD-DFT
   Georgi Stoychev        : AutoAux, RI-MP2 NMR, DLPNO-MP2 response, X2C
   Van Anh Tran           : RI-MP2 g-tensors
   Willem Van den Heuvel  : Paramagnetic NMR
   Zikuan Wang            : NOTCH, Electric field optimization 
   Frank Wennmohs         : Technical directorship and infrastructure
   Hang Xu                : AUTO-CI-Response properties 


 We gratefully acknowledge several colleagues who have allowed us to
 interface, adapt or use parts of their codes:
   Stefan Grimme, W. Hujo, H. Kruse, P. Pracht,  : VdW corrections, initial TS optimization,
                  C. Bannwarth, S. Ehlert,         DFT functionals, gCP, sTDA/sTD-DF
                  L. Wittmann, M. Mueller
   Ed Valeev, F. Pavosevic, A. Kumar             : LibInt (2-el integral package), F12 methods
   Garnet Chan, S. Sharma, J. Yang, R. Olivares  : DMRG
   Ulf Ekstrom                                   : XCFun DFT Library
   Mihaly Kallay                                 : mrcc  (arbitrary order and MRCC methods)
   Frank Weinhold                                : gennbo (NPA and NBO analysis)
   Simon Mueller                                 : openCOSMO-RS
   Christopher J. Cramer and Donald G. Truhlar   : smd solvation model
   Lars Goerigk                                  : TD-DFT with DH, B97 family of functionals
   V. Asgeirsson, H. Jonsson                     : NEB implementation
   FAccTs GmbH                                   : IRC, NEB, NEB-TS, DLPNO-Multilevel, CI-OPT
                                                   MM, QMMM, 2- and 3-layer-ONIOM, Crystal-QMMM,
                                                   LR-CPCM, SF, NACMEs, symmetry and pop. for TD-DFT,
                                                   nearIR, NL-DFT gradient (VV10), updates on ESD,
                                                   ML-optimized integration grids, MBIS, APM,
                                                   GOAT, DOCKER, SOLVATOR, interface openCOSMO-RS
   S Lehtola, MJT Oliveira, MAL Marques          : LibXC Library
   Liviu Ungur et al                             : ANISO software


 Your calculation uses the libint2 library for the computation of 2-el integrals
 For citations please refer to: http://libint.valeyev.net

 Your ORCA version has been built with support for libXC version: 6.2.2
 For citations please refer to: https://libxc.gitlab.io

 This ORCA versions uses:
   CBLAS   interface :  Fast vector & matrix operations
   LAPACKE interface :  Fast linear algebra routines
   Shared memory     :  Shared parallel matrices


Your calculation utilizes the atom-pairwise dispersion correction
with the zero-damping scheme (D30)


XCFun DFT library Copyright 2009-2010 Ulf Ekstrom and contributors.
See http://admol.org/xcfun for more information.
This is free software; see the source code for copying conditions.
There is ABSOLUTELY NO WARRANTY; not even for MERCHANTABILITY or FITNESS FOR A PARTICULAR PURPOSE.
For details see the documentation.
Scientific users of this library should cite U. Ekstrom, L. Visscher, R. Bast, A. J. Thorvaldsen and K. Ruud;
J.Chem.Theor.Comp. 2010, DOI: 10.1021/ct100117s
XCFun Version 0.99 

Warning: RI is on but no J-basis has been assigned. Assigning Def2/J (nothing to worry about!)
================================================================================

----- Orbital basis set information -----
Your calculation utilizes the basis: def2-TZVP
   F. Weigend and R. Ahlrichs, Phys. Chem. Chem. Phys. 7, 3297 (2005).

----- AuxJ basis set information -----
Your calculation utilizes the auxiliary basis: def2/J
   F. Weigend, Phys. Chem. Chem. Phys. 8, 1057 (2006).

================================================================================
                                        WARNINGS
                       Please study these warnings very carefully!
================================================================================

WARNING: Functional chosen is sensitive to the integration grid.
         DEFGRID3 seems to be a minimum grid for robust results!

================================================================================
                                       INPUT FILE
================================================================================
NAME = data/single_point_PO_M06-2x/201037/201037.inp
|  1> ! RIJCOSX M062X def2-TZVP D3ZERO NormalSCF
|  2> %pal
|  3> nprocs 6
|  4> end
|  5> 
|  6> * xyz 0 1
|  7>   C           3.31039847892039     -0.78739382262531     -0.27934515751923
|  8>   C           2.36152654750457     -1.13507712778579     -1.25755642048693
|  9>   C           1.01409283653400     -0.78555390075321     -1.08232088821220
| 10>   C           0.61776932217101     -0.08472020872352      0.07577048398918
| 11>   C           1.56862341732420      0.26459816611319      1.05535621457563
| 12>   C           2.91462766854235     -0.08955039738493      0.87467865232532
| 13>   P          -1.10238749163856      0.42420545549811      0.34905784554868
| 14>   O          -1.35185428290287      1.08864655299031      1.71232472372104
| 15>   C          -1.59993366841177      1.63183392267981     -0.96691810307715
| 16>   O          -2.79146136676818      2.23227212015905     -0.51302932961879
| 17>   C          -2.24958864480045     -1.03690254799274      0.27088325304658
| 18>   O          -2.34920424404068     -1.53003114065405      1.58330583115833
| 19>   H           4.36635635039088     -1.06557494831109     -0.41810332202018
| 20>   H           2.67387256498912     -1.68382811355570     -2.15904176895932
| 21>   H           0.27285576629695     -1.06452523787376     -1.84900391476169
| 22>   H           1.22859645482140      0.80697473580646      1.95121407986550
| 23>   H           3.65931488336410      0.17805131504194      1.63980377077124
| 24>   H          -1.78362564457200      1.12878147739213     -1.94077908197123
| 25>   H          -0.75148318829913      2.34759161165826     -1.10787080429468
| 26>   H          -2.65504163243643      2.36378534728968      0.45562633208842
| 27>   H          -1.87414322344895     -1.83021888724416     -0.41003830919998
| 28>   H          -3.21488847639358     -0.64562163879719     -0.14067696912567
| 29>   H          -2.26442342714637     -0.72774373292748      2.15666088215712
| 30> **                         ****END OF INPUT****
================================================================================

                       ****************************
                       * Single Point Calculation *
                       ****************************

---------------------------------
CARTESIAN COORDINATES (ANGSTROEM)
---------------------------------
  C      3.310398   -0.787394   -0.279345
  C      2.361527   -1.135077   -1.257556
  C      1.014093   -0.785554   -1.082321
  C      0.617769   -0.084720    0.075770
  C      1.568623    0.264598    1.055356
  C      2.914628   -0.089550    0.874679
  P     -1.102387    0.424205    0.349058
  O     -1.351854    1.088647    1.712325
  C     -1.599934    1.631834   -0.966918
  O     -2.791461    2.232272   -0.513029
  C     -2.249589   -1.036903    0.270883
  O     -2.349204   -1.530031    1.583306
  H      4.366356   -1.065575   -0.418103
  H      2.673873   -1.683828   -2.159042
  H      0.272856   -1.064525   -1.849004
  H      1.228596    0.806975    1.951214
  H      3.659315    0.178051    1.639804
  H     -1.783626    1.128781   -1.940779
  H     -0.751483    2.347592   -1.107871
  H     -2.655042    2.363785    0.455626
  H     -1.874143   -1.830219   -0.410038
  H     -3.214888   -0.645622   -0.140677
  H     -2.264423   -0.727744    2.156661

----------------------------
CARTESIAN COORDINATES (A.U.)
----------------------------
  NO LB      ZA    FRAG     MASS         X           Y           Z
   0 C     6.0000    0    12.011    6.255747   -1.487959   -0.527886
   1 C     6.0000    0    12.011    4.462638   -2.144985   -2.376437
   2 C     6.0000    0    12.011    1.916358   -1.484482   -2.045290
   3 C     6.0000    0    12.011    1.167415   -0.160098    0.143185
   4 C     6.0000    0    12.011    2.964269    0.500018    1.994334
   5 C     6.0000    0    12.011    5.507848   -0.169226    1.652903
   6 P    15.0000    0    30.974   -2.083210    0.801632    0.659624
   7 O     8.0000    0    15.999   -2.554634    2.057244    3.235825
   8 C     6.0000    0    12.011   -3.023436    3.083719   -1.827210
   9 O     8.0000    0    15.999   -5.275097    4.218383   -0.969485
  10 C     6.0000    0    12.011   -4.251106   -1.959462    0.511895
  11 O     8.0000    0    15.999   -4.439353   -2.891340    2.992014
  12 H     1.0000    0     1.008    8.251218   -2.013645   -0.790101
  13 H     1.0000    0     1.008    5.052887   -3.181974   -4.079998
  14 H     1.0000    0     1.008    0.515623   -2.011661   -3.494111
  15 H     1.0000    0     1.008    2.321711    1.524961    3.687260
  16 H     1.0000    0     1.008    6.915103    0.336468    3.098780
  17 H     1.0000    0     1.008   -3.370564    2.133088   -3.667541
  18 H     1.0000    0     1.008   -1.420097    4.436305   -2.093572
  19 H     1.0000    0     1.008   -5.017302    4.466907    0.861009
  20 H     1.0000    0     1.008   -3.541617   -3.458612   -0.774860
  21 H     1.0000    0     1.008   -6.075259   -1.220048   -0.265841
  22 H     1.0000    0     1.008   -4.279140   -1.375236    4.075498

--------------------------------
INTERNAL COORDINATES (ANGSTROEM)
--------------------------------
 C      0   0   0     0.000000000000     0.00000000     0.00000000
 C      1   0   0     1.406463258643     0.00000000     0.00000000
 C      2   1   0     1.403015175779   119.96502415     0.00000000
 C      3   2   1     1.410466525051   119.74834222     0.06285593
 C      4   3   2     1.409161112448   120.28770580     0.00000000
 C      5   4   3     1.403493153110   119.67537338   359.93142621
 P      4   3   2     1.814560767180   121.96408723   178.83962114
 O      7   4   3     1.536949001464   114.12361277   175.93152155
 C      7   4   3     1.854106633970   109.27892459   296.59595474
 O      9   7   4     1.409354215098   106.00852103   194.50501104
 C      7   4   3     1.859305878707   110.98792517    56.14863246
 O     11   7   4     1.405543346912   106.27074152    90.57944702
 H      1   2   3     1.100765912092   119.80454296   179.81791491
 H      2   1   3     1.100619603920   120.09697101   180.19244127
 H      3   2   1     1.102297720413   119.72831908   180.31220270
 H      5   4   3     1.101068568883   118.64145757   180.31362788
 H      6   5   4     1.100720750822   119.86790347   180.25295584
 H      9   7   4     1.111399887992   111.80634371    75.13123848
 H      9   7   4     1.118948144695   107.61173421   317.02675575
 H     10   9   7     0.987015635025   104.83155322    39.45454461
 H     11   7   4     1.110839435953   112.23750253   330.01800508
 H     11   7   4     1.119949253872   105.82534074   211.96811554
 H     12  11   7     0.989741827961   104.50416353    32.43455419

---------------------------
INTERNAL COORDINATES (A.U.)
---------------------------
 C      0   0   0     0.000000000000     0.00000000     0.00000000
 C      1   0   0     2.657830376258     0.00000000     0.00000000
 C      2   1   0     2.651314443958   119.96502415     0.00000000
 C      3   2   1     2.665395453409   119.74834222     0.06285593
 C      4   3   2     2.662928581099   120.28770580     0.00000000
 C      5   4   3     2.652217690211   119.67537338   359.93142621
 P      4   3   2     3.429022903327   121.96408723   178.83962114
 O      7   4   3     2.904412694571   114.12361277   175.93152155
 C      7   4   3     3.503753761290   109.27892459   296.59595474
 O      9   7   4     2.663293492223   106.00852103   194.50501104
 C      7   4   3     3.513578909946   110.98792517    56.14863246
 O     11   7   4     2.656091995019   106.27074152    90.57944702
 H      1   2   3     2.080146111410   119.80454296   179.81791491
 H      2   1   3     2.079869629033   120.09697101   180.19244127
 H      3   2   1     2.083040809626   119.72831908   180.31220270
 H      5   4   3     2.080718049858   118.64145757   180.31362788
 H      6   5   4     2.080060768977   119.86790347   180.25295584
 H      9   7   4     2.100241413575   111.80634371    75.13123848
 H      9   7   4     2.114505551532   107.61173421   317.02675575
 H     10   9   7     1.865189240095   104.83155322    39.45454461
 H     11   7   4     2.099182312712   112.23750253   330.01800508
 H     11   7   4     2.116397373708   105.82534074   211.96811554
 H     12  11   7     1.870340998133   104.50416353    32.43455419

---------------------
BASIS SET INFORMATION
---------------------
There are 4 groups of distinct atoms

 Group   1 Type C   : 11s6p2d1f contracted to 5s3p2d1f pattern {62111/411/11/1}
 Group   2 Type P   : 14s9p3d1f contracted to 5s5p2d1f pattern {73211/51111/21/1}
 Group   3 Type O   : 11s6p2d1f contracted to 5s3p2d1f pattern {62111/411/11/1}
 Group   4 Type H   : 5s1p contracted to 3s1p pattern {311/1}

Atom   0C    basis set group =>   1
Atom   1C    basis set group =>   1
Atom   2C    basis set group =>   1
Atom   3C    basis set group =>   1
Atom   4C    basis set group =>   1
Atom   5C    basis set group =>   1
Atom   6P    basis set group =>   2
Atom   7O    basis set group =>   3
Atom   8C    basis set group =>   1
Atom   9O    basis set group =>   3
Atom  10C    basis set group =>   1
Atom  11O    basis set group =>   3
Atom  12H    basis set group =>   4
Atom  13H    basis set group =>   4
Atom  14H    basis set group =>   4
Atom  15H    basis set group =>   4
Atom  16H    basis set group =>   4
Atom  17H    basis set group =>   4
Atom  18H    basis set group =>   4
Atom  19H    basis set group =>   4
Atom  20H    basis set group =>   4
Atom  21H    basis set group =>   4
Atom  22H    basis set group =>   4
---------------------------------
AUXILIARY/J BASIS SET INFORMATION
---------------------------------
There are 4 groups of distinct atoms

 Group   1 Type C   : 12s5p4d2f1g contracted to 6s4p3d1f1g pattern {711111/2111/211/2/1}
 Group   2 Type P   : 14s5p5d2f1g contracted to 8s4p3d1f1g pattern {71111111/2111/311/2/1}
 Group   3 Type O   : 12s5p4d2f1g contracted to 6s4p3d1f1g pattern {711111/2111/211/2/1}
 Group   4 Type H   : 5s2p1d contracted to 3s1p1d pattern {311/2/1}

Atom   0C    basis set group =>   1
Atom   1C    basis set group =>   1
Atom   2C    basis set group =>   1
Atom   3C    basis set group =>   1
Atom   4C    basis set group =>   1
Atom   5C    basis set group =>   1
Atom   6P    basis set group =>   2
Atom   7O    basis set group =>   3
Atom   8C    basis set group =>   1
Atom   9O    basis set group =>   3
Atom  10C    basis set group =>   1
Atom  11O    basis set group =>   3
Atom  12H    basis set group =>   4
Atom  13H    basis set group =>   4
Atom  14H    basis set group =>   4
Atom  15H    basis set group =>   4
Atom  16H    basis set group =>   4
Atom  17H    basis set group =>   4
Atom  18H    basis set group =>   4
Atom  19H    basis set group =>   4
Atom  20H    basis set group =>   4
Atom  21H    basis set group =>   4
Atom  22H    basis set group =>   4


           ************************************************************
           *        Program running with 6 parallel MPI-processes     *
           *              working on a common directory               *
           ************************************************************
------------------------------------------------------------------------------
                             ORCA STARTUP CALCULATIONS
                           -- RI-GTO INTEGRALS CHOSEN --
------------------------------------------------------------------------------
------------------------------------------------------------------------------
                   ___                                                        
                  /   \      - P O W E R E D   B Y -                         
                 /     \                                                     
                 |  |  |   _    _      __       _____    __    __             
                 |  |  |  | |  | |    /  \     |  _  \  |  |  /  |          
                  \  \/   | |  | |   /    \    | | | |  |  | /  /          
                 / \  \   | |__| |  /  /\  \   | |_| |  |  |/  /          
                |  |  |   |  __  | /  /__\  \  |    /   |      \           
                |  |  |   | |  | | |   __   |  |    \   |  |\   \          
                \     /   | |  | | |  |  |  |  | |\  \  |  | \   \       
                 \___/    |_|  |_| |__|  |__|  |_| \__\ |__|  \__/        
                                                                              
                      - O R C A' S   B I G   F R I E N D -                    
                                      &                                       
                       - I N T E G R A L  F E E D E R -                       
                                                                              
 v1 FN, 2020, v2 2021, v3 2022-2024                                           
------------------------------------------------------------------------------


----------------------
SHARK INTEGRAL PACKAGE
----------------------

Number of atoms                             ...     23
Number of basis functions                   ...    444
Number of shells                            ...    178
Maximum angular momentum                    ...      3
Integral batch strategy                     ... SHARK/LIBINT Hybrid
RI-J (if used) integral strategy            ... SPLIT-RIJ (Revised 2003 algorithm where possible)
Printlevel                                  ...      1
Contraction scheme used                     ... SEGMENTED contraction
Prescreening option                         ... SCHWARTZ
   Thresh                                   ... 1.000e-10
   Tcut                                     ... 1.000e-11
   Tpresel                                  ... 1.000e-11 
Coulomb Range Separation                    ... NOT USED
Exchange Range Separation                   ... NOT USED
Multipole approximations                    ... NOT USED
Finite Nucleus Model                        ... NOT USED
CABS basis                                  ... NOT available
Auxiliary Coulomb fitting basis             ... AVAILABLE
   # of basis functions in Aux-J            ...    711
   # of shells in Aux-J                     ...    237
   Maximum angular momentum in Aux-J        ...      4
Auxiliary J/K fitting basis                 ... NOT available
Auxiliary Correlation fitting basis         ... NOT available
Auxiliary 'external' fitting basis          ... NOT available

Checking pre-screening integrals            ... done (  0.0 sec) Dimension = 178
Check shell pair data                       ... done (  0.0 sec)
Shell pair information
Shell pair cut-off parameter TPreSel        ...   1.0e-11
Total number of shell pairs                 ...     15931
Shell pairs after pre-screening             ...     13006
Total number of primitive shell pairs       ...     49452
Primitive shell pairs kept                  ...     28110
          la=0 lb=0:   3431 shell pairs
          la=1 lb=0:   3785 shell pairs
          la=1 lb=1:   1080 shell pairs
          la=2 lb=0:   1795 shell pairs
          la=2 lb=1:   1015 shell pairs
          la=2 lb=2:    256 shell pairs
          la=3 lb=0:    865 shell pairs
          la=3 lb=1:    487 shell pairs
          la=3 lb=2:    230 shell pairs
          la=3 lb=3:     62 shell pairs

Calculating one electron integrals          ... done (  0.0 sec)
Calculating RI/J V-Matrix + Cholesky decomp.... done (  0.0 sec)
Calculating Nuclear repulsion               ... done (  0.0 sec) ENN=    818.185400626029 Eh

Diagonalization of the overlap matrix:
Smallest eigenvalue                        ... 9.420e-06
Time for diagonalization                   ...    0.031 sec
Threshold for overlap eigenvalues          ... 1.000e-07
Number of eigenvalues below threshold      ... 0
Time for construction of square roots      ...    0.013 sec
Total time needed                          ...    0.045 sec

-------------------
DFT GRID GENERATION
-------------------

General Integration Accuracy     IntAcc      ... 4.388
Radial Grid Type                 RadialGrid  ... OptM3 with GC (2021)
Angular Grid (max. ang.)         AngularGrid ... 4 (Lebedev-302)
Angular grid pruning method      GridPruning ... 4 (adaptive)
Weight generation scheme         WeightScheme... mBecke (2022)
Basis function cutoff            BFCut       ... 1.0000e-10
Integration weight cutoff        WCut        ... 1.0000e-14
Partially contracted basis set               ... off
Rotationally invariant grid construction     ... off
Angular grids for H and He will be reduced by one unit

Total number of grid points                  ...   108761
Total number of batches                      ...     1714
Average number of points per batch           ...       63
Average number of grid points per atom       ...     4729

--------------------
COSX GRID GENERATION
--------------------

GRIDX 1
-------
General Integration Accuracy     IntAcc      ... 3.816
Radial Grid Type                 RadialGrid  ... OptM3 with GC (2021)
Angular Grid (max. ang.)         AngularGrid ... 1 (Lebedev-50)
Angular grid pruning method      GridPruning ... 4 (adaptive)
Weight generation scheme         WeightScheme... mBecke (2022)
Basis function cutoff            BFCut       ... 1.0000e-10
Integration weight cutoff        WCut        ... 1.0000e-14
Partially contracted basis set               ... on
Rotationally invariant grid construction     ... off
Angular grids for H and He will be reduced by one unit

Total number of grid points                  ...    14865
Total number of batches                      ...      129
Average number of points per batch           ...      115
Average number of grid points per atom       ...      646
UseSFitting                                  ... on

GRIDX 2
-------
General Integration Accuracy     IntAcc      ... 4.020
Radial Grid Type                 RadialGrid  ... OptM3 with GC (2021)
Angular Grid (max. ang.)         AngularGrid ... 2 (Lebedev-110)
Angular grid pruning method      GridPruning ... 4 (adaptive)
Weight generation scheme         WeightScheme... mBecke (2022)
Basis function cutoff            BFCut       ... 1.0000e-10
Integration weight cutoff        WCut        ... 1.0000e-14
Partially contracted basis set               ... on
Rotationally invariant grid construction     ... off
Angular grids for H and He will be reduced by one unit

Total number of grid points                  ...    29882
Total number of batches                      ...      243
Average number of points per batch           ...      122
Average number of grid points per atom       ...     1299
UseSFitting                                  ... on

GRIDX 3
-------
General Integration Accuracy     IntAcc      ... 4.338
Radial Grid Type                 RadialGrid  ... OptM3 with GC (2021)
Angular Grid (max. ang.)         AngularGrid ... 3 (Lebedev-194)
Angular grid pruning method      GridPruning ... 4 (adaptive)
Weight generation scheme         WeightScheme... mBecke (2022)
Basis function cutoff            BFCut       ... 1.0000e-10
Integration weight cutoff        WCut        ... 1.0000e-14
Partially contracted basis set               ... on
Rotationally invariant grid construction     ... off
Angular grids for H and He will be reduced by one unit

Total number of grid points                  ...    65994
Total number of batches                      ...      528
Average number of points per batch           ...      124
Average number of grid points per atom       ...     2869
UseSFitting                                  ... on
Initializing property integral containers    ... done (  0.0 sec)

SHARK setup successfully completed in   1.8 seconds

Maximum memory used throughout the entire STARTUP-calculation: 39.3 MB


           ************************************************************
           *        Program running with 6 parallel MPI-processes     *
           *              working on a common directory               *
           ************************************************************
-------------------------------------------------------------------------------
                                 ORCA GUESS
                   Start orbitals & Density for SCF / CASSCF
-------------------------------------------------------------------------------

------------
SCF SETTINGS
------------
Hamiltonian:
 Density Functional     Method          .... DFT(GTOs)
 Exchange Functional    Exchange        .... M062X
 Correlation Functional Correlation     .... M062X
 Gradients option       PostSCFGGA      .... off
 Hybrid DFT is turned on
   Fraction HF Exchange ScalHFX         ....  0.540000
   Scaling of DF-GGA-X  ScalDFX         ....  0.460000
   Scaling of DF-GGA-C  ScalDFC         ....  1.000000
   Scaling of DF-LDA-C  ScalLDAC        ....  1.000000
   Perturbative correction              ....  0.000000
 RI-approximation to the Coulomb term is turned on
   Number of AuxJ basis functions       .... 711
   RIJ-COSX (HFX calculated with COS-X)).... on


General Settings:
 Integral files         IntName         .... data/single_point_PO_M06-2x/201037/201037
 Hartree-Fock type      HFTyp           .... RHF
 Total Charge           Charge          ....    0
 Multiplicity           Mult            ....    1
 Number of Electrons    NEL             ....   98
 Basis Dimension        Dim             ....  444
 Nuclear Repulsion      ENuc            ....    818.1854006260 Eh

Convergence Acceleration:
 AO-DIIS                CNVDIIS         .... on
   Start iteration      DIISMaxIt       ....    12
   Startup error        DIISStart       ....  0.200000
   # of expansion vecs  DIISMaxEq       ....     5
   Bias factor          DIISBfac        ....   1.050
   Max. coefficient     DIISMaxC        ....  10.000
 MO-DIIS                CNVKDIIS        .... off
 Trust-Rad. Augm. Hess. CNVTRAH         .... auto
   Auto Start mean grad. ratio tolernc. ....  1.125000
   Auto Start start iteration           ....    50
   Auto Start num. interpolation iter.  ....    10
   Max. Number of Micro iterations      ....    24
   Max. Number of Macro iterations      .... Maxiter - #DIIS iter
   Number of Davidson start vectors     ....     2
   Converg. threshold    (grad. norm)   ....   5.000e-05
   Grad. Scal. Fac. for Micro threshold ....   0.100
   Minimum threshold for Micro iter.    ....   1.000e-02
   NR start threshold (gradient norm)   ....   1.000e-04
   Initial trust radius                 ....   0.400
   Minimum AH scaling param. (alpha)    ....   1.000
   Maximum AH scaling param. (alpha)    .... 1000.000
   Quad. conv. algorithm                .... NR
   White noise on init. David. guess    .... on
   Maximum white noise                  ....   0.010
   Pseudo random numbers                .... off
   Inactive MOs                         .... canonical
   Orbital update algorithm             .... Taylor
   Preconditioner                       .... Diag
   Full preconditioner red. dimension   ....   250
 SOSCF                  CNVSOSCF        .... on
   Start iteration      SOSCFMaxIt      ....   150
   Startup grad/error   SOSCFStart      ....  0.003300
   Hessian update       SOSCFHessUp     .... L-BFGS
 Level Shifting         CNVShift        .... on
   Level shift para.    LevelShift      ....    0.2500
   Turn off err/grad.   ShiftErr        ....    0.0010
 Zerner damping         CNVZerner       .... off
 Static damping         CNVDamp         .... on
   Fraction old density DampFac         ....    0.7000
   Max. Damping (<1)    DampMax         ....    0.9800
   Min. Damping (>=0)   DampMin         ....    0.0000
   Turn off err/grad.   DampErr         ....    0.1000

SCF Procedure:
 Maximum # iterations   MaxIter         ....   125
 SCF integral mode      SCFMode         .... Direct
   Integral package                     .... SHARK and LIBINT hybrid scheme
 Reset frequency        DirectResetFreq ....    20
 Integral Threshold     Thresh          ....  1.000e-10 Eh
 Primitive CutOff       TCut            ....  1.000e-11 Eh

Convergence Tolerance:
 Convergence Check Mode ConvCheckMode   .... Total+1el-Energy
 Convergence forced     ConvForced      .... 0
 Energy Change          TolE            ....  1.000e-06 Eh
 1-El. energy change                    ....  1.000e-03 Eh
 Orbital Gradient       TolG            ....  5.000e-05
 Orbital Rotation angle TolX            ....  5.000e-05
 DIIS Error             TolErr          ....  1.000e-05

------------------------------
INITIAL GUESS: MODEL POTENTIAL
------------------------------
Loading Hartree-Fock densities                     ... done
Calculating cut-offs                               ... done
Initializing the effective Hamiltonian             ... done
Setting up the integral package (SHARK)            ... done
Starting the Coulomb interaction                   ... done (   0.1 sec)
Making the grid                                    ... done (   0.1 sec)
Mapping shells                                     ... done
Starting the XC term evaluation                    ... done (   0.2 sec)
  promolecular density results
     # of electrons  =     97.995374578
     EX              =    -91.118373398
     EC              =     -3.346278816
     EX+EC           =    -94.464652214
Transforming the Hamiltonian                       ... done (   0.0 sec)
Diagonalizing the Hamiltonian                      ... done (   0.0 sec)
Back transforming the eigenvectors                 ... done (   0.0 sec)
Now organizing SCF variables                       ... done
                      ------------------
                      INITIAL GUESS DONE (   0.6 sec)
                      ------------------
             **** ENERGY FILE WAS UPDATED (data/single_point_PO_M06-2x/201037/201037.en.tmp) ****
Finished Guess after   0.7 sec
Maximum memory used throughout the entire GUESS-calculation: 26.9 MB


           ************************************************************
           *        Program running with 6 parallel MPI-processes     *
           *              working on a common directory               *
           ************************************************************

-------------------------------------------------------------------------------------------
                                      ORCA LEAN-SCF
                              memory conserving SCF solver
-------------------------------------------------------------------------------------------

----------------------------------------D-I-I-S--------------------------------------------
Iteration    Energy (Eh)           Delta-E    RMSDP     MaxDP     DIISErr   Damp  Time(sec)
-------------------------------------------------------------------------------------------
               ***  Starting incremental Fock matrix formation  ***
    1    -878.0945183307545676     0.00e+00  1.64e-03  1.24e-01  3.55e-01  0.700   5.0
    2    -878.2752093000680134    -1.81e-01  1.34e-03  1.19e-01  1.53e-01  0.700   3.1
                               ***Turning on AO-DIIS***
    3    -878.3500421375064207    -7.48e-02  7.18e-04  2.08e-02  4.61e-02  0.700   2.9
    4    -878.3959011521664024    -4.59e-02  1.56e-03  4.89e-02  3.20e-02  0.000   2.8
    5    -878.4967128740823910    -1.01e-01  1.78e-04  1.75e-02  4.61e-03  0.000   3.0
                              *** Initializing SOSCF ***
---------------------------------------S-O-S-C-F--------------------------------------
Iteration    Energy (Eh)           Delta-E    RMSDP     MaxDP     MaxGrad    Time(sec)
--------------------------------------------------------------------------------------
    6    -878.4969903104259856    -2.77e-04  5.81e-05  5.43e-03  6.36e-04     2.7
               *** Restarting incremental Fock matrix formation ***
    7    -878.4969515755147995     3.87e-05  4.00e-05  1.21e-03  1.44e-04     4.9
    8    -878.4969537689847812    -2.19e-06  1.84e-05  1.12e-03  1.80e-04     3.6
    9    -878.4969553496217713    -1.58e-06  1.24e-05  5.99e-04  4.46e-05     3.4
   10    -878.4969554648859003    -1.15e-07  1.82e-06  4.88e-05  1.63e-05     3.2
                 **** Energy Check signals convergence ****

               *****************************************************
               *                     SUCCESS                       *
               *           SCF CONVERGED AFTER  10 CYCLES          *
               *****************************************************

Recomputing exchange energy using gridx3       ... done (    6.908 sec)
Old exchange energy                            :    -50.053827403 Eh
New exchange energy                            :    -50.053749101 Eh
Exchange energy change after final integration :      0.000078301 Eh
Total energy after final integration           :   -878.496877164 Eh
             **** ENERGY FILE WAS UPDATED (data/single_point_PO_M06-2x/201037/201037.en.tmp) ****

----------------
TOTAL SCF ENERGY
----------------

Total Energy       :       -878.49687716353390 Eh          -23905.11534 eV

Components:
Nuclear Repulsion  :        818.18540062602949 Eh           22263.95663 eV
Electronic Energy  :      -1696.68235609091539 Eh          -46169.07410 eV
One Electron Energy:      -2828.05930157393323 Eh          -76955.40593 eV
Two Electron Energy:       1131.37694548301783 Eh           30786.33183 eV

Virial components:
Potential Energy   :      -1753.21649259775540 Eh          -47707.44616 eV
Kinetic Energy     :        874.71961543422140 Eh           23802.33082 eV
Virial Ratio       :          2.00431825428705

DFT components:
N(Alpha)           :       49.000010728626 electrons
N(Beta)            :       49.000010728626 electrons
N(Total)           :       98.000021457253 electrons
E(XC)              :      -46.292355530759 Eh       

---------------
SCF CONVERGENCE
---------------

  Last Energy change         ...    1.1526e-07  Tolerance :   1.0000e-06
  Last MAX-Density change    ...    4.8768e-05  Tolerance :   1.0000e-05
  Last RMS-Density change    ...    1.8164e-06  Tolerance :   1.0000e-06
  Last DIIS Error            ...    6.3576e-04  Tolerance :   1.0000e-05
  Last Orbital Gradient      ...    1.6302e-05  Tolerance :   5.0000e-05
  Last Orbital Rotation      ...    1.5484e-05  Tolerance :   5.0000e-05


----------------
ORBITAL ENERGIES
----------------

  NO   OCC          E(Eh)            E(eV) 
   0   2.0000     -78.105530     -2125.3595 
   1   2.0000     -19.643445      -534.5253 
   2   2.0000     -19.632415      -534.2252 
   3   2.0000     -19.590337      -533.0802 
   4   2.0000     -10.612275      -288.7747 
   5   2.0000     -10.605971      -288.6032 
   6   2.0000     -10.580881      -287.9204 
   7   2.0000     -10.576825      -287.8100 
   8   2.0000     -10.573688      -287.7247 
   9   2.0000     -10.572847      -287.7018 
  10   2.0000     -10.572553      -287.6938 
  11   2.0000     -10.569797      -287.6188 
  12   2.0000      -6.914400      -188.1504 
  13   2.0000      -5.031131      -136.9040 
  14   2.0000      -5.030780      -136.8945 
  15   2.0000      -5.029735      -136.8660 
  16   2.0000      -1.163557       -31.6620 
  17   2.0000      -1.153460       -31.3872 
  18   2.0000      -1.077693       -29.3255 
  19   2.0000      -0.979046       -26.6412 
  20   2.0000      -0.873975       -23.7821 
  21   2.0000      -0.863634       -23.5007 
  22   2.0000      -0.817616       -22.2484 
  23   2.0000      -0.776460       -21.1285 
  24   2.0000      -0.715795       -19.4778 
  25   2.0000      -0.708557       -19.2808 
  26   2.0000      -0.653529       -17.7834 
  27   2.0000      -0.611930       -16.6515 
  28   2.0000      -0.602512       -16.3952 
  29   2.0000      -0.570685       -15.5291 
  30   2.0000      -0.545238       -14.8367 
  31   2.0000      -0.541990       -14.7483 
  32   2.0000      -0.537547       -14.6274 
  33   2.0000      -0.530373       -14.4322 
  34   2.0000      -0.522887       -14.2285 
  35   2.0000      -0.509587       -13.8666 
  36   2.0000      -0.506529       -13.7834 
  37   2.0000      -0.471289       -12.8244 
  38   2.0000      -0.463234       -12.6052 
  39   2.0000      -0.434352       -11.8193 
  40   2.0000      -0.423769       -11.5313 
  41   2.0000      -0.415867       -11.3163 
  42   2.0000      -0.413536       -11.2529 
  43   2.0000      -0.383750       -10.4424 
  44   2.0000      -0.376297       -10.2396 
  45   2.0000      -0.351986        -9.5780 
  46   2.0000      -0.345627        -9.4050 
  47   2.0000      -0.331174        -9.0117 
  48   2.0000      -0.323549        -8.8042 
  49   0.0000      -0.022238        -0.6051 
  50   0.0000      -0.005990        -0.1630 
  51   0.0000       0.040941         1.1141 
  52   0.0000       0.052470         1.4278 
  53   0.0000       0.074462         2.0262 
  54   0.0000       0.090115         2.4522 
  55   0.0000       0.097214         2.6453 
  56   0.0000       0.100300         2.7293 
  57   0.0000       0.109970         2.9924 
  58   0.0000       0.111986         3.0473 
  59   0.0000       0.116452         3.1688 
*Only the first 10 virtual orbitals were printed.

                    ********************************
                    * MULLIKEN POPULATION ANALYSIS *
                    ********************************

-----------------------
MULLIKEN ATOMIC CHARGES
-----------------------
   0 C :   -0.133458
   1 C :   -0.149813
   2 C :   -0.179500
   3 C :   -0.055006
   4 C :   -0.148378
   5 C :   -0.132853
   6 P :    0.543008
   7 O :   -0.654321
   8 C :   -0.163394
   9 O :   -0.443777
  10 C :   -0.130348
  11 O :   -0.455762
  12 H :    0.154421
  13 H :    0.152478
  14 H :    0.164212
  15 H :    0.197117
  16 H :    0.155598
  17 H :    0.149906
  18 H :    0.149339
  19 H :    0.347402
  20 H :    0.138081
  21 H :    0.144583
  22 H :    0.350468
Sum of atomic charges:   -0.0000000

--------------------------------
MULLIKEN REDUCED ORBITAL CHARGES
--------------------------------
  0 C s       :     3.228848  s :     3.228848
      pz      :     0.896198  p :     2.836727
      px      :     1.005910
      py      :     0.934619
      dz2     :     0.017952  d :     0.061627
      dxz     :     0.012779
      dyz     :     0.011561
      dx2y2   :     0.010619
      dxy     :     0.008716
      f0      :     0.001098  f :     0.006257
      f+1     :     0.001012
      f-1     :     0.000779
      f+2     :     0.001170
      f-2     :     0.001040
      f+3     :     0.000596
      f-3     :     0.000562

  1 C s       :     3.232297  s :     3.232297
      pz      :     0.982251  p :     2.850984
      px      :     0.901791
      py      :     0.966942
      dz2     :     0.010867  d :     0.060181
      dxz     :     0.014736
      dyz     :     0.008372
      dx2y2   :     0.008127
      dxy     :     0.018080
      f0      :     0.000746  f :     0.006351
      f+1     :     0.000843
      f-1     :     0.000784
      f+2     :     0.001133
      f-2     :     0.000873
      f+3     :     0.000975
      f-3     :     0.000997

  2 C s       :     3.190194  s :     3.190194
      pz      :     0.947015  p :     2.916850
      px      :     1.020033
      py      :     0.949802
      dz2     :     0.011611  d :     0.065933
      dxz     :     0.020768
      dyz     :     0.007960
      dx2y2   :     0.012012
      dxy     :     0.013582
      f0      :     0.001078  f :     0.006523
      f+1     :     0.000737
      f-1     :     0.000743
      f+2     :     0.001313
      f-2     :     0.000826
      f+3     :     0.000870
      f-3     :     0.000955

  3 C s       :     3.215621  s :     3.215621
      pz      :     0.887899  p :     2.757966
      px      :     0.896569
      py      :     0.973498
      dz2     :     0.023699  d :     0.074372
      dxz     :     0.011615
      dyz     :     0.012061
      dx2y2   :     0.013982
      dxy     :     0.013014
      f0      :     0.001195  f :     0.007048
      f+1     :     0.001003
      f-1     :     0.000843
      f+2     :     0.001383
      f-2     :     0.001188
      f+3     :     0.000699
      f-3     :     0.000737

  4 C s       :     3.214767  s :     3.214767
      pz      :     1.000404  p :     2.863699
      px      :     0.906473
      py      :     0.956821
      dz2     :     0.010707  d :     0.063447
      dxz     :     0.017396
      dyz     :     0.008880
      dx2y2   :     0.007938
      dxy     :     0.018528
      f0      :     0.000728  f :     0.006465
      f+1     :     0.000954
      f-1     :     0.000705
      f+2     :     0.001091
      f-2     :     0.000934
      f+3     :     0.001064
      f-3     :     0.000988

  5 C s       :     3.224508  s :     3.224508
      pz      :     0.953057  p :     2.842494
      px      :     0.944450
      py      :     0.944987
      dz2     :     0.012692  d :     0.059588
      dxz     :     0.015492
      dyz     :     0.007498
      dx2y2   :     0.011971
      dxy     :     0.011936
      f0      :     0.001039  f :     0.006264
      f+1     :     0.000710
      f-1     :     0.000766
      f+2     :     0.001283
      f-2     :     0.000721
      f+3     :     0.000862
      f-3     :     0.000881

  6 P s       :     5.354283  s :     5.354283
      pz      :     2.701480  p :     8.379713
      px      :     2.848910
      py      :     2.829323
      dz2     :     0.154906  d :     0.658056
      dxz     :     0.135068
      dyz     :     0.144769
      dx2y2   :     0.093741
      dxy     :     0.129572
      f0      :     0.013704  f :     0.064939
      f+1     :     0.013350
      f-1     :     0.007133
      f+2     :     0.009937
      f-2     :     0.009630
      f+3     :     0.005402
      f-3     :     0.005784

  7 O s       :     3.894275  s :     3.894275
      pz      :     1.434018  p :     4.735133
      px      :     1.669434
      py      :     1.631681
      dz2     :     0.007847  d :     0.023774
      dxz     :     0.005702
      dyz     :     0.007060
      dx2y2   :     0.001575
      dxy     :     0.001589
      f0      :     0.000298  f :     0.001139
      f+1     :     0.000198
      f-1     :     0.000331
      f+2     :     0.000136
      f-2     :     0.000141
      f+3     :     0.000019
      f-3     :     0.000016

  8 C s       :     3.230313  s :     3.230313
      pz      :     1.004467  p :     2.804980
      px      :     0.826587
      py      :     0.973926
      dz2     :     0.020506  d :     0.119747
      dxz     :     0.019776
      dyz     :     0.017400
      dx2y2   :     0.031591
      dxy     :     0.030473
      f0      :     0.000359  f :     0.008354
      f+1     :     0.001538
      f-1     :     0.000908
      f+2     :     0.001135
      f-2     :     0.000972
      f+3     :     0.002323
      f-3     :     0.001120

  9 O s       :     3.813472  s :     3.813472
      pz      :     1.369273  p :     4.599472
      px      :     1.474176
      py      :     1.756023
      dz2     :     0.009873  d :     0.029238
      dxz     :     0.005020
      dyz     :     0.001973
      dx2y2   :     0.005744
      dxy     :     0.006628
      f0      :     0.000469  f :     0.001594
      f+1     :     0.000102
      f-1     :     0.000154
      f+2     :     0.000103
      f-2     :     0.000199
      f+3     :     0.000216
      f-3     :     0.000352

 10 C s       :     3.226498  s :     3.226498
      pz      :     0.793207  p :     2.777031
      px      :     1.030481
      py      :     0.953343
      dz2     :     0.020663  d :     0.118431
      dxz     :     0.039590
      dyz     :     0.034798
      dx2y2   :     0.005961
      dxy     :     0.017419
      f0      :     0.001903  f :     0.008389
      f+1     :     0.002452
      f-1     :     0.001600
      f+2     :     0.000747
      f-2     :     0.001020
      f+3     :     0.000374
      f-3     :     0.000292

 11 O s       :     3.812959  s :     3.812959
      pz      :     1.220374  p :     4.611859
      px      :     1.870372
      py      :     1.521113
      dz2     :     0.005443  d :     0.029343
      dxz     :     0.003476
      dyz     :     0.012371
      dx2y2   :     0.005309
      dxy     :     0.002744
      f0      :     0.000423  f :     0.001601
      f+1     :     0.000205
      f-1     :     0.000248
      f+2     :     0.000359
      f-2     :     0.000099
      f+3     :     0.000080
      f-3     :     0.000187

 12 H s       :     0.825857  s :     0.825857
      pz      :     0.003044  p :     0.019723
      px      :     0.012568
      py      :     0.004111

 13 H s       :     0.827716  s :     0.827716
      pz      :     0.010084  p :     0.019805
      px      :     0.003562
      py      :     0.006159

 14 H s       :     0.816216  s :     0.816216
      pz      :     0.008047  p :     0.019572
      px      :     0.007291
      py      :     0.004234

 15 H s       :     0.782306  s :     0.782306
      pz      :     0.010304  p :     0.020577
      px      :     0.004212
      py      :     0.006061

 16 H s       :     0.824590  s :     0.824590
      pz      :     0.008097  p :     0.019812
      px      :     0.007589
      py      :     0.004126

 17 H s       :     0.830908  s :     0.830908
      pz      :     0.011293  p :     0.019186
      px      :     0.002596
      py      :     0.005297

 18 H s       :     0.831810  s :     0.831810
      pz      :     0.003773  p :     0.018852
      px      :     0.008065
      py      :     0.007014

 19 H s       :     0.606953  s :     0.606953
      pz      :     0.021124  p :     0.045645
      px      :     0.010854
      py      :     0.013667

 20 H s       :     0.842602  s :     0.842602
      pz      :     0.006209  p :     0.019317
      px      :     0.004632
      py      :     0.008477

 21 H s       :     0.836443  s :     0.836443
      pz      :     0.003597  p :     0.018974
      px      :     0.010723
      py      :     0.004654

 22 H s       :     0.603065  s :     0.603065
      pz      :     0.012725  p :     0.046467
      px      :     0.015019
      py      :     0.018723



                     *******************************
                     * LOEWDIN POPULATION ANALYSIS *
                     *******************************

----------------------
LOEWDIN ATOMIC CHARGES
----------------------
   0 C :   -0.124676
   1 C :   -0.135405
   2 C :   -0.132890
   3 C :   -0.252103
   4 C :   -0.111977
   5 C :   -0.130435
   6 P :    0.598680
   7 O :   -0.349328
   8 C :   -0.462040
   9 O :   -0.048766
  10 C :   -0.460223
  11 O :   -0.049541
  12 H :    0.150965
  13 H :    0.150830
  14 H :    0.149392
  15 H :    0.162165
  16 H :    0.151770
  17 H :    0.128522
  18 H :    0.126132
  19 H :    0.194093
  20 H :    0.125278
  21 H :    0.125944
  22 H :    0.193614

-------------------------------
LOEWDIN REDUCED ORBITAL CHARGES
-------------------------------
  0 C s       :     2.779907  s :     2.779907
      pz      :     1.023813  p :     2.931519
      px      :     0.995588
      py      :     0.912118
      dz2     :     0.112337  d :     0.372883
      dxz     :     0.086429
      dyz     :     0.066945
      dx2y2   :     0.063380
      dxy     :     0.043792
      f0      :     0.006408  f :     0.040367
      f+1     :     0.007938
      f-1     :     0.005563
      f+2     :     0.006715
      f-2     :     0.007306
      f+3     :     0.003489
      f-3     :     0.002948

  1 C s       :     2.777952  s :     2.777952
      pz      :     0.979116  p :     2.945079
      px      :     1.053750
      py      :     0.912213
      dz2     :     0.070067  d :     0.371837
      dxz     :     0.107751
      dyz     :     0.044686
      dx2y2   :     0.073887
      dxy     :     0.075446
      f0      :     0.005820  f :     0.040538
      f+1     :     0.007033
      f-1     :     0.003672
      f+2     :     0.006496
      f-2     :     0.005799
      f+3     :     0.006771
      f-3     :     0.004947

  2 C s       :     2.774590  s :     2.774590
      pz      :     0.983660  p :     2.934782
      px      :     1.030925
      py      :     0.920197
      dz2     :     0.066735  d :     0.382507
      dxz     :     0.139086
      dyz     :     0.041017
      dx2y2   :     0.064166
      dxy     :     0.071503
      f0      :     0.007849  f :     0.041011
      f+1     :     0.005560
      f-1     :     0.005137
      f+2     :     0.006324
      f-2     :     0.005057
      f+3     :     0.005296
      f-3     :     0.005787

  3 C s       :     2.770990  s :     2.770990
      pz      :     1.028252  p :     2.999722
      px      :     1.034855
      py      :     0.936615
      dz2     :     0.122308  d :     0.437602
      dxz     :     0.100432
      dyz     :     0.072549
      dx2y2   :     0.079627
      dxy     :     0.062688
      f0      :     0.006825  f :     0.043789
      f+1     :     0.008420
      f-1     :     0.005617
      f+2     :     0.007297
      f-2     :     0.007659
      f+3     :     0.004140
      f-3     :     0.003830

  4 C s       :     2.776784  s :     2.776784
      pz      :     0.975714  p :     2.915691
      px      :     1.047577
      py      :     0.892401
      dz2     :     0.069899  d :     0.378487
      dxz     :     0.111386
      dyz     :     0.044121
      dx2y2   :     0.075026
      dxy     :     0.078055
      f0      :     0.005878  f :     0.041014
      f+1     :     0.007264
      f-1     :     0.003472
      f+2     :     0.006534
      f-2     :     0.006125
      f+3     :     0.006778
      f-3     :     0.004964

  5 C s       :     2.778203  s :     2.778203
      pz      :     0.991526  p :     2.941319
      px      :     1.028122
      py      :     0.921671
      dz2     :     0.065241  d :     0.370520
      dxz     :     0.134621
      dyz     :     0.041043
      dx2y2   :     0.061825
      dxy     :     0.067788
      f0      :     0.007565  f :     0.040393
      f+1     :     0.005520
      f-1     :     0.005135
      f+2     :     0.006309
      f-2     :     0.005074
      f+3     :     0.005271
      f-3     :     0.005519

  6 P s       :     4.684366  s :     4.684366
      pz      :     2.749505  p :     8.342975
      px      :     2.790381
      py      :     2.803088
      dz2     :     0.285297  d :     1.151928
      dxz     :     0.211023
      dyz     :     0.268711
      dx2y2   :     0.172646
      dxy     :     0.214251
      f0      :     0.046705  f :     0.222050
      f+1     :     0.040418
      f-1     :     0.032608
      f+2     :     0.032745
      f-2     :     0.031608
      f+3     :     0.017981
      f-3     :     0.019986

  7 O s       :     3.544689  s :     3.544689
      pz      :     1.548843  p :     4.760496
      px      :     1.611639
      py      :     1.600014
      dz2     :     0.015756  d :     0.042116
      dxz     :     0.007294
      dyz     :     0.014760
      dx2y2   :     0.002039
      dxy     :     0.002267
      f0      :     0.000528  f :     0.002027
      f+1     :     0.000268
      f-1     :     0.000720
      f+2     :     0.000232
      f-2     :     0.000223
      f+3     :     0.000029
      f-3     :     0.000027

  8 C s       :     2.874103  s :     2.874103
      pz      :     1.076434  p :     3.054497
      px      :     0.932650
      py      :     1.045413
      dz2     :     0.081953  d :     0.473537
      dxz     :     0.071303
      dyz     :     0.082240
      dx2y2   :     0.105144
      dxy     :     0.132896
      f0      :     0.004654  f :     0.059903
      f+1     :     0.011046
      f-1     :     0.004654
      f+2     :     0.008952
      f-2     :     0.006808
      f+3     :     0.014035
      f-3     :     0.009755

  9 O s       :     3.380208  s :     3.380208
      pz      :     1.364880  p :     4.593349
      px      :     1.534844
      py      :     1.693625
      dz2     :     0.023994  d :     0.070630
      dxz     :     0.012000
      dyz     :     0.005574
      dx2y2   :     0.013363
      dxy     :     0.015699
      f0      :     0.001128  f :     0.004579
      f+1     :     0.000787
      f-1     :     0.000205
      f+2     :     0.000359
      f-2     :     0.000578
      f+3     :     0.000759
      f-3     :     0.000764

 10 C s       :     2.871824  s :     2.871824
      pz      :     0.896273  p :     3.051101
      px      :     1.087214
      py      :     1.067614
      dz2     :     0.102444  d :     0.476651
      dxz     :     0.128834
      dyz     :     0.135379
      dx2y2   :     0.032981
      dxy     :     0.077013
      f0      :     0.014797  f :     0.060647
      f+1     :     0.015227
      f-1     :     0.013786
      f+2     :     0.006865
      f-2     :     0.005553
      f+3     :     0.002205
      f-3     :     0.002215

 11 O s       :     3.379276  s :     3.379276
      pz      :     1.299223  p :     4.594757
      px      :     1.771530
      py      :     1.524004
      dz2     :     0.017609  d :     0.070882
      dxz     :     0.012872
      dyz     :     0.031460
      dx2y2   :     0.006054
      dxy     :     0.002888
      f0      :     0.001347  f :     0.004625
      f+1     :     0.000710
      f-1     :     0.000854
      f+2     :     0.001075
      f-2     :     0.000373
      f+3     :     0.000055
      f-3     :     0.000211

 12 H s       :     0.793133  s :     0.793133
      pz      :     0.010584  p :     0.055902
      px      :     0.032651
      py      :     0.012667

 13 H s       :     0.793090  s :     0.793090
      pz      :     0.026768  p :     0.056080
      px      :     0.011803
      py      :     0.017509

 14 H s       :     0.794537  s :     0.794537
      pz      :     0.022269  p :     0.056071
      px      :     0.020593
      py      :     0.013208

 15 H s       :     0.779426  s :     0.779426
      pz      :     0.027935  p :     0.058409
      px      :     0.012957
      py      :     0.017518

 16 H s       :     0.792171  s :     0.792171
      pz      :     0.022243  p :     0.056060
      px      :     0.021084
      py      :     0.012733

 17 H s       :     0.813659  s :     0.813659
      pz      :     0.031413  p :     0.057820
      px      :     0.009432
      py      :     0.016974

 18 H s       :     0.815795  s :     0.815795
      pz      :     0.012314  p :     0.058074
      px      :     0.024326
      py      :     0.021433

 19 H s       :     0.653878  s :     0.653878
      pz      :     0.081381  p :     0.152030
      px      :     0.032057
      py      :     0.038592

 20 H s       :     0.816738  s :     0.816738
      pz      :     0.017317  p :     0.057984
      px      :     0.015519
      py      :     0.025148

 21 H s       :     0.815811  s :     0.815811
      pz      :     0.011717  p :     0.058245
      px      :     0.031522
      py      :     0.015006

 22 H s       :     0.652367  s :     0.652367
      pz      :     0.037784  p :     0.154019
      px      :     0.041835
      py      :     0.074400



                      *****************************
                      * MAYER POPULATION ANALYSIS *
                      *****************************

  NA   - Mulliken gross atomic population
  ZA   - Total nuclear charge
  QA   - Mulliken gross atomic charge
  VA   - Mayer's total valence
  BVA  - Mayer's bonded valence
  FA   - Mayer's free valence

  ATOM       NA         ZA         QA         VA         BVA        FA
  0 C      6.1335     6.0000    -0.1335     3.9482     3.9482    -0.0000
  1 C      6.1498     6.0000    -0.1498     4.0024     4.0024    -0.0000
  2 C      6.1795     6.0000    -0.1795     3.9432     3.9432     0.0000
  3 C      6.0550     6.0000    -0.0550     3.6928     3.6928     0.0000
  4 C      6.1484     6.0000    -0.1484     3.9402     3.9402    -0.0000
  5 C      6.1329     6.0000    -0.1329     3.9205     3.9205    -0.0000
  6 P     14.4570    15.0000     0.5430     4.8674     4.8674    -0.0000
  7 O      8.6543     8.0000    -0.6543     1.8771     1.8771    -0.0000
  8 C      6.1634     6.0000    -0.1634     3.8587     3.8587     0.0000
  9 O      8.4438     8.0000    -0.4438     1.9106     1.9106    -0.0000
 10 C      6.1303     6.0000    -0.1303     3.8415     3.8415     0.0000
 11 O      8.4558     8.0000    -0.4558     1.9030     1.9030    -0.0000
 12 H      0.8456     1.0000     0.1544     0.9624     0.9624    -0.0000
 13 H      0.8475     1.0000     0.1525     0.9652     0.9652     0.0000
 14 H      0.8358     1.0000     0.1642     0.9601     0.9601     0.0000
 15 H      0.8029     1.0000     0.1971     0.9649     0.9649     0.0000
 16 H      0.8444     1.0000     0.1556     0.9649     0.9649    -0.0000
 17 H      0.8501     1.0000     0.1499     0.9476     0.9476    -0.0000
 18 H      0.8507     1.0000     0.1493     0.9454     0.9454    -0.0000
 19 H      0.6526     1.0000     0.3474     0.9097     0.9097     0.0000
 20 H      0.8619     1.0000     0.1381     0.9500     0.9500    -0.0000
 21 H      0.8554     1.0000     0.1446     0.9530     0.9530     0.0000
 22 H      0.6495     1.0000     0.3505     0.9113     0.9113    -0.0000

  Mayer bond orders larger than 0.100000
B(  0-C ,  1-C ) :   1.4366 B(  0-C ,  5-C ) :   1.4380 B(  0-C , 12-H ) :   0.9430 
B(  1-C ,  2-C ) :   1.4957 B(  1-C , 13-H ) :   0.9446 B(  2-C ,  3-C ) :   1.3598 
B(  2-C , 14-H ) :   0.9125 B(  3-C ,  4-C ) :   1.3985 B(  3-C ,  6-P ) :   0.8897 
B(  4-C ,  5-C ) :   1.4380 B(  4-C , 15-H ) :   0.9092 B(  5-C , 16-H ) :   0.9461 
B(  6-P ,  7-O ) :   1.7895 B(  6-P ,  8-C ) :   0.9353 B(  6-P , 10-C ) :   0.9553 
B(  8-C ,  9-O ) :   0.9982 B(  8-C , 17-H ) :   0.9415 B(  8-C , 18-H ) :   0.9281 
B(  9-O , 19-H ) :   0.8416 B( 10-C , 11-O ) :   1.0139 B( 10-C , 20-H ) :   0.9408 
B( 10-C , 21-H ) :   0.9210 B( 11-O , 22-H ) :   0.8334 

-------
TIMINGS
-------

Total SCF time: 0 days 0 hours 0 min 41 sec 

Total time                  ....      41.917 sec
Sum of individual times     ....      41.899 sec  (100.0%)

SCF preparation             ....       0.170 sec  (  0.4%)
Fock matrix formation       ....      40.576 sec  ( 96.8%)
  Startup                   ....       0.044 sec  (  0.1% of F)
  Split-RI-J                ....       2.646 sec  (  6.5% of F)
  Chain of spheres X        ....      27.547 sec  ( 67.9% of F)
  XC integration            ....      10.183 sec  ( 25.1% of F)
    Basis function eval.    ....       1.443 sec  ( 14.2% of XC)
    Density eval.           ....       3.892 sec  ( 38.2% of XC)
    XC-Functional eval.     ....       0.221 sec  (  2.2% of XC)
    XC-Potential eval.      ....       3.868 sec  ( 38.0% of XC)
Diagonalization             ....       0.000 sec  (  0.0%)
Density matrix formation    ....       0.118 sec  (  0.3%)
Total Energy calculation    ....       0.048 sec  (  0.1%)
Population analysis         ....       0.074 sec  (  0.2%)
Orbital Transformation      ....       0.121 sec  (  0.3%)
Orbital Orthonormalization  ....       0.000 sec  (  0.0%)
DIIS solution               ....       0.538 sec  (  1.3%)
SOSCF solution              ....       0.254 sec  (  0.6%)
Finished LeanSCF after  41.9 sec

Maximum memory used throughout the entire LEANSCF-calculation: 49.1 MB


-------------------------------------------------------------------------------
                          DFT DISPERSION CORRECTION                            
                                                                               
                              DFTD3 V3.1  Rev 1                                
                              USING zero damping                               
-------------------------------------------------------------------------------
The M062X functional is recognized
Active option DFTDOPT                   ...         3   

molecular C6(AA) [au] = 6375.849967 


            DFT-D V3
 parameters
 s6 scaling factor         :     1.0000 
 rs6 scaling factor        :     1.6190 
 s8 scaling factor         :     0.0000 
 rs8 scaling factor        :     1.0000 
 Damping factor alpha6     :    14.0000 
 Damping factor alpha8     :    16.0000 
 ad hoc parameters k1-k3   :    16.0000     1.3333    -4.0000 

 Edisp/kcal,au: -0.629781685146  -0.001003620892 
 E6   /kcal   :  -0.629781685 
 E8   /kcal   :  -0.000000000 
 % E8         :   0.000000000 

-------------------------   ----------------
Dispersion correction           -0.001003621
-------------------------   ----------------


-------------------------   --------------------
FINAL SINGLE POINT ENERGY      -878.497880784426
-------------------------   --------------------



           ************************************************************
           *        Program running with 6 parallel MPI-processes     *
           *              working on a common directory               *
           ************************************************************

------------------------------------------------------------------------------
                              ORCA PROPERTY CALCULATIONS
------------------------------------------------------------------------------

GBWName                                 ... data/single_point_PO_M06-2x/201037/201037.gbw
Number of atoms                         ...     23
Number of basis functions               ...    444
Max core memory                         ...   1024 MB

Electric properties:
Dipole moment                           ... YES
Quadrupole moment                       ...  NO
Static polarizability (Dipole/Dipole)   ...  NO
Static polarizability (Dipole/Quad.)    ...  NO
Static polarizability (Quad./Quad.)     ...  NO
Static polarizability (Velocity)        ...  NO

Atomic electric properties:
Dipole moment                           ...  NO
Quadrupole moment                       ...  NO
Static polarizability                   ...  NO

Choice of electric origin               ... Center of mass
Position of electric origin             ...    -0.436801     0.175651     0.383392

General magnetic properties:
Magnetizability                         ...  NO

EPR properties:
g-Tensor (aka g-matrix)                 ...  NO
Zero-Field splitting spin-orbit         ...  NO
Zero-field splitting spin-spin          ...  NO
Hyperfine couplings                     ...  NO (   0 nuclei)
Quadrupole couplings                    ...  NO (   0 nuclei)
Contact density                         ...  NO (   0 nuclei)

NMR properties:
Chemical shifts                         ...  NO (   0 nuclei)
Spin-rotation constants                 ...  NO (   0 nuclei)
Spin-spin couplings                     ...  NO (   0 nuclei,    0 pairs)

Choice of magnetic origin               ... GIAO
Position of magnetic origin             ...     0.000000     0.000000     0.000000

Properties with geometric perturbations:
SCF Hessian                             ...  NO
IR spectrum                             ...  NO
VCD spectrum                            ...  NO
X-ray spectroscopy properties:
SCF XES/XAS/RIXS spectra                ...  NO


-------------
DIPOLE MOMENT
-------------

Method             : SCF
Type of density    : Electron Density
Multiplicity       :   1
Irrep              :   0
Energy             :  -878.4968771635338953 Eh
Relativity type    : 
Basis              : AO
                                X                 Y                 Z
Electronic contribution:     -1.382923225       1.098717376       2.662636522
Nuclear contribution   :      2.756663625      -1.413292829      -3.901743035
                        -----------------------------------------
Total Dipole Moment    :      1.373740400      -0.314575453      -1.239106512
                        -----------------------------------------
Magnitude (a.u.)       :      1.876567439
Magnitude (Debye)      :      4.769855362



--------------------
Rotational spectrum 
--------------------
 
Rotational constants in cm-1:             0.045819             0.017155             0.016059 
Rotational constants in MHz :          1373.607398           514.294867           481.436610 

Dipole components along the rotational axes: 
x,y,z [a.u.] :    -1.530627    -0.685172     0.842155 
x,y,z [Debye]:    -3.890545    -1.741569     2.140588 

 

Dipole moment calculation done in   0.0 sec 

Maximum memory used throughout the entire PROP-calculation: 25.2 MB

--------------------------------
SUGGESTED CITATIONS FOR THIS RUN
--------------------------------

Below you find a list of papers that are relevant to this ORCA run
We neither can nor want to force you to cite these papers, but we appreciate if you do
You receive ORCA, which is the product of decades of hard work by many enthusiastic individuals, for free
The only thing we kindly ask in return is that you cite our papers,
We deeply appreciate it, if you show your appreciation for ORCA by not just citing the generic ORCA reference.

Please note that relegating all ORCA citations to the supporting information does *not* help us.
SI sections are not indexed - citations you put there will not count into any citation statistics
But we need these citations in order to attract the funding resources that allow us to do what we are doing

Therefore, if you are a happy ORCA user, please consider citing a few of the papers listed below in the main body of your paper

In addition to the list printed below, the program has created the file data/single_point_PO_M06-2x/201037/201037.bibtex that contains the list in bibtex format
You can import this file easily into all common literature databanks and citation aid programs


List of essential papers. We consider these as the minimum necessary citations

  1. Neese,F.
     Software update: the ORCA program system, version 5.0
     WIRES Comput. Molec. Sci., 2022 12(1)e1606
     doi.org/10.1002/wcms.1606

List of papers to cite with high priority. The work reported in these papers was absolutely
necessary for this run to complete.
Our perspective: the developers of density functionals and basis sets usually get cited in chemistry papers
Good! But without the algorithms to do something with them, the functionals or basis sets would not do anything.
Hence, in our opinion, the algorithm design and method developments papers are equally worthy of getting cited

  1. Neese,F.
     An improvement of the resolution of the identity approximation for the formation of the Coulomb matrix
     J. Comp. Chem., 2003 24(14)1740-1747
     doi.org/10.1002/jcc.10318
  2. Neese,F.; Wennmohs,F.; Hansen,A.; Becker,U.
     Efficient, approximate and parallel Hartree-Fock and hybrid DFT calculations. A 'chain-of-spheres' algorithm for the Hartree-Fock exchange
     Chem. Phys., 2009 356(1-3)98-109
     doi.org/10.1016/j.chemphys.2008.10.036
  3. Helmich-Paris,B.; de Souza,B.; Neese,F.; Izsák,R.
     An improved chain of spheres for exchange algorithm
     J. Chem. Phys., 2021 155 104109
     doi.org/doi: 10.1063/5.0058766.
  4. Neese,F.
     The SHARK Integral Generation and Digestion System
     J. Comp. Chem., 2022  1-16
     doi.org/10.1002/jcc.26942
  5. Grimme,S.; Antony,J.; Ehrlich,S.; Krieg,H.
     A consistent and accurate ab initio parametrization of density functional dispersion correction (DFT-D) for the 94 elements H-Pu
     J. Chem. Phys., 2010 132 154104-XXXX
     doi.org/10.1063/1.3382344

List of suggested additional citations. These are papers that are important in the 'surrounding' of 
of this run, or papers that preceded the highly important papers. If you like your results we are grateful for a citation.

  1. Izsak,R.; Neese,F.
     An overlap fitted chain of spheres exchange method
     J. Chem. Phys., 2011 135 144105
     doi.org/10.1063/1.3646921
  2. Izsak,R.; Hansen,A.; Neese,F.
     The resolution of identity and chain of spheres approximations for the LPNO-CCSD singles Fock term
     Molec. Phys., 2012 110 2413-2417
     doi.org/10.1080/00268976.2012.687466
  3. Neese,F.
     The ORCA program system
     WIRES Comput. Molec. Sci., 2012 2(1)73-78
     doi.org/10.1002/wcms.81
  4. Izsak,R.; Neese,F.; Klopper,W.
     Robust fitting techniques in the chain of spheres approximation to the Fock exchange: The role of the complementary space
     J. Chem. Phys., 2013 139 
     doi.org/10.1063/1.4819264
  5. Neese,F.
     Software update: the ORCA program system, version 4.0
     WIRES Comput. Molec. Sci., 2018 8(1)1-6
     doi.org/10.1002/wcms.1327
  6. Neese,F.; Wennmohs,F.; Becker,U.; Riplinger,C.
     The ORCA quantum chemistry program package
     J. Chem. Phys., 2020 152 Art. No. L224108
     doi.org/10.1063/5.0004608

List of optional additional citations

  1. Neese,F.
     Approximate second-order SCF convergence for spin unrestricted wavefunctions
     Chem. Phys. Lett., 2000 325(1-3)93-98
     doi.org/10.1016/s0009-2614(00)00662-x

Timings for individual modules:

Sum of individual times          ...       44.844 sec (=   0.747 min)
Startup calculation              ...        1.876 sec (=   0.031 min)   4.2 %
SCF iterations                   ...       42.790 sec (=   0.713 min)  95.4 %
Property calculations            ...        0.178 sec (=   0.003 min)   0.4 %
                             ****ORCA TERMINATED NORMALLY****
TOTAL RUN TIME: 0 days 0 hours 0 minutes 45 seconds 60 msec
