
                                 *****************
                                 * O   R   C   A *
                                 *****************

                                            #,                                       
                                            ###                                      
                                            ####                                     
                                            #####                                    
                                            ######                                   
                                           ########,                                 
                                     ,,################,,,,,                         
                               ,,#################################,,                 
                          ,,##########################################,,             
                       ,#########################################, ''#####,          
                    ,#############################################,,   '####,        
                  ,##################################################,,,,####,       
                ,###########''''           ''''###############################       
              ,#####''   ,,,,##########,,,,          '''####'''          '####       
            ,##' ,,,,###########################,,,                        '##       
           ' ,,###''''                  '''############,,,                           
         ,,##''                                '''############,,,,        ,,,,,,###''
      ,#''                                            '''#######################'''  
     '                                                          ''''####''''         
             ,#######,   #######,   ,#######,      ##                                
            ,#'     '#,  ##    ##  ,#'     '#,    #''#        ,####,   ,####,        
            ##       ##  ##   ,#'  ##            #'  '#       #'       #'  '#        
            ##       ##  #######   ##           ,######,      #####,   #    #        
            '#,     ,#'  ##    ##  '#,     ,#' ,#      #,     #,   #   #,  ,#        
             '#######'   ##     ##  '#######'  #'      '#     '####' # '####'        



                #########################################################
                #                        -***-                          #
                #          Department of theory and spectroscopy        #
                #                                                       #
                #                      Frank Neese                      #
                #                                                       #
                #     Directorship, Architecture, Infrastructure        #
                #                    SHARK, DRIVERS                     #
                #        Core code/Algorithms in most modules           #
                #                                                       #
                #        Max Planck Institute fuer Kohlenforschung      #
                #                Kaiser Wilhelm Platz 1                 #
                #                 D-45470 Muelheim/Ruhr                 #
                #                      Germany                          #
                #                                                       #
                #                  All rights reserved                  #
                #                        -***-                          #
                #########################################################


                         Program Version 6.0.0  -   RELEASE   -


 With contributions from (in alphabetic order):
   Daniel Aravena         : Magnetic Suceptibility
   Michael Atanasov       : Ab Initio Ligand Field Theory (pilot matlab implementation)
   Alexander A. Auer      : GIAO ZORA, VPT2 properties, NMR spectrum
   Ute Becker             : All parallelization in ORCA, NUMFREQ, NUMCALC
   Giovanni Bistoni       : ED, misc. LED, open-shell LED, HFLD
   Martin Brehm           : Molecular dynamics
   Dmytro Bykov           : pre 5.0 version of the SCF Hessian
   Marcos Casanova-Páez   : Triplet and SCS-CIS(D). UHF-(DLPNO)-IP/EA/STEOM-CCSD. UHF-CVS-IP/STEOM-CCSD
   Vijay G. Chilkuri      : MRCI spin determinant printing, contributions to CSF-ICE
   Pauline Colinet        : FMM embedding
   Dipayan Datta          : RHF DLPNO-CCSD density
   Achintya Kumar Dutta   : EOM-CC, STEOM-CC
   Nicolas Foglia         : Exact transition moments, OPA infrastructure, MCD improvements
   Dmitry Ganyushin       : Spin-Orbit,Spin-Spin,Magnetic field MRCI
   Miquel Garcia          : C-PCM and meta-GGA Hessian, CCSD/C-PCM, Gaussian charge scheme
   Tiago L. C. Gouveia    : GS-ROHF, GS-ROCIS
   Yang Guo               : DLPNO-NEVPT2, F12-NEVPT2, CIM, IAO-localization
   Andreas Hansen         : Spin unrestricted coupled pair/coupled cluster methods
   Ingolf Harden          : AUTO-CI MPn and infrastructure 
   Benjamin Helmich-Paris : MC-RPA, TRAH-(SCF,CASSCF), AVAS, COSX integrals, SCF dyn. polar.
   Lee Huntington         : MR-EOM, pCC
   Robert Izsak           : Overlap fitted RIJCOSX, COSX-SCS-MP3, EOM
   Riya Kayal             : Wick's Theorem for AUTO-CI, AUTO-CI UHF-CCSDT
   Emily Kempfer          : AUTO-CI, RHF CISDT and CCSDT
   Christian Kollmar      : KDIIS, OOCD, Brueckner-CCSD(T), CCSD density, CASPT2, CASPT2-K, improved NEVPT2
   Axel Koslowski         : Symmetry handling
   Simone Kossmann        : Meta GGA functionals, TD-DFT gradient, OOMP2, (MP2 Hessian; deprecated post 5.0)
   Lucas Lang             : DCDCAS
   Marvin Lechner         : AUTO-CI (C++ implementation), FIC-MRCC
   Spencer Leger          : CASSCF response
   Dagmar Lenk            : GEPOL surface, SMD, ORCA-2-JSON
   Dimitrios Liakos       : Extrapolation schemes; Compound Job, initial MDCI parallelization
   Dimitrios Manganas     : Further ROCIS development; embedding schemes. LFT, Crystal Embedding
   Dimitrios Pantazis     : SARC Basis sets
   Anastasios Papadopoulos: AUTO-CI, single reference methods and gradients
   Taras Petrenko         : pre 6.0 DFT Hessian and TD-DFT gradient, (ASA, deprecated), ECA, 1-Electron XAS/XES, NRVS
   Peter Pinski           : DLPNO-MP2, DLPNO-MP2 Gradient
   Christoph Reimann      : Effective Core Potentials
   Marius Retegan         : Local ZFS, SOC
   Christoph Riplinger    : Optimizer, TS searches, QM/MM, DLPNO-CCSD(T), (RO)-DLPNO pert. Triples
   Michael Roemelt        : Original ROCIS implementation
   Masaaki Saitow         : Open-shell DLPNO-CCSD energy and density
   Barbara Sandhoefer     : DKH picture change effects
   Kantharuban Sivalingam : CASSCF convergence/infrastructure, NEVPT2 and variants, FIC-MRCI
   Bernardo de Souza      : ESD, SOC TD-DFT
   Georgi Stoychev        : AutoAux, RI-MP2 NMR, DLPNO-MP2 response, X2C
   Van Anh Tran           : RI-MP2 g-tensors
   Willem Van den Heuvel  : Paramagnetic NMR
   Zikuan Wang            : NOTCH, Electric field optimization 
   Frank Wennmohs         : Technical directorship and infrastructure
   Hang Xu                : AUTO-CI-Response properties 


 We gratefully acknowledge several colleagues who have allowed us to
 interface, adapt or use parts of their codes:
   Stefan Grimme, W. Hujo, H. Kruse, P. Pracht,  : VdW corrections, initial TS optimization,
                  C. Bannwarth, S. Ehlert,         DFT functionals, gCP, sTDA/sTD-DF
                  L. Wittmann, M. Mueller
   Ed Valeev, F. Pavosevic, A. Kumar             : LibInt (2-el integral package), F12 methods
   Garnet Chan, S. Sharma, J. Yang, R. Olivares  : DMRG
   Ulf Ekstrom                                   : XCFun DFT Library
   Mihaly Kallay                                 : mrcc  (arbitrary order and MRCC methods)
   Frank Weinhold                                : gennbo (NPA and NBO analysis)
   Simon Mueller                                 : openCOSMO-RS
   Christopher J. Cramer and Donald G. Truhlar   : smd solvation model
   Lars Goerigk                                  : TD-DFT with DH, B97 family of functionals
   V. Asgeirsson, H. Jonsson                     : NEB implementation
   FAccTs GmbH                                   : IRC, NEB, NEB-TS, DLPNO-Multilevel, CI-OPT
                                                   MM, QMMM, 2- and 3-layer-ONIOM, Crystal-QMMM,
                                                   LR-CPCM, SF, NACMEs, symmetry and pop. for TD-DFT,
                                                   nearIR, NL-DFT gradient (VV10), updates on ESD,
                                                   ML-optimized integration grids, MBIS, APM,
                                                   GOAT, DOCKER, SOLVATOR, interface openCOSMO-RS
   S Lehtola, MJT Oliveira, MAL Marques          : LibXC Library
   Liviu Ungur et al                             : ANISO software


 Your calculation uses the libint2 library for the computation of 2-el integrals
 For citations please refer to: http://libint.valeyev.net

 Your ORCA version has been built with support for libXC version: 6.2.2
 For citations please refer to: https://libxc.gitlab.io

 This ORCA versions uses:
   CBLAS   interface :  Fast vector & matrix operations
   LAPACKE interface :  Fast linear algebra routines
   Shared memory     :  Shared parallel matrices


Your calculation utilizes the atom-pairwise dispersion correction
with the Becke-Johnson damping scheme (D3BJ)


Warning: RI is on but no J-basis has been assigned. Assigning Def2/J (nothing to worry about!)
================================================================================

----- Orbital basis set information -----
Your calculation utilizes the basis: def2-SVP
   F. Weigend and R. Ahlrichs, Phys. Chem. Chem. Phys. 7, 3297 (2005).

----- AuxJ basis set information -----
Your calculation utilizes the auxiliary basis: def2/J
   F. Weigend, Phys. Chem. Chem. Phys. 8, 1057 (2006).

================================================================================
                                        WARNINGS
                       Please study these warnings very carefully!
================================================================================


WARNING: Geometry Optimization
  ===> : Switching off AutoStart
         For restart on a previous wavefunction, please use MOREAD

================================================================================
                                       INPUT FILE
================================================================================
NAME = data/geom_opt_PO_BP86/87708/87708.inp
|  1> ! RI BP86 def2-SVP D3BJ TIGHTSCF Opt
|  2> %pal
|  3> nprocs 6
|  4> end
|  5> 
|  6> * xyz 0 1
|  7> C     -1.630027    3.315591   -1.606972
|  8> C     -2.198081    2.225236   -0.715789
|  9> O     -1.628494    0.985196   -1.117554
| 10> Si    -2.065007   -0.400861   -0.307047
| 11> C     -0.585693   -1.566852   -0.147182
| 12> C      0.448006   -1.253752    0.932491
| 13> P      1.431166    0.276048    0.748273
| 14> O      0.532194    1.459172    1.038215
| 15> C      2.758080    0.144699    1.954552
| 16> C      3.751778   -0.840515    1.871511
| 17> C      4.762053   -0.913631    2.833237
| 18> C      4.789284   -0.005939    3.890488
| 19> C      3.807719    0.977464    3.986882
| 20> C      2.799933    1.051681    3.024785
| 21> C      2.157086    0.319160   -0.885462
| 22> C      2.272735    1.553902   -1.540762
| 23> C      2.838899    1.638750   -2.812634
| 24> C      3.297653    0.487576   -3.447618
| 25> C      3.187640   -0.747368   -2.812237
| 26> C      2.620959   -0.831658   -1.538505
| 27> O     -3.271842   -1.151834   -1.188656
| 28> C     -3.172134   -1.164679   -2.608119
| 29> C     -4.312827   -2.003472   -3.156123
| 30> O     -2.682754   -0.026092    1.195156
| 31> C     -3.494461   -0.981304    1.865318
| 32> C     -3.806236   -0.448022    3.252217
| 33> H     -1.837893    3.101693   -2.660769
| 34> H     -2.056988    4.289494   -1.351876
| 35> H     -0.541781    3.370522   -1.500554
| 36> H     -3.289130    2.197737   -0.829712
| 37> H     -1.951258    2.451044    0.329228
| 38> H     -0.100242   -1.623251   -1.126155
| 39> H     -0.990641   -2.565823    0.055381
| 40> H      1.155678   -2.090396    0.970519
| 41> H     -0.032670   -1.212317    1.917855
| 42> H      3.754095   -1.559062    1.057529
| 43> H      5.531172   -1.678453    2.757224
| 44> H      5.575791   -0.063059    4.637875
| 45> H      3.825710    1.688959    4.808892
| 46> H      2.037015    1.825387    3.106712
| 47> H      1.909191    2.457086   -1.052514
| 48> H      2.918445    2.603604   -3.306351
| 49> H      3.738619    0.553252   -4.438792
| 50> H      3.542145   -1.645952   -3.311338
| 51> H      2.539345   -1.807139   -1.067069
| 52> H     -2.218203   -1.601779   -2.927607
| 53> H     -3.252842   -0.145135   -3.005351
| 54> H     -5.278497   -1.595971   -2.838548
| 55> H     -4.256450   -3.027525   -2.772544
| 56> H     -4.284025   -2.033659   -4.249003
| 57> H     -2.972011   -1.941704    1.958300
| 58> H     -4.433017   -1.133399    1.318150
| 59> H     -4.319192    0.517733    3.188631
| 60> H     -2.882497   -0.282344    3.817018
| 61> H     -4.437495   -1.148041    3.806402
| 62> **                         ****END OF INPUT****
================================================================================

                       *****************************
                       * Geometry Optimization Run *
                       *****************************

Geometry optimization settings:
Update method            Update   .... BFGS
Choice of coordinates    CoordSys .... (2022) Redundant Internals
Initial Hessian          InHess   .... Almloef's Model
Max. no of cycles        MaxIter  .... 165

Convergence Tolerances:
Energy Change            TolE     ....  5.0000e-06 Eh
Max. Gradient            TolMAXG  ....  3.0000e-04 Eh/bohr
RMS Gradient             TolRMSG  ....  1.0000e-04 Eh/bohr
Max. Displacement        TolMAXD  ....  4.0000e-03 bohr
RMS Displacement         TolRMSD  ....  2.0000e-03 bohr
Strict Convergence                .... False

------------------------------------------------------------------------------
                        ORCA OPTIMIZATION COORDINATE SETUP
------------------------------------------------------------------------------

The optimization will be done in redundant internal coordinates (2022)
Making redundant internal coordinates   ...  (2022 redundants) done
Evaluating the initial hessian          ...  (Almloef) done
Evaluating the coordinates              ...  done
Calculating the B-matrix                .... done
Calculating the G-matrix                .... done
Diagonalizing the G-matrix              .... done
Small eigenvalue found = 1.198e-03
Small eigenvalue found = 2.158e-03
Small eigenvalue found = 4.613e-03
Small eigenvalue found = 6.017e-03
Small eigenvalue found = 7.327e-03
Small eigenvalue found = 1.045e-02
Small eigenvalue found = 1.289e-02
Small eigenvalue found = 1.777e-02
Small eigenvalue found = 1.983e-02
Small eigenvalue found = 2.339e-02
The first mode is                       ....  109
The number of degrees of freedom        ....  159

    -----------------------------------------------------------------
                    Redundant Internal Coordinates


    -----------------------------------------------------------------
         Definition                    Initial Value    Approx d2E/dq
    -----------------------------------------------------------------
      1. B(C   1,C   0)                  1.5185         0.389731   
      2. B(O   2,C   1)                  1.4225         0.496596   
      3. B(Si  3,O   2)                  1.6639         0.889269   
      4. B(C   4,Si  3)                  1.8904         0.432136   
      5. B(C   5,C   4)                  1.5272         0.377474   
      6. B(P   6,C   5)                  1.8278         0.420496   
      7. B(O   7,P   6)                  1.5139         1.192996   
      8. B(C   8,P   6)                  1.7981         0.469008   
      9. B(C   9,C   8)                  1.4018         0.598342   
     10. B(C  10,C   9)                  1.3968         0.609488   
     11. B(C  11,C  10)                  1.3937         0.616340   
     12. B(C  12,C  11)                  1.3928         0.618442   
     13. B(C  13,C   8)                  1.4035         0.594602   
     14. B(C  13,C  12)                  1.3953         0.612822   
     15. B(C  14,P   6)                  1.7883         0.486204   
     16. B(C  15,C  14)                  1.4026         0.596462   
     17. B(C  16,C  15)                  1.3948         0.613931   
     18. B(C  17,C  16)                  1.3924         0.619244   
     19. B(C  18,C  17)                  1.3932         0.617582   
     20. B(C  19,C  18)                  1.3966         0.609723   
     21. B(C  19,C  14)                  1.4022         0.597522   
     22. B(O  20,Si  3)                  1.6726         0.861298   
     23. B(C  21,O  20)                  1.4230         0.495674   
     24. B(C  22,C  21)                  1.5182         0.390063   
     25. B(O  23,Si  3)                  1.6669         0.879459   
     26. B(C  24,O  23)                  1.4214         0.498606   
     27. B(C  25,C  24)                  1.5182         0.390054   
     28. B(H  26,C   0)                  1.0952         0.353295   
     29. B(H  27,C   0)                  1.0936         0.355431   
     30. B(H  28,C   0)                  1.0948         0.353785   
     31. B(H  29,C   1)                  1.0973         0.350539   
     32. B(H  30,C   1)                  1.0973         0.350628   
     33. B(H  31,C   4)                  1.0942         0.354612   
     34. B(H  32,C   4)                  1.0968         0.351223   
     35. B(H  33,C   5)                  1.0965         0.351658   
     36. B(H  34,C   5)                  1.0971         0.350782   
     37. B(H  35,C   9)                  1.0858         0.365749   
     38. B(H  36,C  10)                  1.0873         0.363657   
     39. B(H  37,C  11)                  1.0865         0.364784   
     40. B(H  38,C  12)                  1.0873         0.363672   
     41. B(H  39,C  13)                  1.0897         0.360539   
     42. B(H  40,C  15)                  1.0892         0.361199   
     43. B(H  41,H  28)                  3.9777         0.000002   
     44. B(H  41,C  16)                  1.0868         0.364424   
     45. B(H  42,C  17)                  1.0868         0.364324   
     46. B(H  43,C  18)                  1.0873         0.363685   
     47. B(H  44,C  19)                  1.0865         0.364764   
     48. B(H  45,C  21)                  1.0969         0.351132   
     49. B(H  46,C  21)                  1.0972         0.350742   
     50. B(H  47,C  22)                  1.0952         0.353306   
     51. B(H  48,C  22)                  1.0950         0.353563   
     52. B(H  49,C  22)                  1.0937         0.355270   
     53. B(H  50,C  24)                  1.0973         0.350630   
     54. B(H  51,C  24)                  1.0970         0.350956   
     55. B(H  52,C  25)                  1.0954         0.353057   
     56. B(H  53,C  25)                  1.0953         0.353120   
     57. B(H  54,C  25)                  1.0935         0.355563   
     58. A(H  27,C   0,H  28)          108.7073         0.289440   
     59. A(H  26,C   0,H  28)          106.9769         0.289167   
     60. A(C   1,C   0,H  27)          110.8871         0.325884   
     61. A(C   1,C   0,H  26)          110.6994         0.325561   
     62. A(H  26,C   0,H  27)          108.9225         0.289377   
     63. A(C   1,C   0,H  28)          110.5381         0.325635   
     64. A(C   0,C   1,H  30)          109.0886         0.325156   
     65. A(C   0,C   1,H  29)          109.2093         0.325142   
     66. A(O   2,C   1,H  30)          110.9966         0.336417   
     67. A(O   2,C   1,H  29)          110.3010         0.336403   
     68. A(C   0,C   1,O   2)          108.0834         0.381996   
     69. A(H  29,C   1,H  30)          109.1288         0.288407   
     70. A(C   1,O   2,Si  3)          118.9166         0.475569   
     71. A(C   4,Si  3,O  23)          110.6384         0.504122   
     72. A(O   2,Si  3,O  23)          110.4206         0.574590   
     73. A(O   2,Si  3,C   4)          110.4693         0.505166   
     74. A(O  20,Si  3,O  23)          107.9718         0.571091   
     75. A(O   2,Si  3,O  20)          107.8511         0.572302   
     76. A(C   4,Si  3,O  20)          109.4068         0.502166   
     77. A(C   5,C   4,H  31)          110.0475         0.324054   
     78. A(C   5,C   4,H  32)          107.8227         0.323544   
     79. A(Si  3,C   4,H  32)          106.7673         0.355462   
     80. A(Si  3,C   4,C   5)          117.5821         0.402156   
     81. A(H  31,C   4,H  32)          106.3855         0.289006   
     82. A(Si  3,C   4,H  31)          107.6573         0.356042   
     83. A(H  33,C   5,H  34)          106.2863         0.288571   
     84. A(P   6,C   5,H  34)          107.1319         0.349690   
     85. A(P   6,C   5,H  33)          107.1557         0.349837   
     86. A(C   4,C   5,H  33)          107.7548         0.323609   
     87. A(C   4,C   5,P   6)          117.6730         0.395459   
     88. A(C   4,C   5,H  34)          110.2516         0.323477   
     89. A(C   5,P   6,O   7)          108.3835         0.517499   
     90. A(C   5,P   6,C   8)          105.5567         0.438245   
     91. A(C   8,P   6,C  14)          108.3666         0.449912   
     92. A(O   7,P   6,C   8)          111.5189         0.528221   
     93. A(O   7,P   6,C  14)          113.4013         0.531815   
     94. A(C   5,P   6,C  14)          109.3055         0.441103   
     95. A(P   6,C   8,C  13)          119.1027         0.437153   
     96. A(P   6,C   8,C   9)          122.3257         0.437648   
     97. A(C   9,C   8,C  13)          118.5698         0.428075   
     98. A(C  10,C   9,H  35)          118.6858         0.352817   
     99. A(C   8,C   9,H  35)          120.7339         0.351717   
    100. A(C   8,C   9,C  10)          120.5799         0.429978   
    101. A(C   9,C  10,H  36)          120.0208         0.352475   
    102. A(C  11,C  10,H  36)          119.8228         0.353142   
    103. A(C   9,C  10,C  11)          120.1563         0.432273   
    104. A(C  12,C  11,H  37)          119.9790         0.353531   
    105. A(C  10,C  11,H  37)          120.1148         0.353328   
    106. A(C  10,C  11,C  12)          119.9061         0.433408   
    107. A(C  11,C  12,C  13)          119.9251         0.432962   
    108. A(C  13,C  12,H  38)          119.8968         0.352803   
    109. A(C  11,C  12,H  38)          120.1779         0.353349   
    110. A(C  12,C  13,H  39)          119.4475         0.352287   
    111. A(C   8,C  13,H  39)          119.6900         0.350494   
    112. A(C   8,C  13,C  12)          120.8625         0.429915   
    113. A(C  15,C  14,C  19)          118.5314         0.428209   
    114. A(P   6,C  14,C  19)          122.6840         0.440392   
    115. A(P   6,C  14,C  15)          118.7842         0.440251   
    116. A(C  16,C  15,H  40)          119.5918         0.352504   
    117. A(C  14,C  15,C  16)          120.8668         0.430296   
    118. A(C  14,C  15,H  40)          119.5400         0.350788   
    119. A(C  15,C  16,C  17)          119.9527         0.433203   
    120. A(C  17,C  16,H  41)          120.1798         0.353550   
    121. A(C  15,C  16,H  41)          119.8674         0.353034   
    122. A(C  16,C  17,C  18)          119.9240         0.433666   
    123. A(C  18,C  17,H  42)          120.1018         0.353372   
    124. A(C  16,C  17,H  42)          119.9740         0.353533   
    125. A(C  17,C  18,C  19)          120.0974         0.432459   
    126. A(C  19,C  18,H  43)          120.0689         0.352503   
    127. A(C  17,C  18,H  43)          119.8336         0.353268   
    128. A(C  14,C  19,C  18)          120.6274         0.429902   
    129. A(C  18,C  19,H  44)          118.7103         0.352679   
    130. A(C  14,C  19,H  44)          120.6605         0.351476   
    131. A(Si  3,O  20,C  21)          118.6373         0.472621   
    132. A(O  20,C  21,C  22)          108.2032         0.381929   
    133. A(H  45,C  21,H  46)          109.1974         0.288498   
    134. A(C  22,C  21,H  46)          109.1135         0.325218   
    135. A(O  20,C  21,H  46)          110.3409         0.336331   
    136. A(C  22,C  21,H  45)          109.1549         0.325278   
    137. A(O  20,C  21,H  45)          110.7984         0.336393   
    138. A(H  48,C  22,H  49)          108.8372         0.289391   
    139. A(H  47,C  22,H  49)          108.8598         0.289358   
    140. A(C  21,C  22,H  49)          110.8637         0.325905   
    141. A(H  47,C  22,H  48)          106.9657         0.289140   
    142. A(C  21,C  22,H  48)          110.5829         0.325647   
    143. A(C  21,C  22,H  47)          110.6245         0.325608   
    144. A(Si  3,O  23,C  24)          119.0402         0.474952   
    145. A(H  50,C  24,H  51)          109.1647         0.288461   
    146. A(C  25,C  24,H  51)          109.1863         0.325250   
    147. A(O  23,C  24,H  51)          110.2785         0.336695   
    148. A(C  25,C  24,H  50)          109.1357         0.325200   
    149. A(O  23,C  24,H  50)          110.8699         0.336643   
    150. A(O  23,C  24,C  25)          108.1743         0.382319   
    151. A(H  53,C  25,H  54)          108.8060         0.289371   
    152. A(H  52,C  25,H  54)          108.8751         0.289363   
    153. A(C  24,C  25,H  54)          110.8952         0.325948   
    154. A(H  52,C  25,H  53)          106.9481         0.289051   
    155. A(C  24,C  25,H  53)          110.5474         0.325579   
    156. A(C  24,C  25,H  52)          110.6599         0.325569   
    157. D(H  29,C   1,C   0,H  27)     58.6532         0.012076   
    158. D(O   2,C   1,C   0,H  27)    178.6709         0.012076   
    159. D(O   2,C   1,C   0,H  28)    -60.6946         0.012076   
    160. D(H  29,C   1,C   0,H  26)    -62.3605         0.012076   
    161. D(H  29,C   1,C   0,H  28)    179.2877         0.012076   
    162. D(O   2,C   1,C   0,H  26)     57.6572         0.012076   
    163. D(Si  3,O   2,C   1,H  30)     60.1512         0.019488   
    164. D(Si  3,O   2,C   1,C   0)    179.7424         0.019488   
    165. D(Si  3,O   2,C   1,H  29)    -60.9280         0.019488   
    166. D(O  23,Si  3,O   2,C   1)    -20.6517         0.010319   
    167. D(O  20,Si  3,O   2,C   1)     97.1098         0.010319   
    168. D(C   4,Si  3,O   2,C   1)   -143.3643         0.010319   
    169. D(C   5,C   4,Si  3,O  23)    -44.1098         0.003534   
    170. D(H  31,C   4,Si  3,O   2)    -46.4258         0.003534   
    171. D(C   5,C   4,Si  3,O  20)   -162.9427         0.003534   
    172. D(C   5,C   4,Si  3,O   2)     78.4754         0.003534   
    173. D(H  31,C   4,Si  3,O  23)   -169.0110         0.003534   
    174. D(H  31,C   4,Si  3,O  20)     72.1561         0.003534   
    175. D(H  33,C   5,C   4,H  32)     52.1414         0.011364   
    176. D(H  33,C   5,C   4,Si  3)    172.7942         0.011364   
    177. D(P   6,C   5,C   4,H  32)    173.3155         0.011364   
    178. D(P   6,C   5,C   4,H  31)     57.6732         0.011364   
    179. D(P   6,C   5,C   4,Si  3)    -66.0316         0.011364   
    180. D(H  33,C   5,C   4,H  31)    -63.5009         0.011364   
    181. D(C   8,P   6,C   5,H  34)     67.2878         0.004090   
    182. D(C   8,P   6,C   5,C   4)   -167.9167         0.004090   
    183. D(O   7,P   6,C   5,H  34)    -52.2997         0.004090   
    184. D(O   7,P   6,C   5,H  33)   -166.0205         0.004090   
    185. D(C   8,P   6,C   5,H  33)    -46.4331         0.004090   
    186. D(O   7,P   6,C   5,C   4)     72.4958         0.004090   
    187. D(C   9,C   8,P   6,C   5)     64.9734         0.004508   
    188. D(C  13,C   8,P   6,O   7)      2.9530         0.004508   
    189. D(C  13,C   8,P   6,C   5)   -114.5416         0.004508   
    190. D(C   9,C   8,P   6,C  14)    -52.0288         0.004508   
    191. D(C   9,C   8,P   6,O   7)   -177.5320         0.004508   
    192. D(H  35,C   9,C   8,C  13)   -179.9011         0.024673   
    193. D(H  35,C   9,C   8,P   6)      0.5814         0.024673   
    194. D(C  10,C   9,C   8,C  13)     -0.1300         0.024673   
    195. D(C  10,C   9,C   8,P   6)   -179.6475         0.024673   
    196. D(H  36,C  10,C   9,H  35)      0.0817         0.025653   
    197. D(H  36,C  10,C   9,C   8)   -179.6941         0.025653   
    198. D(C  11,C  10,C   9,H  35)    179.9433         0.025653   
    199. D(C  11,C  10,C   9,C   8)      0.1675         0.025653   
    200. D(H  37,C  11,C  10,H  36)     -0.1015         0.026268   
    201. D(H  37,C  11,C  10,C   9)   -179.9634         0.026268   
    202. D(C  12,C  11,C  10,H  36)    179.7686         0.026268   
    203. D(C  12,C  11,C  10,C   9)     -0.0933         0.026268   
    204. D(H  38,C  12,C  11,H  37)     -0.0221         0.026458   
    205. D(H  38,C  12,C  11,C  10)   -179.8924         0.026458   
    206. D(C  13,C  12,C  11,H  37)    179.8549         0.026458   
    207. D(C  13,C  12,C  11,C  10)     -0.0154         0.026458   
    208. D(H  39,C  13,C  12,C  11)   -179.8811         0.025951   
    209. D(C   8,C  13,C  12,H  38)    179.9289         0.025951   
    210. D(C   8,C  13,C  12,C  11)      0.0515         0.025951   
    211. D(H  39,C  13,C   8,C   9)    179.9533         0.024350   
    212. D(H  39,C  13,C   8,P   6)     -0.5133         0.024350   
    213. D(C  12,C  13,C   8,C   9)      0.0208         0.024350   
    214. D(H  39,C  13,C  12,H  38)     -0.0037         0.025951   
    215. D(C  12,C  13,C   8,P   6)    179.5542         0.024350   
    216. D(C  19,C  14,P   6,C   5)    -36.2512         0.004741   
    217. D(C  15,C  14,P   6,C   8)   -101.4530         0.004741   
    218. D(C  15,C  14,P   6,O   7)     22.9365         0.004741   
    219. D(C  15,C  14,P   6,C   5)    143.9819         0.004741   
    220. D(C  19,C  14,P   6,O   7)   -157.2965         0.004741   
    221. D(H  40,C  15,C  14,C  19)    179.4284         0.024510   
    222. D(H  40,C  15,C  14,P   6)     -0.7949         0.024510   
    223. D(C  16,C  15,C  14,C  19)     -0.1415         0.024510   
    224. D(C  16,C  15,C  14,P   6)    179.6352         0.024510   
    225. D(H  41,C  16,C  15,H  40)      0.2945         0.026051   
    226. D(H  41,C  16,C  15,C  14)    179.8642         0.026051   
    227. D(C  17,C  16,C  15,H  40)   -179.5557         0.026051   
    228. D(C  17,C  16,C  15,C  14)      0.0140         0.026051   
    229. D(H  42,C  17,C  16,H  41)      0.1331         0.026531   
    230. D(H  42,C  17,C  16,C  15)    179.9828         0.026531   
    231. D(C  18,C  17,C  16,H  41)   -179.7157         0.026531   
    232. D(C  18,C  17,C  16,C  15)      0.1340         0.026531   
    233. D(H  43,C  18,C  17,H  42)     -0.1315         0.026380   
    234. D(H  43,C  18,C  17,C  16)    179.7172         0.026380   
    235. D(C  19,C  18,C  17,H  42)    179.9996         0.026380   
    236. D(C  19,C  18,C  17,C  16)     -0.1517         0.026380   
    237. D(H  44,C  19,C  18,H  43)     -0.3328         0.025674   
    238. D(H  44,C  19,C  18,C  17)    179.5358         0.025674   
    239. D(C  14,C  19,C  18,H  43)   -179.8470         0.025674   
    240. D(C  14,C  19,C  18,C  17)      0.0216         0.025674   
    241. D(H  44,C  19,C  14,C  15)   -179.3811         0.024602   
    242. D(H  44,C  19,C  14,P   6)      0.8514         0.024602   
    243. D(C  18,C  19,C  14,C  15)      0.1235         0.024602   
    244. D(C  18,C  19,C  14,P   6)   -179.6440         0.024602   
    245. D(C  21,O  20,Si  3,O  23)    158.9323         0.009741   
    246. D(C  21,O  20,Si  3,C   4)    -80.5939         0.009741   
    247. D(C  21,O  20,Si  3,O   2)     39.6034         0.009741   
    248. D(H  46,C  21,O  20,Si  3)    -65.6044         0.019414   
    249. D(H  45,C  21,O  20,Si  3)     55.4567         0.019414   
    250. D(C  22,C  21,O  20,Si  3)    175.0863         0.019414   
    251. D(H  48,C  22,C  21,H  46)   -179.8915         0.012096   
    252. D(H  48,C  22,C  21,H  45)     60.8481         0.012096   
    253. D(H  48,C  22,C  21,O  20)    -59.8104         0.012096   
    254. D(H  47,C  22,C  21,H  46)    -61.5726         0.012096   
    255. D(H  47,C  22,C  21,H  45)    179.1670         0.012096   
    256. D(H  47,C  22,C  21,O  20)     58.5085         0.012096   
    257. D(C  24,O  23,Si  3,O  20)     42.3072         0.010114   
    258. D(C  24,O  23,Si  3,C   4)    -77.3920         0.010114   
    259. D(C  24,O  23,Si  3,O   2)    159.9944         0.010114   
    260. D(H  51,C  24,O  23,Si  3)    -66.1314         0.019651   
    261. D(H  50,C  24,O  23,Si  3)     54.8941         0.019651   
    262. D(C  25,C  24,O  23,Si  3)    174.5248         0.019651   
    263. D(H  53,C  25,C  24,H  51)   -179.6755         0.012095   
    264. D(H  53,C  25,C  24,H  50)     61.0721         0.012095   
    265. D(H  53,C  25,C  24,O  23)    -59.6445         0.012095   
    266. D(H  52,C  25,C  24,H  51)    -61.3785         0.012095   
    267. D(H  52,C  25,C  24,H  50)    179.3690         0.012095   
    268. D(H  52,C  25,C  24,O  23)     58.6525         0.012095   
    -----------------------------------------------------------------

Number of atoms                         .... 55
Number of degrees of freedom            .... 268


         *************************************************************
         *                GEOMETRY OPTIMIZATION CYCLE   1            *
         *************************************************************
---------------------------------
CARTESIAN COORDINATES (ANGSTROEM)
---------------------------------
  C     -1.630027    3.315591   -1.606972
  C     -2.198081    2.225236   -0.715789
  O     -1.628494    0.985196   -1.117554
  Si    -2.065007   -0.400861   -0.307047
  C     -0.585693   -1.566852   -0.147182
  C      0.448006   -1.253752    0.932491
  P      1.431166    0.276048    0.748273
  O      0.532194    1.459172    1.038215
  C      2.758080    0.144699    1.954552
  C      3.751778   -0.840515    1.871511
  C      4.762053   -0.913631    2.833237
  C      4.789284   -0.005939    3.890488
  C      3.807719    0.977464    3.986882
  C      2.799933    1.051681    3.024785
  C      2.157086    0.319160   -0.885462
  C      2.272735    1.553902   -1.540762
  C      2.838899    1.638750   -2.812634
  C      3.297653    0.487576   -3.447618
  C      3.187640   -0.747368   -2.812237
  C      2.620959   -0.831658   -1.538505
  O     -3.271842   -1.151834   -1.188656
  C     -3.172134   -1.164679   -2.608119
  C     -4.312827   -2.003472   -3.156123
  O     -2.682754   -0.026092    1.195156
  C     -3.494461   -0.981304    1.865318
  C     -3.806236   -0.448022    3.252217
  H     -1.837893    3.101693   -2.660769
  H     -2.056988    4.289494   -1.351876
  H     -0.541781    3.370522   -1.500554
  H     -3.289130    2.197737   -0.829712
  H     -1.951258    2.451044    0.329228
  H     -0.100242   -1.623251   -1.126155
  H     -0.990641   -2.565823    0.055381
  H      1.155678   -2.090396    0.970519
  H     -0.032670   -1.212317    1.917855
  H      3.754095   -1.559062    1.057529
  H      5.531172   -1.678453    2.757224
  H      5.575791   -0.063059    4.637875
  H      3.825710    1.688959    4.808892
  H      2.037015    1.825387    3.106712
  H      1.909191    2.457086   -1.052514
  H      2.918445    2.603604   -3.306351
  H      3.738619    0.553252   -4.438792
  H      3.542145   -1.645952   -3.311338
  H      2.539345   -1.807139   -1.067069
  H     -2.218203   -1.601779   -2.927607
  H     -3.252842   -0.145135   -3.005351
  H     -5.278497   -1.595971   -2.838548
  H     -4.256450   -3.027525   -2.772544
  H     -4.284025   -2.033659   -4.249003
  H     -2.972011   -1.941704    1.958300
  H     -4.433017   -1.133399    1.318150
  H     -4.319192    0.517733    3.188631
  H     -2.882497   -0.282344    3.817018
  H     -4.437495   -1.148041    3.806402

----------------------------
CARTESIAN COORDINATES (A.U.)
----------------------------
  NO LB      ZA    FRAG     MASS         X           Y           Z
   0 C     6.0000    0    12.011   -3.080305    6.265559   -3.036737
   1 C     6.0000    0    12.011   -4.153771    4.205087   -1.352645
   2 O     8.0000    0    15.999   -3.077408    1.861751   -2.111871
   3 Si   14.0000    0    28.086   -3.902298   -0.757518   -0.580235
   4 C     6.0000    0    12.011   -1.106799   -2.960921   -0.278134
   5 C     6.0000    0    12.011    0.846609   -2.369248    1.762153
   6 P    15.0000    0    30.974    2.704512    0.521655    1.414031
   7 O     8.0000    0    15.999    1.005701    2.757435    1.961942
   8 C     6.0000    0    12.011    5.212016    0.273441    3.693568
   9 C     6.0000    0    12.011    7.089833   -1.588343    3.536643
  10 C     6.0000    0    12.011    8.998976   -1.726512    5.354042
  11 C     6.0000    0    12.011    9.050435   -0.011223    7.351957
  12 C     6.0000    0    12.011    7.195546    1.847139    7.534115
  13 C     6.0000    0    12.011    5.291107    1.987389    5.716015
  14 C     6.0000    0    12.011    4.076302    0.603125   -1.673281
  15 C     6.0000    0    12.011    4.294847    2.936449   -2.911618
  16 C     6.0000    0    12.011    5.364742    3.096789   -5.315108
  17 C     6.0000    0    12.011    6.231661    0.921385   -6.515054
  18 C     6.0000    0    12.011    6.023767   -1.412321   -5.314358
  19 C     6.0000    0    12.011    4.952895   -1.571606   -2.907353
  20 O     8.0000    0    15.999   -6.182885   -2.176651   -2.246234
  21 C     6.0000    0    12.011   -5.994465   -2.200924   -4.928631
  22 C     6.0000    0    12.011   -8.150062   -3.786013   -5.964208
  23 O     8.0000    0    15.999   -5.069670   -0.049307    2.258518
  24 C     6.0000    0    12.011   -6.603574   -1.854396    3.524940
  25 C     6.0000    0    12.011   -7.192744   -0.846639    6.145799
  26 H     1.0000    0     1.008   -3.473114    5.861350   -5.028125
  27 H     1.0000    0     1.008   -3.887144    8.105969   -2.554675
  28 H     1.0000    0     1.008   -1.023818    6.369364   -2.835636
  29 H     1.0000    0     1.008   -6.215555    4.153121   -1.567928
  30 H     1.0000    0     1.008   -3.687343    4.631802    0.622151
  31 H     1.0000    0     1.008   -0.189430   -3.067500   -2.128125
  32 H     1.0000    0     1.008   -1.872040   -4.848703    0.104655
  33 H     1.0000    0     1.008    2.183915   -3.950276    1.834015
  34 H     1.0000    0     1.008   -0.061737   -2.290947    3.624221
  35 H     1.0000    0     1.008    7.094211   -2.946200    1.998440
  36 H     1.0000    0     1.008   10.452400   -3.171816    5.210398
  37 H     1.0000    0     1.008   10.536718   -0.119164    8.764314
  38 H     1.0000    0     1.008    7.229544    3.191670    9.087489
  39 H     1.0000    0     1.008    3.849400    3.449482    5.870835
  40 H     1.0000    0     1.008    3.607848    4.643220   -1.988963
  41 H     1.0000    0     1.008    5.515062    4.920099   -6.248098
  42 H     1.0000    0     1.008    7.064966    1.045495   -8.388101
  43 H     1.0000    0     1.008    6.693684   -3.110399   -6.257522
  44 H     1.0000    0     1.008    4.798667   -3.414998   -2.016468
  45 H     1.0000    0     1.008   -4.191796   -3.026924   -5.532375
  46 H     1.0000    0     1.008   -6.146981   -0.274265   -5.679290
  47 H     1.0000    0     1.008   -9.974914   -3.015948   -5.364078
  48 H     1.0000    0     1.008   -8.043525   -5.721193   -5.239349
  49 H     1.0000    0     1.008   -8.095634   -3.843059   -8.029452
  50 H     1.0000    0     1.008   -5.616287   -3.669289    3.700651
  51 H     1.0000    0     1.008   -8.377188   -2.141814    2.490943
  52 H     1.0000    0     1.008   -8.162090    0.978374    6.025639
  53 H     1.0000    0     1.008   -5.447130   -0.533553    7.213119
  54 H     1.0000    0     1.008   -8.385650   -2.169483    7.193057

--------------------------------
INTERNAL COORDINATES (ANGSTROEM)
--------------------------------
 C      0   0   0     0.000000000000     0.00000000     0.00000000
 C      1   0   0     1.518475061511     0.00000000     0.00000000
 O      2   1   0     1.422513151923   108.08338685     0.00000000
 Si     3   2   1     1.663916825886   118.91655039   179.74244961
 C      4   3   2     1.890360214589   110.46925384   216.63574699
 C      5   4   3     1.527173539428   117.58214052    78.47543713
 P      6   5   4     1.827793176791   117.67302788   293.96836697
 O      7   6   5     1.513935077711   108.38354311    72.49583045
 C      7   6   5     1.798071842012   105.55668745   192.08329900
 C      9   7   6     1.401776782759   122.32569836    64.97341098
 C     10   9   7     1.396752814265   120.57994749   180.35253767
 C     11  10   9     1.393709428549   120.15632242     0.16753509
 C     12  11  10     1.392782507382   119.90609952   359.90665964
 C     13  12  11     1.395267509223   119.92513698     0.00000000
 C      7   6   5     1.788269705936   109.30550767   308.44819430
 C     15   7   6     1.402633447400   118.78421075   143.98187177
 C     16  15   7     1.394775696083   120.86684160   179.63520110
 C     17  16  15     1.392430066843   119.95265180     0.00000000
 C     18  17  16     1.393161354067   119.92397077     0.13397147
 C     19  18  17     1.396647903978   120.09739116   359.84826124
 O      4   3   2     1.672616391416   107.85106464    97.10978751
 C     21   4   3     1.423018583033   118.63732950    39.60335314
 C     22  21   4     1.518243261508   108.20316910   175.08631639
 O      4   3   2     1.666936415278   110.42060471   339.34829082
 C     24   4   3     1.421413143684   119.04022427   159.99441716
 C     25  24   4     1.518249708826   108.17434770   174.52477256
 H      1   2   3     1.095193474035   110.69944624    57.65718018
 H      1   2   3     1.093552339006   110.88711169   178.67086698
 H      1   2   3     1.094815766237   110.53814096   299.30539842
 H      2   1   3     1.097325186684   109.20926818   239.98232257
 H      2   1   3     1.097256294802   109.08855678   120.78777437
 H      5   4   3     1.094180814734   107.65728908   313.57419747
 H      5   4   3     1.096794288148   106.76734228   199.67674698
 H      6   5   4     1.096457464339   107.75484967   172.79423388
 H      6   5   4     1.097136495016   110.25162582    57.19955058
 H     10   9   7     1.085763259657   120.73387836     0.58139250
 H     11  10   9     1.087324562407   120.02077817   180.30589716
 H     12  11  10     1.086482067601   120.11477888   180.03658213
 H     13  12  11     1.087312858016   120.17790763   180.10761481
 H     14  13  12     1.089668244233   119.44754457   180.11887422
 H     16  15   7     1.089170182890   119.54000131   359.20514311
 H     17  16  15     1.086750791820   119.86740259   179.86420749
 H     18  17  16     1.086825767273   119.97401778   179.98279926
 H     19  18  17     1.087303457312   119.83359904   179.71716432
 H     20  19  18     1.086497090863   118.71026721   179.53577429
 H     22  21   4     1.096865235526   110.79836574    55.45668217
 H     22  21   4     1.097167722376   110.34092027   294.39563816
 H     23  22  21     1.095184685122   110.62446619    58.50853219
 H     23  22  21     1.094986649315   110.58289929   300.18964222
 H     23  22  21     1.093676142454   110.86371628   179.37721257
 H     25  24   4     1.097254671817   110.86992346    54.89410665
 H     25  24   4     1.097001857056   110.27845194   293.86856117
 H     26  25  24     1.095376536793   110.65990182    58.65245958
 H     26  25  24     1.095327854757   110.54738465   300.35549997
 H     26  25  24     1.093451205892   110.89518654   179.58521354

---------------------------
INTERNAL COORDINATES (A.U.)
---------------------------
 C      0   0   0     0.000000000000     0.00000000     0.00000000
 C      1   0   0     2.869502007444     0.00000000     0.00000000
 O      2   1   0     2.688160279036   108.08338685     0.00000000
 Si     3   2   1     3.144347110548   118.91655039   179.74244961
 C      4   3   2     3.572263100034   110.46925384   216.63574699
 C      5   4   3     2.885939748491   117.58214052    78.47543713
 P      6   5   4     3.454028533585   117.67302788   293.96836697
 O      7   6   5     2.860922681411   108.38354311    72.49583045
 C      7   6   5     3.397863350519   105.55668745   192.08329900
 C      9   7   6     2.648974220303   122.32569836    64.97341098
 C     10   9   7     2.639480295744   120.57994749   180.35253767
 C     11  10   9     2.633729130221   120.15632242     0.16753509
 C     12  11  10     2.631977503069   119.90609952   359.90665964
 C     13  12  11     2.636673475990   119.92513698     0.00000000
 C      7   6   5     3.379339997807   109.30550767   308.44819430
 C     15   7   6     2.650593081864   118.78421075   143.98187177
 C     16  15   7     2.635744083846   120.86684160   179.63520110
 C     17  16  15     2.631311486971   119.95265180     0.00000000
 C     18  17  16     2.632693419550   119.92397077     0.13397147
 C     19  18  17     2.639282044033   120.09739116   359.84826124
 O      4   3   2     3.160786906885   107.85106464    97.10978751
 C     21   4   3     2.689115405414   118.63732950    39.60335314
 C     22  21   4     2.869063968921   108.20316910   175.08631639
 O      4   3   2     3.150053307535   110.42060471   339.34829082
 C     24   4   3     2.686081564718   119.04022427   159.99441716
 C     25  24   4     2.869076152587   108.17434770   174.52477256
 H      1   2   3     2.069615729584   110.69944624    57.65718018
 H      1   2   3     2.066514433831   110.88711169   178.67086698
 H      1   2   3     2.068901965287   110.53814096   299.30539842
 H      2   1   3     2.073644082687   109.20926818   239.98232257
 H      2   1   3     2.073513895896   109.08855678   120.78777437
 H      5   4   3     2.067702080837   107.65728908   313.57419747
 H      5   4   3     2.072640829849   106.76734228   199.67674698
 H      6   5   4     2.072004325094   107.75484967   172.79423388
 H      6   5   4     2.073287507111   110.25162582    57.19955058
 H     10   9   7     2.051795207026   120.73387836     0.58139250
 H     11  10   9     2.054745641635   120.02077817   180.30589716
 H     12  11  10     2.053153557182   120.11477888   180.03658213
 H     13  12  11     2.054723523541   120.17790763   180.10761481
 H     14  13  12     2.059174558430   119.44754457   180.11887422
 H     16  15   7     2.058233358894   119.54000131   359.20514311
 H     17  16  15     2.053661372362   119.86740259   179.86420749
 H     18  17  16     2.053803055434   119.97401778   179.98279926
 H     19  18  17     2.054705758785   119.83359904   179.71716432
 H     20  19  18     2.053181947033   118.71026721   179.53577429
 H     22  21   4     2.072774900963   110.79836574    55.45668217
 H     22  21   4     2.073346518269   110.34092027   294.39563816
 H     23  22  21     2.069599120946   110.62446619    58.50853219
 H     23  22  21     2.069224887506   110.58289929   300.18964222
 H     23  22  21     2.066748388441   110.86371628   179.37721257
 H     25  24   4     2.073510828900   110.86992346    54.89410665
 H     25  24   4     2.073033078239   110.27845194   293.86856117
 H     26  25  24     2.069961668062   110.65990182    58.65245958
 H     26  25  24     2.069869672346   110.54738465   300.35549997
 H     26  25  24     2.066323319942   110.89518654   179.58521354

---------------------
BASIS SET INFORMATION
---------------------
There are 5 groups of distinct atoms

 Group   1 Type C   : 7s4p1d contracted to 3s2p1d pattern {511/31/1}
 Group   2 Type O   : 7s4p1d contracted to 3s2p1d pattern {511/31/1}
 Group   3 Type Si  : 10s7p1d contracted to 4s3p1d pattern {5311/511/1}
 Group   4 Type P   : 10s7p1d contracted to 4s3p1d pattern {5311/511/1}
 Group   5 Type H   : 4s1p contracted to 2s1p pattern {31/1}

Atom   0C    basis set group =>   1
Atom   1C    basis set group =>   1
Atom   2O    basis set group =>   2
Atom   3Si   basis set group =>   3
Atom   4C    basis set group =>   1
Atom   5C    basis set group =>   1
Atom   6P    basis set group =>   4
Atom   7O    basis set group =>   2
Atom   8C    basis set group =>   1
Atom   9C    basis set group =>   1
Atom  10C    basis set group =>   1
Atom  11C    basis set group =>   1
Atom  12C    basis set group =>   1
Atom  13C    basis set group =>   1
Atom  14C    basis set group =>   1
Atom  15C    basis set group =>   1
Atom  16C    basis set group =>   1
Atom  17C    basis set group =>   1
Atom  18C    basis set group =>   1
Atom  19C    basis set group =>   1
Atom  20O    basis set group =>   2
Atom  21C    basis set group =>   1
Atom  22C    basis set group =>   1
Atom  23O    basis set group =>   2
Atom  24C    basis set group =>   1
Atom  25C    basis set group =>   1
Atom  26H    basis set group =>   5
Atom  27H    basis set group =>   5
Atom  28H    basis set group =>   5
Atom  29H    basis set group =>   5
Atom  30H    basis set group =>   5
Atom  31H    basis set group =>   5
Atom  32H    basis set group =>   5
Atom  33H    basis set group =>   5
Atom  34H    basis set group =>   5
Atom  35H    basis set group =>   5
Atom  36H    basis set group =>   5
Atom  37H    basis set group =>   5
Atom  38H    basis set group =>   5
Atom  39H    basis set group =>   5
Atom  40H    basis set group =>   5
Atom  41H    basis set group =>   5
Atom  42H    basis set group =>   5
Atom  43H    basis set group =>   5
Atom  44H    basis set group =>   5
Atom  45H    basis set group =>   5
Atom  46H    basis set group =>   5
Atom  47H    basis set group =>   5
Atom  48H    basis set group =>   5
Atom  49H    basis set group =>   5
Atom  50H    basis set group =>   5
Atom  51H    basis set group =>   5
Atom  52H    basis set group =>   5
Atom  53H    basis set group =>   5
Atom  54H    basis set group =>   5
---------------------------------
AUXILIARY/J BASIS SET INFORMATION
---------------------------------
There are 5 groups of distinct atoms

 Group   1 Type C   : 12s5p4d2f1g contracted to 6s4p3d1f1g pattern {711111/2111/211/2/1}
 Group   2 Type O   : 12s5p4d2f1g contracted to 6s4p3d1f1g pattern {711111/2111/211/2/1}
 Group   3 Type Si  : 14s5p5d2f1g contracted to 8s4p3d1f1g pattern {71111111/2111/311/2/1}
 Group   4 Type P   : 14s5p5d2f1g contracted to 8s4p3d1f1g pattern {71111111/2111/311/2/1}
 Group   5 Type H   : 5s2p1d contracted to 3s1p1d pattern {311/2/1}

Atom   0C    basis set group =>   1
Atom   1C    basis set group =>   1
Atom   2O    basis set group =>   2
Atom   3Si   basis set group =>   3
Atom   4C    basis set group =>   1
Atom   5C    basis set group =>   1
Atom   6P    basis set group =>   4
Atom   7O    basis set group =>   2
Atom   8C    basis set group =>   1
Atom   9C    basis set group =>   1
Atom  10C    basis set group =>   1
Atom  11C    basis set group =>   1
Atom  12C    basis set group =>   1
Atom  13C    basis set group =>   1
Atom  14C    basis set group =>   1
Atom  15C    basis set group =>   1
Atom  16C    basis set group =>   1
Atom  17C    basis set group =>   1
Atom  18C    basis set group =>   1
Atom  19C    basis set group =>   1
Atom  20O    basis set group =>   2
Atom  21C    basis set group =>   1
Atom  22C    basis set group =>   1
Atom  23O    basis set group =>   2
Atom  24C    basis set group =>   1
Atom  25C    basis set group =>   1
Atom  26H    basis set group =>   5
Atom  27H    basis set group =>   5
Atom  28H    basis set group =>   5
Atom  29H    basis set group =>   5
Atom  30H    basis set group =>   5
Atom  31H    basis set group =>   5
Atom  32H    basis set group =>   5
Atom  33H    basis set group =>   5
Atom  34H    basis set group =>   5
Atom  35H    basis set group =>   5
Atom  36H    basis set group =>   5
Atom  37H    basis set group =>   5
Atom  38H    basis set group =>   5
Atom  39H    basis set group =>   5
Atom  40H    basis set group =>   5
Atom  41H    basis set group =>   5
Atom  42H    basis set group =>   5
Atom  43H    basis set group =>   5
Atom  44H    basis set group =>   5
Atom  45H    basis set group =>   5
Atom  46H    basis set group =>   5
Atom  47H    basis set group =>   5
Atom  48H    basis set group =>   5
Atom  49H    basis set group =>   5
Atom  50H    basis set group =>   5
Atom  51H    basis set group =>   5
Atom  52H    basis set group =>   5
Atom  53H    basis set group =>   5
Atom  54H    basis set group =>   5


           ************************************************************
           *        Program running with 6 parallel MPI-processes     *
           *              working on a common directory               *
           ************************************************************
------------------------------------------------------------------------------
                             ORCA STARTUP CALCULATIONS
                           -- RI-GTO INTEGRALS CHOSEN --
------------------------------------------------------------------------------
------------------------------------------------------------------------------
                   ___                                                        
                  /   \      - P O W E R E D   B Y -                         
                 /     \                                                     
                 |  |  |   _    _      __       _____    __    __             
                 |  |  |  | |  | |    /  \     |  _  \  |  |  /  |          
                  \  \/   | |  | |   /    \    | | | |  |  | /  /          
                 / \  \   | |__| |  /  /\  \   | |_| |  |  |/  /          
                |  |  |   |  __  | /  /__\  \  |    /   |      \           
                |  |  |   | |  | | |   __   |  |    \   |  |\   \          
                \     /   | |  | | |  |  |  |  | |\  \  |  | \   \       
                 \___/    |_|  |_| |__|  |__|  |_| \__\ |__|  \__/        
                                                                              
                      - O R C A' S   B I G   F R I E N D -                    
                                      &                                       
                       - I N T E G R A L  F E E D E R -                       
                                                                              
 v1 FN, 2020, v2 2021, v3 2022-2024                                           
------------------------------------------------------------------------------


----------------------
SHARK INTEGRAL PACKAGE
----------------------

Number of atoms                             ...     55
Number of basis functions                   ...    517
Number of shells                            ...    247
Maximum angular momentum                    ...      2
Integral batch strategy                     ... SHARK/LIBINT Hybrid
RI-J (if used) integral strategy            ... SPLIT-RIJ (Revised 2003 algorithm where possible)
Printlevel                                  ...      1
Contraction scheme used                     ... SEGMENTED contraction
Prescreening option                         ... SCHWARTZ
   Thresh                                   ... 2.500e-11
   Tcut                                     ... 2.500e-12
   Tpresel                                  ... 2.500e-12 
Coulomb Range Separation                    ... NOT USED
Exchange Range Separation                   ... NOT USED
Multipole approximations                    ... NOT USED
Finite Nucleus Model                        ... NOT USED
CABS basis                                  ... NOT available
Auxiliary Coulomb fitting basis             ... AVAILABLE
   # of basis functions in Aux-J            ...   1597
   # of shells in Aux-J                     ...    539
   Maximum angular momentum in Aux-J        ...      4
Auxiliary J/K fitting basis                 ... NOT available
Auxiliary Correlation fitting basis         ... NOT available
Auxiliary 'external' fitting basis          ... NOT available

Checking pre-screening integrals            ... done (  0.0 sec) Dimension = 247
Check shell pair data                       ... done (  0.0 sec)
Shell pair information
Shell pair cut-off parameter TPreSel        ...   2.5e-12
Total number of shell pairs                 ...     30628
Shell pairs after pre-screening             ...     20540
Total number of primitive shell pairs       ...    110660
Primitive shell pairs kept                  ...     45357
          la=0 lb=0:   6785 shell pairs
          la=1 lb=0:   7827 shell pairs
          la=1 lb=1:   2288 shell pairs
          la=2 lb=0:   2227 shell pairs
          la=2 lb=1:   1241 shell pairs
          la=2 lb=2:    172 shell pairs

Calculating one electron integrals          ... done (  0.0 sec)
Calculating RI/J V-Matrix + Cholesky decomp.... done (  0.2 sec)
Calculating Nuclear repulsion               ... done (  0.0 sec) ENN=   2828.934367885452 Eh

Diagonalization of the overlap matrix:
Smallest eigenvalue                        ... 2.767e-04
Time for diagonalization                   ...    0.043 sec
Threshold for overlap eigenvalues          ... 1.000e-07
Number of eigenvalues below threshold      ... 0
Time for construction of square roots      ...    0.023 sec
Total time needed                          ...    0.068 sec

-------------------
DFT GRID GENERATION
-------------------

General Integration Accuracy     IntAcc      ... 4.388
Radial Grid Type                 RadialGrid  ... OptM3 with GC (2021)
Angular Grid (max. ang.)         AngularGrid ... 4 (Lebedev-302)
Angular grid pruning method      GridPruning ... 4 (adaptive)
Weight generation scheme         WeightScheme... mBecke (2022)
Basis function cutoff            BFCut       ... 1.0000e-11
Integration weight cutoff        WCut        ... 1.0000e-14
Partially contracted basis set               ... off
Rotationally invariant grid construction     ... off
Angular grids for H and He will be reduced by one unit

Total number of grid points                  ...   249830
Total number of batches                      ...     3932
Average number of points per batch           ...       63
Average number of grid points per atom       ...     4542
Initializing property integral containers    ... done (  0.0 sec)

SHARK setup successfully completed in   2.2 seconds

Maximum memory used throughout the entire STARTUP-calculation: 71.6 MB


           ************************************************************
           *        Program running with 6 parallel MPI-processes     *
           *              working on a common directory               *
           ************************************************************
-------------------------------------------------------------------------------
                                 ORCA GUESS
                   Start orbitals & Density for SCF / CASSCF
-------------------------------------------------------------------------------

------------
SCF SETTINGS
------------
Hamiltonian:
 Density Functional     Method          .... DFT(GTOs)
 Exchange Functional    Exchange        .... B88
   X-Alpha parameter    XAlpha          ....  0.666667
   Becke's b parameter  XBeta           ....  0.004200
 Correlation Functional Correlation     .... P86
 LDA part of GGA corr.  LDAOpt          .... PW91-LDA
 Gradients option       PostSCFGGA      .... off
   NL short-range parameter             ....  4.400000
 RI-approximation to the Coulomb term is turned on
   Number of AuxJ basis functions       .... 1597


General Settings:
 Integral files         IntName         .... data/geom_opt_PO_BP86/87708/87708
 Hartree-Fock type      HFTyp           .... RHF
 Total Charge           Charge          ....    0
 Multiplicity           Mult            ....    1
 Number of Electrons    NEL             ....  210
 Basis Dimension        Dim             ....  517
 Nuclear Repulsion      ENuc            ....   2828.9343678855 Eh

Convergence Acceleration:
 AO-DIIS                CNVDIIS         .... on
   Start iteration      DIISMaxIt       ....    12
   Startup error        DIISStart       ....  0.200000
   # of expansion vecs  DIISMaxEq       ....     5
   Bias factor          DIISBfac        ....   1.050
   Max. coefficient     DIISMaxC        ....  10.000
 MO-DIIS                CNVKDIIS        .... off
 Trust-Rad. Augm. Hess. CNVTRAH         .... auto
   Auto Start mean grad. ratio tolernc. ....  1.125000
   Auto Start start iteration           ....    50
   Auto Start num. interpolation iter.  ....    10
   Max. Number of Micro iterations      ....    24
   Max. Number of Macro iterations      .... Maxiter - #DIIS iter
   Number of Davidson start vectors     ....     2
   Converg. threshold    (grad. norm)   ....   1.000e-05
   Grad. Scal. Fac. for Micro threshold ....   0.100
   Minimum threshold for Micro iter.    ....   1.000e-02
   NR start threshold (gradient norm)   ....   1.000e-04
   Initial trust radius                 ....   0.400
   Minimum AH scaling param. (alpha)    ....   1.000
   Maximum AH scaling param. (alpha)    .... 1000.000
   Quad. conv. algorithm                .... NR
   White noise on init. David. guess    .... on
   Maximum white noise                  ....   0.010
   Pseudo random numbers                .... off
   Inactive MOs                         .... canonical
   Orbital update algorithm             .... Taylor
   Preconditioner                       .... Diag
   Full preconditioner red. dimension   ....   250
 SOSCF                  CNVSOSCF        .... on
   Start iteration      SOSCFMaxIt      ....   150
   Startup grad/error   SOSCFStart      ....  0.003300
   Hessian update       SOSCFHessUp     .... L-BFGS
 Level Shifting         CNVShift        .... on
   Level shift para.    LevelShift      ....    0.2500
   Turn off err/grad.   ShiftErr        ....    0.0010
 Zerner damping         CNVZerner       .... off
 Static damping         CNVDamp         .... on
   Fraction old density DampFac         ....    0.7000
   Max. Damping (<1)    DampMax         ....    0.9800
   Min. Damping (>=0)   DampMin         ....    0.0000
   Turn off err/grad.   DampErr         ....    0.1000

SCF Procedure:
 Maximum # iterations   MaxIter         ....   125
 SCF integral mode      SCFMode         .... Direct
   Integral package                     .... SHARK and LIBINT hybrid scheme
 Reset frequency        DirectResetFreq ....    20
 Integral Threshold     Thresh          ....  2.500e-11 Eh
 Primitive CutOff       TCut            ....  2.500e-12 Eh

Convergence Tolerance:
 Convergence Check Mode ConvCheckMode   .... Total+1el-Energy
 Convergence forced     ConvForced      .... 0
 Energy Change          TolE            ....  1.000e-08 Eh
 1-El. energy change                    ....  1.000e-05 Eh
 Orbital Gradient       TolG            ....  1.000e-05
 Orbital Rotation angle TolX            ....  1.000e-05
 DIIS Error             TolErr          ....  5.000e-07

------------------------------
INITIAL GUESS: MODEL POTENTIAL
------------------------------
Loading Hartree-Fock densities                     ... done
Calculating cut-offs                               ... done
Initializing the effective Hamiltonian             ... done
Setting up the integral package (SHARK)            ... done
Starting the Coulomb interaction                   ... done (   0.3 sec)
Making the grid                                    ... done (   0.4 sec)
Mapping shells                                     ... done
Starting the XC term evaluation                    ... done (   0.3 sec)
  promolecular density results
     # of electrons  =    209.985978100
     EX              =   -187.311380085
     EC              =     -7.840442439
     EX+EC           =   -195.151822524
Transforming the Hamiltonian                       ... done (   0.0 sec)
Diagonalizing the Hamiltonian                      ... done (   0.0 sec)
Back transforming the eigenvectors                 ... done (   0.0 sec)
Now organizing SCF variables                       ... done
                      ------------------
                      INITIAL GUESS DONE (   1.1 sec)
                      ------------------
             **** ENERGY FILE WAS UPDATED (data/geom_opt_PO_BP86/87708/87708.en.tmp) ****
Finished Guess after   1.3 sec
Maximum memory used throughout the entire GUESS-calculation: 41.0 MB


           ************************************************************
           *        Program running with 6 parallel MPI-processes     *
           *              working on a common directory               *
           ************************************************************

-------------------------------------------------------------------------------------------
                                      ORCA LEAN-SCF
                              memory conserving SCF solver
-------------------------------------------------------------------------------------------

----------------------------------------D-I-I-S--------------------------------------------
Iteration    Energy (Eh)           Delta-E    RMSDP     MaxDP     DIISErr   Damp  Time(sec)
-------------------------------------------------------------------------------------------
               ***  Starting incremental Fock matrix formation  ***
    1    -1709.8036301777469816     0.00e+00  2.78e-03  1.50e-01  3.30e-01  0.700   2.0
    2    -1710.1735799998045877    -3.70e-01  1.65e-03  6.71e-02  8.06e-02  0.700   1.7
                               ***Turning on AO-DIIS***
    3    -1710.2882770875962706    -1.15e-01  5.66e-04  1.90e-02  2.47e-02  0.700   1.6
    4    -1710.3653992645399740    -7.71e-02  9.05e-04  4.05e-02  1.23e-02  0.000   1.6
    5    -1710.5404883119385886    -1.75e-01  2.40e-04  9.33e-03  7.23e-03  0.000   1.8
    6    -1710.5420756551270642    -1.59e-03  9.53e-05  3.32e-03  3.76e-03  0.000   1.5
                              *** Initializing SOSCF ***
---------------------------------------S-O-S-C-F--------------------------------------
Iteration    Energy (Eh)           Delta-E    RMSDP     MaxDP     MaxGrad    Time(sec)
--------------------------------------------------------------------------------------
    7    -1710.5421918858496610    -1.16e-04  3.70e-05  1.75e-03  2.89e-03     1.6
               *** Restarting incremental Fock matrix formation ***
    8    -1710.5422147465274065    -2.29e-05  2.48e-05  1.66e-03  1.06e-04     1.7
    9    -1710.5422127383694715     2.01e-06  1.51e-05  9.98e-04  2.79e-04     1.5
   10    -1710.5422164516462544    -3.71e-06  1.21e-05  7.57e-04  6.82e-05     1.3
   11    -1710.5422161343417429     3.17e-07  5.43e-06  4.35e-04  6.13e-05     1.4
   12    -1710.5422170363431178    -9.02e-07  3.05e-06  2.05e-04  2.41e-05     1.3
   13    -1710.5422170010574519     3.53e-08  1.65e-06  1.42e-04  4.46e-05     1.3
   14    -1710.5422170824390378    -8.14e-08  1.19e-06  4.68e-05  9.10e-06     1.3
   15    -1710.5422170649931104     1.74e-08  6.42e-07  3.59e-05  1.32e-05     1.3
   16    -1710.5422170824836030    -1.75e-08  3.81e-07  1.38e-05  2.22e-06     1.2
                  *** Gradient check signals convergence ***

               *****************************************************
               *                     SUCCESS                       *
               *           SCF CONVERGED AFTER  16 CYCLES          *
               *****************************************************

             **** ENERGY FILE WAS UPDATED (data/geom_opt_PO_BP86/87708/87708.en.tmp) ****

----------------
TOTAL SCF ENERGY
----------------

Total Energy       :      -1710.54221708248360 Eh          -46546.22009 eV

Components:
Nuclear Repulsion  :       2828.93436788545159 Eh           76979.21770 eV
Electronic Energy  :      -4539.47658496793520 Eh         -123525.43779 eV
One Electron Energy:      -7971.92432153398204 Eh         -216927.08915 eV
Two Electron Energy:       3432.44773656604684 Eh           93401.65136 eV

Virial components:
Potential Energy   :      -3407.24899510353771 Eh          -92715.95875 eV
Kinetic Energy     :       1696.70677802105411 Eh           46169.73865 eV
Virial Ratio       :          2.00815428996964

DFT components:
N(Alpha)           :      104.999985490753 electrons
N(Beta)            :      104.999985490753 electrons
N(Total)           :      209.999970981507 electrons
E(X)               :     -190.202830615518 Eh       
E(C)               :       -7.837655097229 Eh       
E(XC)              :     -198.040485712747 Eh       

---------------
SCF CONVERGENCE
---------------

  Last Energy change         ...    1.7490e-08  Tolerance :   1.0000e-08
  Last MAX-Density change    ...    1.3824e-05  Tolerance :   1.0000e-07
  Last RMS-Density change    ...    3.8117e-07  Tolerance :   5.0000e-09
  Last DIIS Error            ...    2.8882e-03  Tolerance :   5.0000e-07
  Last Orbital Gradient      ...    2.2216e-06  Tolerance :   1.0000e-05
  Last Orbital Rotation      ...    9.2181e-06  Tolerance :   1.0000e-05


----------------
ORBITAL ENERGIES
----------------

  NO   OCC          E(Eh)            E(eV) 
   0   2.0000     -76.406593     -2079.1291 
   1   2.0000     -65.490178     -1782.0783 
   2   2.0000     -18.761788      -510.5342 
   3   2.0000     -18.760602      -510.5019 
   4   2.0000     -18.753619      -510.3119 
   5   2.0000     -18.702938      -508.9328 
   6   2.0000      -9.952549      -270.8226 
   7   2.0000      -9.952539      -270.8224 
   8   2.0000      -9.935744      -270.3653 
   9   2.0000      -9.934277      -270.3254 
  10   2.0000      -9.930553      -270.2241 
  11   2.0000      -9.928471      -270.1674 
  12   2.0000      -9.928053      -270.1561 
  13   2.0000      -9.927040      -270.1285 
  14   2.0000      -9.926829      -270.1227 
  15   2.0000      -9.926069      -270.1021 
  16   2.0000      -9.925808      -270.0950 
  17   2.0000      -9.925399      -270.0838 
  18   2.0000      -9.924304      -270.0540 
  19   2.0000      -9.923884      -270.0426 
  20   2.0000      -9.923363      -270.0284 
  21   2.0000      -9.921308      -269.9725 
  22   2.0000      -9.905831      -269.5514 
  23   2.0000      -9.897221      -269.3171 
  24   2.0000      -9.895118      -269.2598 
  25   2.0000      -9.883757      -268.9507 
  26   2.0000      -6.366485      -173.2409 
  27   2.0000      -5.090868      -138.5296 
  28   2.0000      -4.587631      -124.8358 
  29   2.0000      -4.587549      -124.8336 
  30   2.0000      -4.587283      -124.8263 
  31   2.0000      -3.507245       -95.4370 
  32   2.0000      -3.507070       -95.4322 
  33   2.0000      -3.503283       -95.3292 
  34   2.0000      -0.917015       -24.9532 
  35   2.0000      -0.894199       -24.3324 
  36   2.0000      -0.886490       -24.1226 
  37   2.0000      -0.844735       -22.9864 
  38   2.0000      -0.786022       -21.3887 
  39   2.0000      -0.782726       -21.2991 
  40   2.0000      -0.708364       -19.2756 
  41   2.0000      -0.686366       -18.6770 
  42   2.0000      -0.681791       -18.5525 
  43   2.0000      -0.680911       -18.5285 
  44   2.0000      -0.678856       -18.4726 
  45   2.0000      -0.668544       -18.1920 
  46   2.0000      -0.662760       -18.0346 
  47   2.0000      -0.651641       -17.7320 
  48   2.0000      -0.594750       -16.1840 
  49   2.0000      -0.559173       -15.2159 
  50   2.0000      -0.553978       -15.0745 
  51   2.0000      -0.550748       -14.9866 
  52   2.0000      -0.546205       -14.8630 
  53   2.0000      -0.541359       -14.7311 
  54   2.0000      -0.540030       -14.6950 
  55   2.0000      -0.527821       -14.3627 
  56   2.0000      -0.503714       -13.7068 
  57   2.0000      -0.479859       -13.0576 
  58   2.0000      -0.474612       -12.9148 
  59   2.0000      -0.455097       -12.3838 
  60   2.0000      -0.436612       -11.8808 
  61   2.0000      -0.430963       -11.7271 
  62   2.0000      -0.422938       -11.5087 
  63   2.0000      -0.419584       -11.4175 
  64   2.0000      -0.415518       -11.3068 
  65   2.0000      -0.414416       -11.2768 
  66   2.0000      -0.411863       -11.2074 
  67   2.0000      -0.408245       -11.1089 
  68   2.0000      -0.400703       -10.9037 
  69   2.0000      -0.396076       -10.7778 
  70   2.0000      -0.394912       -10.7461 
  71   2.0000      -0.385294       -10.4844 
  72   2.0000      -0.382616       -10.4115 
  73   2.0000      -0.380720       -10.3599 
  74   2.0000      -0.365497        -9.9457 
  75   2.0000      -0.359949        -9.7947 
  76   2.0000      -0.356598        -9.7035 
  77   2.0000      -0.344977        -9.3873 
  78   2.0000      -0.343241        -9.3401 
  79   2.0000      -0.340175        -9.2566 
  80   2.0000      -0.339749        -9.2450 
  81   2.0000      -0.333953        -9.0873 
  82   2.0000      -0.331381        -9.0173 
  83   2.0000      -0.322900        -8.7866 
  84   2.0000      -0.321922        -8.7599 
  85   2.0000      -0.318002        -8.6533 
  86   2.0000      -0.314859        -8.5678 
  87   2.0000      -0.312171        -8.4946 
  88   2.0000      -0.309754        -8.4288 
  89   2.0000      -0.304337        -8.2814 
  90   2.0000      -0.302564        -8.2332 
  91   2.0000      -0.296238        -8.0610 
  92   2.0000      -0.287244        -7.8163 
  93   2.0000      -0.269249        -7.3266 
  94   2.0000      -0.258321        -7.0293 
  95   2.0000      -0.250479        -6.8159 
  96   2.0000      -0.247122        -6.7245 
  97   2.0000      -0.243277        -6.6199 
  98   2.0000      -0.240270        -6.5381 
  99   2.0000      -0.238265        -6.4835 
 100   2.0000      -0.228669        -6.2224 
 101   2.0000      -0.225394        -6.1333 
 102   2.0000      -0.220501        -6.0001 
 103   2.0000      -0.208073        -5.6620 
 104   2.0000      -0.202035        -5.4976 
 105   0.0000      -0.072366        -1.9692 
 106   0.0000      -0.057113        -1.5541 
 107   0.0000      -0.051426        -1.3994 
 108   0.0000      -0.047953        -1.3049 
 109   0.0000       0.016273         0.4428 
 110   0.0000       0.030241         0.8229 
 111   0.0000       0.035125         0.9558 
 112   0.0000       0.045922         1.2496 
 113   0.0000       0.046725         1.2714 
 114   0.0000       0.053943         1.4679 
 115   0.0000       0.061177         1.6647 
*Only the first 10 virtual orbitals were printed.

                    ********************************
                    * MULLIKEN POPULATION ANALYSIS *
                    ********************************

-----------------------
MULLIKEN ATOMIC CHARGES
-----------------------
   0 C :   -0.054263
   1 C :    0.162730
   2 O :   -0.439110
   3 Si:    0.751075
   4 C :   -0.215451
   5 C :   -0.094742
   6 P :    0.537879
   7 O :   -0.451778
   8 C :   -0.070552
   9 C :   -0.005588
  10 C :    0.010517
  11 C :    0.015414
  12 C :    0.011686
  13 C :   -0.007308
  14 C :   -0.085224
  15 C :    0.012633
  16 C :    0.012627
  17 C :    0.014836
  18 C :    0.011944
  19 C :   -0.019260
  20 O :   -0.436739
  21 C :    0.150882
  22 C :   -0.048317
  23 O :   -0.436998
  24 C :    0.148499
  25 C :   -0.047545
  26 H :    0.018265
  27 H :    0.014801
  28 H :    0.032420
  29 H :    0.011111
  30 H :    0.047384
  31 H :    0.048391
  32 H :    0.053091
  33 H :    0.019215
  34 H :    0.066311
  35 H :   -0.016590
  36 H :   -0.003476
  37 H :    0.000509
  38 H :    0.002374
  39 H :    0.015226
  40 H :    0.018861
  41 H :    0.003190
  42 H :    0.001625
  43 H :   -0.003257
  44 H :   -0.004694
  45 H :    0.013532
  46 H :    0.026804
  47 H :    0.033293
  48 H :    0.027214
  49 H :    0.019934
  50 H :    0.008894
  51 H :    0.029904
  52 H :    0.035886
  53 H :    0.033456
  54 H :    0.018475
Sum of atomic charges:   -0.0000000

--------------------------------
MULLIKEN REDUCED ORBITAL CHARGES
--------------------------------
  0 C s       :     2.999167  s :     2.999167
      pz      :     1.007770  p :     3.029709
      px      :     1.036312
      py      :     0.985627
      dz2     :     0.008681  d :     0.025388
      dxz     :     0.002033
      dyz     :     0.004046
      dx2y2   :     0.006534
      dxy     :     0.004095

  1 C s       :     2.992242  s :     2.992242
      pz      :     1.043137  p :     2.784199
      px      :     0.963111
      py      :     0.777951
      dz2     :     0.013118  d :     0.060828
      dxz     :     0.003732
      dyz     :     0.013496
      dx2y2   :     0.017625
      dxy     :     0.012857

  2 O s       :     3.764553  s :     3.764553
      pz      :     1.687216  p :     4.664024
      px      :     1.703671
      py      :     1.273137
      dz2     :     0.001514  d :     0.010533
      dxz     :     0.001583
      dyz     :     0.002947
      dx2y2   :     0.001774
      dxy     :     0.002715

  3 Sis       :     4.929281  s :     4.929281
      pz      :     2.538462  p :     7.759893
      px      :     2.609886
      py      :     2.611545
      dz2     :     0.120856  d :     0.559752
      dxz     :     0.108928
      dyz     :     0.112248
      dx2y2   :     0.089016
      dxy     :     0.128703

  4 C s       :     3.090384  s :     3.090384
      pz      :     0.986309  p :     3.101821
      px      :     1.036588
      py      :     1.078924
      dz2     :     0.006858  d :     0.023246
      dxz     :     0.005943
      dyz     :     0.002030
      dx2y2   :     0.003673
      dxy     :     0.004742

  5 C s       :     3.033244  s :     3.033244
      pz      :     1.038785  p :     3.032934
      px      :     0.972833
      py      :     1.021316
      dz2     :     0.008484  d :     0.028563
      dxz     :     0.005470
      dyz     :     0.002484
      dx2y2   :     0.002931
[...]
      pz      :     0.011813  p :     0.065995
      px      :     0.031096
      py      :     0.023086

 37 H s       :     0.898836  s :     0.898836
      pz      :     0.026525  p :     0.065859
      px      :     0.027081
      py      :     0.012253

 38 H s       :     0.897969  s :     0.897969
      pz      :     0.030569  p :     0.065939
      px      :     0.011656
      py      :     0.023714

 39 H s       :     0.891283  s :     0.891283
      pz      :     0.011861  p :     0.070683
      px      :     0.035231
      py      :     0.023591

 40 H s       :     0.892750  s :     0.892750
      pz      :     0.021503  p :     0.069662
      px      :     0.020731
      py      :     0.027428

 41 H s       :     0.898161  s :     0.898161
      pz      :     0.015983  p :     0.066032
      px      :     0.013006
      py      :     0.037043

 42 H s       :     0.898492  s :     0.898492
      pz      :     0.035821  p :     0.065876
      px      :     0.018058
      py      :     0.011998

 43 H s       :     0.898890  s :     0.898890
      pz      :     0.019247  p :     0.066027
      px      :     0.019164
      py      :     0.027615

 44 H s       :     0.905624  s :     0.905624
      pz      :     0.016184  p :     0.067281
      px      :     0.013625
      py      :     0.037472

 45 H s       :     0.921774  s :     0.921774
      pz      :     0.025669  p :     0.061203
      px      :     0.010733
      py      :     0.024800

 46 H s       :     0.924874  s :     0.924874
      pz      :     0.015389  p :     0.064461
      px      :     0.015338
      py      :     0.033735

 47 H s       :     0.904140  s :     0.904140
      pz      :     0.027633  p :     0.065309
      px      :     0.012352
      py      :     0.025324

 48 H s       :     0.906218  s :     0.906218
      pz      :     0.016663  p :     0.063935
      px      :     0.016439
      py      :     0.030833

 49 H s       :     0.906111  s :     0.906111
      pz      :     0.026087  p :     0.063818
      px      :     0.022583
      py      :     0.015148

 50 H s       :     0.932924  s :     0.932924
      pz      :     0.010232  p :     0.063044
      px      :     0.023023
      py      :     0.029789

 51 H s       :     0.921898  s :     0.921898
      pz      :     0.009246  p :     0.061667
      px      :     0.037277
      py      :     0.015143

 52 H s       :     0.905373  s :     0.905373
      pz      :     0.012165  p :     0.064052
      px      :     0.023521
      py      :     0.028366

 53 H s       :     0.901116  s :     0.901116
      pz      :     0.013401  p :     0.072407
      px      :     0.042248
      py      :     0.016758

 54 H s       :     0.909196  s :     0.909196
      pz      :     0.036219  p :     0.063873
      px      :     0.013241
      py      :     0.014414



                      *****************************
                      * MAYER POPULATION ANALYSIS *
                      *****************************

  NA   - Mulliken gross atomic population
  ZA   - Total nuclear charge
  QA   - Mulliken gross atomic charge
  VA   - Mayer's total valence
  BVA  - Mayer's bonded valence
  FA   - Mayer's free valence

  ATOM       NA         ZA         QA         VA         BVA        FA
  0 C      6.0652     6.0000    -0.0652     4.0048     4.0048    -0.0000
  1 C      5.8579     6.0000     0.1421     4.0064     4.0064    -0.0000
  2 O      8.4506     8.0000    -0.4506     2.1794     2.1794    -0.0000
  3 Si    13.2202    14.0000     0.7798     4.5605     4.5605    -0.0000
  4 C      6.2192     6.0000    -0.2192     3.9032     3.9032    -0.0000
  5 C      6.1159     6.0000    -0.1159     3.9366     3.9366    -0.0000
  6 P     14.4440    15.0000     0.5560     4.6841     4.6841    -0.0000
  7 O      8.4449     8.0000    -0.4449     2.1602     2.1602    -0.0000
  8 C      6.0960     6.0000    -0.0960     3.7503     3.7503    -0.0000
  9 C      6.0067     6.0000    -0.0067     3.8754     3.8754    -0.0000
 10 C      6.0004     6.0000    -0.0004     3.8700     3.8700    -0.0000
 11 C      5.9915     6.0000     0.0085     3.8308     3.8308    -0.0000
 12 C      5.9963     6.0000     0.0037     3.8261     3.8261    -0.0000
 13 C      6.0070     6.0000    -0.0070     3.8938     3.8938    -0.0000
 14 C      6.1007     6.0000    -0.1007     3.7745     3.7745    -0.0000
 15 C      5.9799     6.0000     0.0201     3.9186     3.9186    -0.0000
 16 C      5.9931     6.0000     0.0069     3.8365     3.8365    -0.0000
 17 C      5.9910     6.0000     0.0090     3.8336     3.8336    -0.0000
 18 C      5.9985     6.0000     0.0015     3.8747     3.8747    -0.0000
 19 C      6.0197     6.0000    -0.0197     3.8954     3.8954    -0.0000
 20 O      8.4266     8.0000    -0.4266     2.1914     2.1914    -0.0000
 21 C      5.8578     6.0000     0.1422     4.0641     4.0641    -0.0000
 22 C      6.0863     6.0000    -0.0863     3.9945     3.9945    -0.0000
 23 O      8.4432     8.0000    -0.4432     2.1805     2.1805    -0.0000
 24 C      5.8582     6.0000     0.1418     4.0595     4.0595    -0.0000
 25 C      6.0839     6.0000    -0.0839     3.9600     3.9600    -0.0000
 26 H      0.9718     1.0000     0.0282     0.9934     0.9934     0.0000
 27 H      0.9772     1.0000     0.0228     0.9867     0.9867    -0.0000
 28 H      0.9725     1.0000     0.0275     1.0071     1.0071     0.0000
 29 H      0.9806     1.0000     0.0194     0.9890     0.9890     0.0000
 30 H      0.9583     1.0000     0.0417     1.0276     1.0276    -0.0000
 31 H      0.9350     1.0000     0.0650     1.0036     1.0036    -0.0000
 32 H      0.9322     1.0000     0.0678     0.9821     0.9821    -0.0000
 33 H      0.9578     1.0000     0.0422     0.9915     0.9915     0.0000
 34 H      0.9303     1.0000     0.0697     0.9951     0.9951     0.0000
 35 H      1.0058     1.0000    -0.0058     0.9965     0.9965    -0.0000
 36 H      0.9935     1.0000     0.0065     0.9791     0.9791    -0.0000
 37 H      0.9896     1.0000     0.0104     0.9790     0.9790    -0.0000
 38 H      0.9888     1.0000     0.0112     0.9799     0.9799     0.0000
 39 H      0.9757     1.0000     0.0243     1.0172     1.0172    -0.0000
 40 H      0.9813     1.0000     0.0187     1.0097     1.0097    -0.0000
 41 H      0.9874     1.0000     0.0126     0.9799     0.9799    -0.0000
 42 H      0.9899     1.0000     0.0101     0.9791     0.9791    -0.0000
 43 H      0.9942     1.0000     0.0058     0.9795     0.9795     0.0000
 44 H      0.9949     1.0000     0.0051     0.9871     0.9871    -0.0000
 45 H      0.9843     1.0000     0.0157     0.9734     0.9734     0.0000
 46 H      0.9775     1.0000     0.0225     0.9937     0.9937     0.0000
 47 H      0.9514     1.0000     0.0486     1.0060     1.0060     0.0000
 48 H      0.9643     1.0000     0.0357     0.9917     0.9917     0.0000
 49 H      0.9764     1.0000     0.0236     0.9867     0.9867    -0.0000
 50 H      1.0001     1.0000    -0.0001     0.9782     0.9782    -0.0000
 51 H      0.9797     1.0000     0.0203     0.9706     0.9706    -0.0000
 52 H      0.9661     1.0000     0.0339     0.9930     0.9930    -0.0000
 53 H      0.9446     1.0000     0.0554     1.0707     1.0707    -0.0000
 54 H      0.9841     1.0000     0.0159     0.9859     0.9859    -0.0000

  Mayer bond orders larger than 0.100000
B(  0-C ,  1-C ) :   1.1143 B(  0-C , 26-H ) :   0.9617 B(  0-C , 27-H ) :   0.9535 
B(  0-C , 28-H ) :   0.9596 B(  1-C ,  2-O ) :   0.9297 B(  1-C , 29-H ) :   0.9336 
B(  1-C , 30-H ) :   0.9240 B(  2-O ,  3-Si) :   1.1051 B(  3-Si,  4-C ) :   0.9285 
B(  3-Si, 20-O ) :   1.1351 B(  3-Si, 23-O ) :   1.0816 B(  4-C ,  5-C ) :   1.0754 
B(  4-C , 31-H ) :   0.9178 B(  4-C , 32-H ) :   0.9194 B(  5-C ,  6-P ) :   0.9514 
B(  5-C , 33-H ) :   0.8981 B(  5-C , 34-H ) :   0.9155 B(  6-P ,  7-O ) :   1.7498 
B(  6-P ,  8-C ) :   0.8650 B(  6-P , 14-C ) :   0.8704 B(  8-C ,  9-C ) :   1.3512 
B(  8-C , 13-C ) :   1.3964 B(  9-C , 10-C ) :   1.4072 B(  9-C , 35-H ) :   0.9663 
B( 10-C , 11-C ) :   1.3760 B( 10-C , 36-H ) :   0.9744 B( 11-C , 12-C ) :   1.3858 
B( 11-C , 37-H ) :   0.9758 B( 12-C , 13-C ) :   1.3617 B( 12-C , 38-H ) :   0.9784 
B( 13-C , 39-H ) :   0.9713 B( 14-C , 15-C ) :   1.3934 B( 14-C , 19-C ) :   1.3604 
B( 15-C , 16-C ) :   1.3734 B( 15-C , 40-H ) :   0.9673 B( 16-C , 17-C ) :   1.3788 
B( 16-C , 41-H ) :   0.9753 B( 17-C , 18-C ) :   1.3813 B( 17-C , 42-H ) :   0.9764 
B( 18-C , 19-C ) :   1.4007 B( 18-C , 43-H ) :   0.9748 B( 19-C , 44-H ) :   0.9590 
B( 20-O , 21-C ) :   0.9779 B( 21-C , 22-C ) :   1.1117 B( 21-C , 45-H ) :   0.9452 
B( 21-C , 46-H ) :   0.9383 B( 22-C , 47-H ) :   0.9593 B( 22-C , 48-H ) :   0.9614 
B( 22-C , 49-H ) :   0.9525 B( 23-O , 24-C ) :   0.9723 B( 24-C , 25-C ) :   1.1137 
B( 24-C , 50-H ) :   0.9353 B( 24-C , 51-H ) :   0.9417 B( 25-C , 52-H ) :   0.9595 
B( 25-C , 53-H ) :   0.9371 B( 25-C , 54-H ) :   0.9496 

-------
TIMINGS
-------

Total SCF time: 0 days 0 hours 0 min 10 sec 

Total time                  ....      10.432 sec
Sum of individual times     ....      10.276 sec  ( 98.5%)

SCF preparation             ....       0.267 sec  (  2.6%)
Fock matrix formation       ....       8.842 sec  ( 84.8%)
  Startup                   ....       0.041 sec  (  0.5% of F)
  Split-RI-J                ....       3.332 sec  ( 37.7% of F)
  XC integration            ....       5.331 sec  ( 60.3% of F)
    Basis function eval.    ....       1.629 sec  ( 30.6% of XC)
    Density eval.           ....       1.759 sec  ( 33.0% of XC)
    XC-Functional eval.     ....       0.130 sec  (  2.4% of XC)
    XC-Potential eval.      ....       1.089 sec  ( 20.4% of XC)
Diagonalization             ....       0.000 sec  (  0.0%)
Density matrix formation    ....       0.103 sec  (  1.0%)
Total Energy calculation    ....       0.038 sec  (  0.4%)
Population analysis         ....       0.350 sec  (  3.4%)
Orbital Transformation      ....       0.096 sec  (  0.9%)
Orbital Orthonormalization  ....       0.000 sec  (  0.0%)
DIIS solution               ....       0.116 sec  (  1.1%)
SOSCF solution              ....       0.464 sec  (  4.4%)
Finished LeanSCF after  10.7 sec

Maximum memory used throughout the entire LEANSCF-calculation: 66.6 MB


-------------------------------------------------------------------------------
                          DFT DISPERSION CORRECTION                            
                                                                               
                              DFTD3 V3.1  Rev 1                                
                          USING Becke-Johnson damping                          
-------------------------------------------------------------------------------
The BP86 functional is recognized
Active option DFTDOPT                   ...         4   

molecular C6(AA) [au] = 33222.190675 


            DFT-D V3
 parameters
 s6 scaling factor         :     1.0000 
 a1 scaling factor         :     0.3946 
 s8 scaling factor         :     3.2822 
 a2 scaling factor         :     4.8516 
 ad hoc parameters k1-k3   :    16.0000     1.3333    -4.0000 

 Edisp/kcal,au: -78.257808208704  -0.124711742365 
 E6   /kcal   : -29.051392745 
 E8   /kcal   : -49.206415464 
 % E8         :  62.877323797 

-------------------------   ----------------
Dispersion correction           -0.124711742
-------------------------   ----------------


-------------------------   --------------------
FINAL SINGLE POINT ENERGY     -1710.682150313930
-------------------------   --------------------

                                *** OPTIMIZATION RUN DONE ***



           ************************************************************
           *        Program running with 6 parallel MPI-processes     *
           *              working on a common directory               *
           ************************************************************

------------------------------------------------------------------------------
                              ORCA PROPERTY CALCULATIONS
------------------------------------------------------------------------------

GBWName                                 ... data/geom_opt_PO_BP86/87708/87708.gbw
Number of atoms                         ...     55
Number of basis functions               ...    517
Max core memory                         ...   1024 MB

Electric properties:
Dipole moment                           ... YES
Quadrupole moment                       ...  NO
Static polarizability (Dipole/Dipole)   ...  NO
Static polarizability (Dipole/Quad.)    ...  NO
Static polarizability (Quad./Quad.)     ...  NO
Static polarizability (Velocity)        ...  NO

Atomic electric properties:
Dipole moment                           ...  NO
Quadrupole moment                       ...  NO
Static polarizability                   ...  NO

Choice of electric origin               ... Center of mass
Position of electric origin             ...     0.434099    -0.080871     0.133960

General magnetic properties:
Magnetizability                         ...  NO

EPR properties:
g-Tensor (aka g-matrix)                 ...  NO
Zero-Field splitting spin-orbit         ...  NO
Zero-field splitting spin-spin          ...  NO
Hyperfine couplings                     ...  NO (   0 nuclei)
Quadrupole couplings                    ...  NO (   0 nuclei)
Contact density                         ...  NO (   0 nuclei)

NMR properties:
Chemical shifts                         ...  NO (   0 nuclei)
Spin-rotation constants                 ...  NO (   0 nuclei)
Spin-spin couplings                     ...  NO (   0 nuclei,    0 pairs)

Choice of magnetic origin               ... GIAO
Position of magnetic origin             ...     0.000000     0.000000     0.000000

Properties with geometric perturbations:
SCF Hessian                             ...  NO
IR spectrum                             ...  NO
VCD spectrum                            ...  NO
X-ray spectroscopy properties:
SCF XES/XAS/RIXS spectra                ...  NO


-------------
DIPOLE MOMENT
-------------

Method             : SCF
Type of density    : Electron Density
Multiplicity       :   1
Irrep              :   0
Energy             : -1710.5574385715653989 Eh
Relativity type    : 
Basis              : AO
                                X                 Y                 Z
Electronic contribution:     18.997671834      -1.717473504       5.306963360
Nuclear contribution   :    -17.735727188       1.170405635      -5.147238632
                        -----------------------------------------
Total Dipole Moment    :      1.261944646      -0.547067869       0.159724728
                        -----------------------------------------
Magnitude (a.u.)       :      1.384665856
Magnitude (Debye)      :      3.519540904



--------------------
Rotational spectrum 
--------------------
 
Rotational constants in cm-1:             0.008714             0.004344             0.003559 
Rotational constants in MHz :           261.254091           130.219108           106.693109 

Dipole components along the rotational axes: 
x,y,z [a.u.] :     1.113873    -0.368626    -0.735325 
x,y,z [Debye]:     2.831239    -0.936972    -1.869047 

 

Dipole moment calculation done in   0.1 sec 

Maximum memory used throughout the entire PROP-calculation: 37.1 MB

--------------------------------
SUGGESTED CITATIONS FOR THIS RUN
--------------------------------

Below you find a list of papers that are relevant to this ORCA run
We neither can nor want to force you to cite these papers, but we appreciate if you do
You receive ORCA, which is the product of decades of hard work by many enthusiastic individuals, for free
The only thing we kindly ask in return is that you cite our papers,
We deeply appreciate it, if you show your appreciation for ORCA by not just citing the generic ORCA reference.

Please note that relegating all ORCA citations to the supporting information does *not* help us.
SI sections are not indexed - citations you put there will not count into any citation statistics
But we need these citations in order to attract the funding resources that allow us to do what we are doing

Therefore, if you are a happy ORCA user, please consider citing a few of the papers listed below in the main body of your paper

In addition to the list printed below, the program has created the file data/geom_opt_PO_BP86/87708/87708.bibtex that contains the list in bibtex format
You can import this file easily into all common literature databanks and citation aid programs


List of essential papers. We consider these as the minimum necessary citations

  1. Neese,F.
     Software update: the ORCA program system, version 5.0
     WIRES Comput. Molec. Sci., 2022 12(1)e1606
     doi.org/10.1002/wcms.1606

List of papers to cite with high priority. The work reported in these papers was absolutely
necessary for this run to complete.
Our perspective: the developers of density functionals and basis sets usually get cited in chemistry papers
Good! But without the algorithms to do something with them, the functionals or basis sets would not do anything.
Hence, in our opinion, the algorithm design and method developments papers are equally worthy of getting cited

  1. Neese,F.
     An improvement of the resolution of the identity approximation for the formation of the Coulomb matrix
     J. Comp. Chem., 2003 24(14)1740-1747
     doi.org/10.1002/jcc.10318
  2. Neese,F.
     The SHARK Integral Generation and Digestion System
     J. Comp. Chem., 2022  1-16
     doi.org/10.1002/jcc.26942
  3. Grimme,S.; Antony,J.; Ehrlich,S.; Krieg,H.
     A consistent and accurate ab initio parametrization of density functional dispersion correction (DFT-D) for the 94 elements H-Pu
     J. Chem. Phys., 2010 132 154104-XXXX
     doi.org/10.1063/1.3382344
  4. Grimme,S.; Ehrlich,S.; Goerigk,L.
     Effect of the damping function in dispersion corrected density functional theory
     J. Comput. Chem., 2011 32(7)1456-1465
     doi.org/10.1002/jcc.21759

List of suggested additional citations. These are papers that are important in the 'surrounding' of 
of this run, or papers that preceded the highly important papers. If you like your results we are grateful for a citation.

  1. Neese,F.
     The ORCA program system
     WIRES Comput. Molec. Sci., 2012 2(1)73-78
     doi.org/10.1002/wcms.81
  2. Neese,F.
     Software update: the ORCA program system, version 4.0
     WIRES Comput. Molec. Sci., 2018 8(1)1-6
     doi.org/10.1002/wcms.1327
  3. Neese,F.; Wennmohs,F.; Becker,U.; Riplinger,C.
     The ORCA quantum chemistry program package
     J. Chem. Phys., 2020 152 Art. No. L224108
     doi.org/10.1063/5.0004608

List of optional additional citations

  1. Neese,F.
     Approximate second-order SCF convergence for spin unrestricted wavefunctions
     Chem. Phys. Lett., 2000 325(1-3)93-98
     doi.org/10.1016/s0009-2614(00)00662-x

Timings for individual modules:

Sum of individual times          ...     1780.410 sec (=  29.674 min)
Startup calculation              ...      125.885 sec (=   2.098 min)   7.1 %
SCF iterations                   ...     1042.403 sec (=  17.373 min)  58.5 %
Property calculations            ...        0.297 sec (=   0.005 min)   0.0 %
SCF Gradient evaluation          ...      609.854 sec (=  10.164 min)  34.3 %
Geometry relaxation              ...        1.971 sec (=   0.033 min)   0.1 %
                             ****ORCA TERMINATED NORMALLY****
TOTAL RUN TIME: 0 days 0 hours 29 minutes 54 seconds 738 msec
