
                                 *****************
                                 * O   R   C   A *
                                 *****************

                                            #,                                       
                                            ###                                      
                                            ####                                     
                                            #####                                    
                                            ######                                   
                                           ########,                                 
                                     ,,################,,,,,                         
                               ,,#################################,,                 
                          ,,##########################################,,             
                       ,#########################################, ''#####,          
                    ,#############################################,,   '####,        
                  ,##################################################,,,,####,       
                ,###########''''           ''''###############################       
              ,#####''   ,,,,##########,,,,          '''####'''          '####       
            ,##' ,,,,###########################,,,                        '##       
           ' ,,###''''                  '''############,,,                           
         ,,##''                                '''############,,,,        ,,,,,,###''
      ,#''                                            '''#######################'''  
     '                                                          ''''####''''         
             ,#######,   #######,   ,#######,      ##                                
            ,#'     '#,  ##    ##  ,#'     '#,    #''#        ,####,   ,####,        
            ##       ##  ##   ,#'  ##            #'  '#       #'       #'  '#        
            ##       ##  #######   ##           ,######,      #####,   #    #        
            '#,     ,#'  ##    ##  '#,     ,#' ,#      #,     #,   #   #,  ,#        
             '#######'   ##     ##  '#######'  #'      '#     '####' # '####'        



                #########################################################
                #                        -***-                          #
                #          Department of theory and spectroscopy        #
                #                                                       #
                #                      Frank Neese                      #
                #                                                       #
                #     Directorship, Architecture, Infrastructure        #
                #                    SHARK, DRIVERS                     #
                #        Core code/Algorithms in most modules           #
                #                                                       #
                #        Max Planck Institute fuer Kohlenforschung      #
                #                Kaiser Wilhelm Platz 1                 #
                #                 D-45470 Muelheim/Ruhr                 #
                #                      Germany                          #
                #                                                       #
                #                  All rights reserved                  #
                #                        -***-                          #
                #########################################################


                         Program Version 6.0.0  -   RELEASE   -


 With contributions from (in alphabetic order):
   Daniel Aravena         : Magnetic Suceptibility
   Michael Atanasov       : Ab Initio Ligand Field Theory (pilot matlab implementation)
   Alexander A. Auer      : GIAO ZORA, VPT2 properties, NMR spectrum
   Ute Becker             : All parallelization in ORCA, NUMFREQ, NUMCALC
   Giovanni Bistoni       : ED, misc. LED, open-shell LED, HFLD
   Martin Brehm           : Molecular dynamics
   Dmytro Bykov           : pre 5.0 version of the SCF Hessian
   Marcos Casanova-Páez   : Triplet and SCS-CIS(D). UHF-(DLPNO)-IP/EA/STEOM-CCSD. UHF-CVS-IP/STEOM-CCSD
   Vijay G. Chilkuri      : MRCI spin determinant printing, contributions to CSF-ICE
   Pauline Colinet        : FMM embedding
   Dipayan Datta          : RHF DLPNO-CCSD density
   Achintya Kumar Dutta   : EOM-CC, STEOM-CC
   Nicolas Foglia         : Exact transition moments, OPA infrastructure, MCD improvements
   Dmitry Ganyushin       : Spin-Orbit,Spin-Spin,Magnetic field MRCI
   Miquel Garcia          : C-PCM and meta-GGA Hessian, CCSD/C-PCM, Gaussian charge scheme
   Tiago L. C. Gouveia    : GS-ROHF, GS-ROCIS
   Yang Guo               : DLPNO-NEVPT2, F12-NEVPT2, CIM, IAO-localization
   Andreas Hansen         : Spin unrestricted coupled pair/coupled cluster methods
   Ingolf Harden          : AUTO-CI MPn and infrastructure 
   Benjamin Helmich-Paris : MC-RPA, TRAH-(SCF,CASSCF), AVAS, COSX integrals, SCF dyn. polar.
   Lee Huntington         : MR-EOM, pCC
   Robert Izsak           : Overlap fitted RIJCOSX, COSX-SCS-MP3, EOM
   Riya Kayal             : Wick's Theorem for AUTO-CI, AUTO-CI UHF-CCSDT
   Emily Kempfer          : AUTO-CI, RHF CISDT and CCSDT
   Christian Kollmar      : KDIIS, OOCD, Brueckner-CCSD(T), CCSD density, CASPT2, CASPT2-K, improved NEVPT2
   Axel Koslowski         : Symmetry handling
   Simone Kossmann        : Meta GGA functionals, TD-DFT gradient, OOMP2, (MP2 Hessian; deprecated post 5.0)
   Lucas Lang             : DCDCAS
   Marvin Lechner         : AUTO-CI (C++ implementation), FIC-MRCC
   Spencer Leger          : CASSCF response
   Dagmar Lenk            : GEPOL surface, SMD, ORCA-2-JSON
   Dimitrios Liakos       : Extrapolation schemes; Compound Job, initial MDCI parallelization
   Dimitrios Manganas     : Further ROCIS development; embedding schemes. LFT, Crystal Embedding
   Dimitrios Pantazis     : SARC Basis sets
   Anastasios Papadopoulos: AUTO-CI, single reference methods and gradients
   Taras Petrenko         : pre 6.0 DFT Hessian and TD-DFT gradient, (ASA, deprecated), ECA, 1-Electron XAS/XES, NRVS
   Peter Pinski           : DLPNO-MP2, DLPNO-MP2 Gradient
   Christoph Reimann      : Effective Core Potentials
   Marius Retegan         : Local ZFS, SOC
   Christoph Riplinger    : Optimizer, TS searches, QM/MM, DLPNO-CCSD(T), (RO)-DLPNO pert. Triples
   Michael Roemelt        : Original ROCIS implementation
   Masaaki Saitow         : Open-shell DLPNO-CCSD energy and density
   Barbara Sandhoefer     : DKH picture change effects
   Kantharuban Sivalingam : CASSCF convergence/infrastructure, NEVPT2 and variants, FIC-MRCI
   Bernardo de Souza      : ESD, SOC TD-DFT
   Georgi Stoychev        : AutoAux, RI-MP2 NMR, DLPNO-MP2 response, X2C
   Van Anh Tran           : RI-MP2 g-tensors
   Willem Van den Heuvel  : Paramagnetic NMR
   Zikuan Wang            : NOTCH, Electric field optimization 
   Frank Wennmohs         : Technical directorship and infrastructure
   Hang Xu                : AUTO-CI-Response properties 


 We gratefully acknowledge several colleagues who have allowed us to
 interface, adapt or use parts of their codes:
   Stefan Grimme, W. Hujo, H. Kruse, P. Pracht,  : VdW corrections, initial TS optimization,
                  C. Bannwarth, S. Ehlert,         DFT functionals, gCP, sTDA/sTD-DF
                  L. Wittmann, M. Mueller
   Ed Valeev, F. Pavosevic, A. Kumar             : LibInt (2-el integral package), F12 methods
   Garnet Chan, S. Sharma, J. Yang, R. Olivares  : DMRG
   Ulf Ekstrom                                   : XCFun DFT Library
   Mihaly Kallay                                 : mrcc  (arbitrary order and MRCC methods)
   Frank Weinhold                                : gennbo (NPA and NBO analysis)
   Simon Mueller                                 : openCOSMO-RS
   Christopher J. Cramer and Donald G. Truhlar   : smd solvation model
   Lars Goerigk                                  : TD-DFT with DH, B97 family of functionals
   V. Asgeirsson, H. Jonsson                     : NEB implementation
   FAccTs GmbH                                   : IRC, NEB, NEB-TS, DLPNO-Multilevel, CI-OPT
                                                   MM, QMMM, 2- and 3-layer-ONIOM, Crystal-QMMM,
                                                   LR-CPCM, SF, NACMEs, symmetry and pop. for TD-DFT,
                                                   nearIR, NL-DFT gradient (VV10), updates on ESD,
                                                   ML-optimized integration grids, MBIS, APM,
                                                   GOAT, DOCKER, SOLVATOR, interface openCOSMO-RS
   S Lehtola, MJT Oliveira, MAL Marques          : LibXC Library
   Liviu Ungur et al                             : ANISO software


 Your calculation uses the libint2 library for the computation of 2-el integrals
 For citations please refer to: http://libint.valeyev.net

 Your ORCA version has been built with support for libXC version: 6.2.2
 For citations please refer to: https://libxc.gitlab.io

 This ORCA versions uses:
   CBLAS   interface :  Fast vector & matrix operations
   LAPACKE interface :  Fast linear algebra routines
   Shared memory     :  Shared parallel matrices


Your calculation utilizes the atom-pairwise dispersion correction
with the zero-damping scheme (D30)


XCFun DFT library Copyright 2009-2010 Ulf Ekstrom and contributors.
See http://admol.org/xcfun for more information.
This is free software; see the source code for copying conditions.
There is ABSOLUTELY NO WARRANTY; not even for MERCHANTABILITY or FITNESS FOR A PARTICULAR PURPOSE.
For details see the documentation.
Scientific users of this library should cite U. Ekstrom, L. Visscher, R. Bast, A. J. Thorvaldsen and K. Ruud;
J.Chem.Theor.Comp. 2010, DOI: 10.1021/ct100117s
XCFun Version 0.99 

Warning: RI is on but no J-basis has been assigned. Assigning Def2/J (nothing to worry about!)
================================================================================

----- Orbital basis set information -----
Your calculation utilizes the basis: def2-TZVP
   F. Weigend and R. Ahlrichs, Phys. Chem. Chem. Phys. 7, 3297 (2005).

----- AuxJ basis set information -----
Your calculation utilizes the auxiliary basis: def2/J
   F. Weigend, Phys. Chem. Chem. Phys. 8, 1057 (2006).

================================================================================
                                        WARNINGS
                       Please study these warnings very carefully!
================================================================================

WARNING: Functional chosen is sensitive to the integration grid.
         DEFGRID3 seems to be a minimum grid for robust results!

================================================================================
                                       INPUT FILE
================================================================================
NAME = data/single_point_P_M06-2x/316378/316378.inp
|  1> ! RIJCOSX M062X def2-TZVP D3ZERO NormalSCF
|  2> %pal
|  3> nprocs 6
|  4> end
|  5> 
|  6> * xyz 0 1
|  7>   C          -0.21037029517889      1.54827015527285      1.72558802466556
|  8>   C          -0.49638393682974      1.77927166759558      0.23419729036747
|  9>   C           0.49811709566773      2.83053468244278     -0.30470394781268
| 10>   C          -1.93226410449158      2.30055820465102      0.03790064494926
| 11>   P          -0.24425349000244      0.27475005101662     -0.94185104880600
| 12>   C           1.39231234840658     -0.36883846381720     -0.34316587302946
| 13>   C           2.48825072240042     -0.14830375417502     -1.20821099246793
| 14>   C           3.78440554398924     -0.56708392982028     -0.86387983059489
| 15>   C           4.00669060746249     -1.23318453162715      0.35168100429978
| 16>   C           2.92721419222603     -1.47102270247528      1.21996817609014
| 17>   C           1.63643349053989     -1.03775331753796      0.87893553854182
| 18>   C          -1.50522382900907     -1.12081640467757     -0.52423742299320
| 19>   C          -1.95302284518202     -1.29884960730420      0.93514162874446
| 20>   C          -2.74463098552967     -0.81518999764856     -1.39602942900698
| 21>   C          -0.86352716022129     -2.42595573012935     -1.03872075298312
| 22>   H           0.83887104148072      1.23733836690664      1.89511675467441
| 23>   H          -0.87425061991583      0.78598282187638      2.17391754300929
| 24>   H          -0.36814294625130      2.49699889057588      2.28491067062670
| 25>   H           0.39893233325319      3.77435390949170      0.27464549778417
| 26>   H           1.54761943185101      2.48471710668526     -0.20746304872319
| 27>   H           0.31006184359388      3.06007772672765     -1.37320972057597
| 28>   H          -2.04348240759160      3.29164780688426      0.52922415561937
| 29>   H          -2.17790542897301      2.42811290269324     -1.03675919351897
| 30>   H          -2.68754234092101      1.62518613048338      0.48737624455064
| 31>   H           2.30913063908088      0.35782360333776     -2.17039549338492
| 32>   H           4.62217203998624     -0.37978561741888     -1.55340256883822
| 33>   H           5.01907393790252     -1.57040015598287      0.62264381094818
| 34>   H           3.09232198085691     -1.99426353551412      2.17476747143825
| 35>   H           0.81045375285641     -1.22515470920599      1.57831728735739
| 36>   H          -1.11232867643535     -1.53365219310848      1.61585285495525
| 37>   H          -2.67160942418571     -2.14563444531921      1.00209943058713
| 38>   H          -2.47119555874538     -0.40109033134891      1.32520522778872
| 39>   H          -2.46714405935220     -0.70364835009949     -2.46352313751191
| 40>   H          -3.47790553527795     -1.64709379528699     -1.31375849412965
| 41>   H          -3.25797166696921      0.11429405987079     -1.08179587030511
| 42>   H          -0.01753288116022     -2.75512980810552     -0.40470360530150
| 43>   H          -1.62368147058814     -3.23706153266482     -1.04699086940323
| 44>   H          -0.48169233874253     -2.31000417324395     -2.07468895761102
| 45> **                         ****END OF INPUT****
================================================================================

                       ****************************
                       * Single Point Calculation *
                       ****************************

---------------------------------
CARTESIAN COORDINATES (ANGSTROEM)
---------------------------------
  C     -0.210370    1.548270    1.725588
  C     -0.496384    1.779272    0.234197
  C      0.498117    2.830535   -0.304704
  C     -1.932264    2.300558    0.037901
  P     -0.244253    0.274750   -0.941851
  C      1.392312   -0.368838   -0.343166
  C      2.488251   -0.148304   -1.208211
  C      3.784406   -0.567084   -0.863880
  C      4.006691   -1.233185    0.351681
  C      2.927214   -1.471023    1.219968
  C      1.636433   -1.037753    0.878936
  C     -1.505224   -1.120816   -0.524237
  C     -1.953023   -1.298850    0.935142
  C     -2.744631   -0.815190   -1.396029
  C     -0.863527   -2.425956   -1.038721
  H      0.838871    1.237338    1.895117
  H     -0.874251    0.785983    2.173918
  H     -0.368143    2.496999    2.284911
  H      0.398932    3.774354    0.274645
  H      1.547619    2.484717   -0.207463
  H      0.310062    3.060078   -1.373210
  H     -2.043482    3.291648    0.529224
  H     -2.177905    2.428113   -1.036759
  H     -2.687542    1.625186    0.487376
  H      2.309131    0.357824   -2.170395
  H      4.622172   -0.379786   -1.553403
  H      5.019074   -1.570400    0.622644
  H      3.092322   -1.994264    2.174767
  H      0.810454   -1.225155    1.578317
  H     -1.112329   -1.533652    1.615853
  H     -2.671609   -2.145634    1.002099
  H     -2.471196   -0.401090    1.325205
  H     -2.467144   -0.703648   -2.463523
  H     -3.477906   -1.647094   -1.313758
  H     -3.257972    0.114294   -1.081796
  H     -0.017533   -2.755130   -0.404704
  H     -1.623681   -3.237062   -1.046991
  H     -0.481692   -2.310004   -2.074689

----------------------------
CARTESIAN COORDINATES (A.U.)
----------------------------
  NO LB      ZA    FRAG     MASS         X           Y           Z
   0 C     6.0000    0    12.011   -0.397542    2.925807    3.260889
   1 C     6.0000    0    12.011   -0.938030    3.362336    0.442569
   2 C     6.0000    0    12.011    0.941305    5.348935   -0.575807
   3 C     6.0000    0    12.011   -3.651450    4.347425    0.071622
   4 P    15.0000    0    30.974   -0.461572    0.519202   -1.779841
   5 C     6.0000    0    12.011    2.631089   -0.697004   -0.648490
   6 C     6.0000    0    12.011    4.702112   -0.280253   -2.283188
   7 C     6.0000    0    12.011    7.151490   -1.071633   -1.632496
   8 C     6.0000    0    12.011    7.571548   -2.330381    0.664581
   9 C     6.0000    0    12.011    5.531633   -2.779830    2.305406
  10 C     6.0000    0    12.011    3.092411   -1.961070    1.660947
  11 C     6.0000    0    12.011   -2.844461   -2.118036   -0.990665
  12 C     6.0000    0    12.011   -3.690678   -2.454470    1.767162
  13 C     6.0000    0    12.011   -5.186601   -1.540486   -2.638113
  14 C     6.0000    0    12.011   -1.631830   -4.584392   -1.962898
  15 H     1.0000    0     1.008    1.585237    2.338231    3.581252
  16 H     1.0000    0     1.008   -1.652094    1.485292    4.108109
  17 H     1.0000    0     1.008   -0.695689    4.718644    4.317855
  18 H     1.0000    0     1.008    0.753873    7.132495    0.519005
  19 H     1.0000    0     1.008    2.924577    4.695435   -0.392048
  20 H     1.0000    0     1.008    0.585932    5.782709   -2.594990
  21 H     1.0000    0     1.008   -3.861622    6.220313    1.000089
  22 H     1.0000    0     1.008   -4.115645    4.588468   -1.959191
  23 H     1.0000    0     1.008   -5.078719    3.071157    0.921008
  24 H     1.0000    0     1.008    4.363625    0.676189   -4.101453
  25 H     1.0000    0     1.008    8.734639   -0.717691   -2.935505
  26 H     1.0000    0     1.008    9.484675   -2.967626    1.176626
  27 H     1.0000    0     1.008    5.843642   -3.768612    4.109715
  28 H     1.0000    0     1.008    1.531536   -2.315207    2.982587
  29 H     1.0000    0     1.008   -2.101997   -2.898183    3.053519
  30 H     1.0000    0     1.008   -5.048610   -4.054661    1.893693
  31 H     1.0000    0     1.008   -4.669883   -0.757951    2.504275
  32 H     1.0000    0     1.008   -4.662227   -1.329703   -4.655384
  33 H     1.0000    0     1.008   -6.572289   -3.112556   -2.482644
  34 H     1.0000    0     1.008   -6.156674    0.215984   -2.044298
  35 H     1.0000    0     1.008   -0.033132   -5.206441   -0.764779
  36 H     1.0000    0     1.008   -3.068313   -6.117160   -1.978526
  37 H     1.0000    0     1.008   -0.910267   -4.365275   -3.920594

--------------------------------
INTERNAL COORDINATES (ANGSTROEM)
--------------------------------
 C      0   0   0     0.000000000000     0.00000000     0.00000000
 C      1   0   0     1.536037702746     0.00000000     0.00000000
 C      2   1   0     1.544215261722   108.74155948     0.00000000
 C      2   1   3     1.540137618073   110.38021065   240.47845964
 P      2   1   3     1.926199562102   116.80585510   116.66180176
 C      5   2   1     1.857680774398   100.90333966   314.50501260
 C      6   5   2     1.413513189331   115.57960372   252.14247035
 C      7   6   5     1.404976194132   121.25098760   178.99324360
 C      8   7   6     1.403812239760   119.98187684     0.81087129
 C      9   8   7     1.405616924791   119.57567367   359.71524730
 C     10   9   8     1.403616913421   120.25959374   359.57232176
 C      5   2   1     1.926668904762   110.35049896    64.94782911
 C     12   5   2     1.536882232565   118.71330053   327.62753904
 C     12   5   2     1.545819815521   105.02838539    89.66972124
 C     12   5   2     1.542678310735   105.56200235   203.92854661
 H      1   2   3     1.107396022148   111.54842150   303.30474412
 H      1   2   3     1.105811205065   112.67651493   181.30252010
 H      1   2   3     1.112573703132   109.47954166    61.87184425
 H      3   2   1     1.111880447960   109.79090642   301.86733198
 H      3   2   1     1.109279379513   111.49922688    61.09236492
 H      3   2   1     1.108945162504   111.58967788   181.99235809
 H      4   2   1     1.111767467925   109.79574041    63.44304286
 H      4   2   1     1.109731332216   111.63534391   182.75790901
 H      4   2   1     1.108422738682   112.17010461   304.35559254
 H      7   6   5     1.101838427391   118.68811822   358.66349426
 H      8   7   6     1.101079000889   119.85124962   180.24737618
 H      9   8   7     1.100933798032   120.26906224   179.51970644
 H     10   9   8     1.101218981685   120.05603472   179.90213940
 H     11  10   9     1.098406408958   118.95752478   180.66641192
 H     13  12   5     1.106917663223   112.78224599   299.33609326
 H     13  12   5     1.112607109740   109.48092191   180.35019914
 H     13  12   5     1.107530717382   112.13884010    61.65881992
 H     14  12   5     1.108595215142   111.23914486    53.19108393
 H     14  12   5     1.111991007409   109.82059898   172.88797548
 H     14  12   5     1.107340055185   112.18548196   292.41454670
 H     15  12   5     1.107266741743   112.23215020    72.90641515
 H     15  12   5     1.111663435263   109.59267405   192.95527294
 H     15  12   5     1.110167877142   111.46389934   312.11165611

---------------------------
INTERNAL COORDINATES (A.U.)
---------------------------
 C      0   0   0     0.000000000000     0.00000000     0.00000000
 C      1   0   0     2.902690589567     0.00000000     0.00000000
 C      2   1   0     2.918143936477   108.74155948     0.00000000
 C      2   1   3     2.910438306707   110.38021065   240.47845964
 P      2   1   3     3.639989651653   116.80585510   116.66180176
 C      5   2   1     3.510507907863   100.90333966   314.50501260
 C      6   5   2     2.671152814522   115.57960372   252.14247035
 C      7   6   5     2.655020231589   121.25098760   178.99324360
 C      8   7   6     2.652820676593   119.98187684     0.81087129
 C      9   8   7     2.656231037060   119.57567367   359.71524730
 C     10   9   8     2.652451563306   120.25959374   359.57232176
 C      5   2   1     3.640876580743   110.35049896    64.94782911
 C     12   5   2     2.904286519637   118.71330053   327.62753904
 C     12   5   2     2.921176103723   105.02838539    89.66972124
 C     12   5   2     2.915239520029   105.56200235   203.92854661
 H      1   2   3     2.092675203654   111.54842150   303.30474412
 H      1   2   3     2.089680333395   112.67651493   181.30252010
 H      1   2   3     2.102459602722   109.47954166    61.87184425
 H      3   2   1     2.101149540306   109.79090642   301.86733198
 H      3   2   1     2.096234233286   111.49922688    61.09236492
 H      3   2   1     2.095602654669   111.58967788   181.99235809
 H      4   2   1     2.100936038981   109.79574041    63.44304286
 H      4   2   1     2.097088300120   111.63534391   182.75790901
 H      4   2   1     2.094615416719   112.17010461   304.35559254
 H      7   6   5     2.082172871600   118.68811822   358.66349426
 H      8   7   6     2.080737763491   119.85124962   180.24737618
 H      9   8   7     2.080463369858   120.26906224   179.51970644
 H     10   9   8     2.081002288860   120.05603472   179.90213940
 H     11  10   9     2.075687296674   118.95752478   180.66641192
 H     13  12   5     2.091771236291   112.78224599   299.33609326
 H     13  12   5     2.102522732062   109.48092191   180.35019914
 H     13  12   5     2.092929740757   112.13884010    61.65881992
 H     14  12   5     2.094941349993   111.23914486    53.19108393
 H     14  12   5     2.101358467387   109.82059898   172.88797548
 H     14  12   5     2.092569441422   112.18548196   292.41454670
 H     15  12   5     2.092430899093   112.23215020    72.90641515
 H     15  12   5     2.100739445742   109.59267405   192.95527294
 H     15  12   5     2.097913250475   111.46389934   312.11165611

---------------------
BASIS SET INFORMATION
---------------------
There are 3 groups of distinct atoms

 Group   1 Type C   : 11s6p2d1f contracted to 5s3p2d1f pattern {62111/411/11/1}
 Group   2 Type P   : 14s9p3d1f contracted to 5s5p2d1f pattern {73211/51111/21/1}
 Group   3 Type H   : 5s1p contracted to 3s1p pattern {311/1}

Atom   0C    basis set group =>   1
Atom   1C    basis set group =>   1
Atom   2C    basis set group =>   1
Atom   3C    basis set group =>   1
Atom   4P    basis set group =>   2
Atom   5C    basis set group =>   1
Atom   6C    basis set group =>   1
Atom   7C    basis set group =>   1
Atom   8C    basis set group =>   1
Atom   9C    basis set group =>   1
Atom  10C    basis set group =>   1
Atom  11C    basis set group =>   1
Atom  12C    basis set group =>   1
Atom  13C    basis set group =>   1
Atom  14C    basis set group =>   1
Atom  15H    basis set group =>   3
Atom  16H    basis set group =>   3
Atom  17H    basis set group =>   3
Atom  18H    basis set group =>   3
Atom  19H    basis set group =>   3
Atom  20H    basis set group =>   3
Atom  21H    basis set group =>   3
Atom  22H    basis set group =>   3
Atom  23H    basis set group =>   3
Atom  24H    basis set group =>   3
Atom  25H    basis set group =>   3
Atom  26H    basis set group =>   3
Atom  27H    basis set group =>   3
Atom  28H    basis set group =>   3
Atom  29H    basis set group =>   3
Atom  30H    basis set group =>   3
Atom  31H    basis set group =>   3
Atom  32H    basis set group =>   3
Atom  33H    basis set group =>   3
Atom  34H    basis set group =>   3
Atom  35H    basis set group =>   3
Atom  36H    basis set group =>   3
Atom  37H    basis set group =>   3
---------------------------------
AUXILIARY/J BASIS SET INFORMATION
---------------------------------
There are 3 groups of distinct atoms

 Group   1 Type C   : 12s5p4d2f1g contracted to 6s4p3d1f1g pattern {711111/2111/211/2/1}
 Group   2 Type P   : 14s5p5d2f1g contracted to 8s4p3d1f1g pattern {71111111/2111/311/2/1}
 Group   3 Type H   : 5s2p1d contracted to 3s1p1d pattern {311/2/1}

Atom   0C    basis set group =>   1
Atom   1C    basis set group =>   1
Atom   2C    basis set group =>   1
Atom   3C    basis set group =>   1
Atom   4P    basis set group =>   2
Atom   5C    basis set group =>   1
Atom   6C    basis set group =>   1
Atom   7C    basis set group =>   1
Atom   8C    basis set group =>   1
Atom   9C    basis set group =>   1
Atom  10C    basis set group =>   1
Atom  11C    basis set group =>   1
Atom  12C    basis set group =>   1
Atom  13C    basis set group =>   1
Atom  14C    basis set group =>   1
Atom  15H    basis set group =>   3
Atom  16H    basis set group =>   3
Atom  17H    basis set group =>   3
Atom  18H    basis set group =>   3
Atom  19H    basis set group =>   3
Atom  20H    basis set group =>   3
Atom  21H    basis set group =>   3
Atom  22H    basis set group =>   3
Atom  23H    basis set group =>   3
Atom  24H    basis set group =>   3
Atom  25H    basis set group =>   3
Atom  26H    basis set group =>   3
Atom  27H    basis set group =>   3
Atom  28H    basis set group =>   3
Atom  29H    basis set group =>   3
Atom  30H    basis set group =>   3
Atom  31H    basis set group =>   3
Atom  32H    basis set group =>   3
Atom  33H    basis set group =>   3
Atom  34H    basis set group =>   3
Atom  35H    basis set group =>   3
Atom  36H    basis set group =>   3
Atom  37H    basis set group =>   3


           ************************************************************
           *        Program running with 6 parallel MPI-processes     *
           *              working on a common directory               *
           ************************************************************
------------------------------------------------------------------------------
                             ORCA STARTUP CALCULATIONS
                           -- RI-GTO INTEGRALS CHOSEN --
------------------------------------------------------------------------------
------------------------------------------------------------------------------
                   ___                                                        
                  /   \      - P O W E R E D   B Y -                         
                 /     \                                                     
                 |  |  |   _    _      __       _____    __    __             
                 |  |  |  | |  | |    /  \     |  _  \  |  |  /  |          
                  \  \/   | |  | |   /    \    | | | |  |  | /  /          
                 / \  \   | |__| |  /  /\  \   | |_| |  |  |/  /          
                |  |  |   |  __  | /  /__\  \  |    /   |      \           
                |  |  |   | |  | | |   __   |  |    \   |  |\   \          
                \     /   | |  | | |  |  |  |  | |\  \  |  | \   \       
                 \___/    |_|  |_| |__|  |__|  |_| \__\ |__|  \__/        
                                                                              
                      - O R C A' S   B I G   F R I E N D -                    
                                      &                                       
                       - I N T E G R A L  F E E D E R -                       
                                                                              
 v1 FN, 2020, v2 2021, v3 2022-2024                                           
------------------------------------------------------------------------------


----------------------
SHARK INTEGRAL PACKAGE
----------------------

Number of atoms                             ...     38
Number of basis functions                   ...    609
Number of shells                            ...    259
Maximum angular momentum                    ...      3
Integral batch strategy                     ... SHARK/LIBINT Hybrid
RI-J (if used) integral strategy            ... SPLIT-RIJ (Revised 2003 algorithm where possible)
Printlevel                                  ...      1
Contraction scheme used                     ... SEGMENTED contraction
Prescreening option                         ... SCHWARTZ
   Thresh                                   ... 1.000e-10
   Tcut                                     ... 1.000e-11
   Tpresel                                  ... 1.000e-11 
Coulomb Range Separation                    ... NOT USED
Exchange Range Separation                   ... NOT USED
Multipole approximations                    ... NOT USED
Finite Nucleus Model                        ... NOT USED
CABS basis                                  ... NOT available
Auxiliary Coulomb fitting basis             ... AVAILABLE
   # of basis functions in Aux-J            ...    990
   # of shells in Aux-J                     ...    342
   Maximum angular momentum in Aux-J        ...      4
Auxiliary J/K fitting basis                 ... NOT available
Auxiliary Correlation fitting basis         ... NOT available
Auxiliary 'external' fitting basis          ... NOT available

Checking pre-screening integrals            ... done (  0.0 sec) Dimension = 259
Check shell pair data                       ... done (  0.0 sec)
Shell pair information
Shell pair cut-off parameter TPreSel        ...   1.0e-11
Total number of shell pairs                 ...     33670
Shell pairs after pre-screening             ...     27178
Total number of primitive shell pairs       ...     99648
Primitive shell pairs kept                  ...     55318
          la=0 lb=0:   8195 shell pairs
          la=1 lb=0:   8181 shell pairs
          la=1 lb=1:   2089 shell pairs
          la=2 lb=0:   3533 shell pairs
          la=2 lb=1:   1774 shell pairs
          la=2 lb=2:    405 shell pairs
          la=3 lb=0:   1679 shell pairs
          la=3 lb=1:    846 shell pairs
          la=3 lb=2:    376 shell pairs
          la=3 lb=3:    100 shell pairs

Calculating one electron integrals          ... done (  0.1 sec)
Calculating RI/J V-Matrix + Cholesky decomp.... done (  0.0 sec)
Calculating Nuclear repulsion               ... done (  0.0 sec) ENN=   1181.240781318520 Eh

Diagonalization of the overlap matrix:
Smallest eigenvalue                        ... 7.635e-06
Time for diagonalization                   ...    0.070 sec
Threshold for overlap eigenvalues          ... 1.000e-07
Number of eigenvalues below threshold      ... 0
Time for construction of square roots      ...    0.033 sec
Total time needed                          ...    0.107 sec

-------------------
DFT GRID GENERATION
-------------------

General Integration Accuracy     IntAcc      ... 4.388
Radial Grid Type                 RadialGrid  ... OptM3 with GC (2021)
Angular Grid (max. ang.)         AngularGrid ... 4 (Lebedev-302)
Angular grid pruning method      GridPruning ... 4 (adaptive)
Weight generation scheme         WeightScheme... mBecke (2022)
Basis function cutoff            BFCut       ... 1.0000e-10
Integration weight cutoff        WCut        ... 1.0000e-14
Partially contracted basis set               ... off
Rotationally invariant grid construction     ... off
Angular grids for H and He will be reduced by one unit

Total number of grid points                  ...   163163
Total number of batches                      ...     2570
Average number of points per batch           ...       63
Average number of grid points per atom       ...     4294

--------------------
COSX GRID GENERATION
--------------------

GRIDX 1
-------
General Integration Accuracy     IntAcc      ... 3.816
Radial Grid Type                 RadialGrid  ... OptM3 with GC (2021)
Angular Grid (max. ang.)         AngularGrid ... 1 (Lebedev-50)
Angular grid pruning method      GridPruning ... 4 (adaptive)
Weight generation scheme         WeightScheme... mBecke (2022)
Basis function cutoff            BFCut       ... 1.0000e-10
Integration weight cutoff        WCut        ... 1.0000e-14
Partially contracted basis set               ... on
Rotationally invariant grid construction     ... off
Angular grids for H and He will be reduced by one unit

Total number of grid points                  ...    21771
Total number of batches                      ...      187
Average number of points per batch           ...      116
Average number of grid points per atom       ...      573
UseSFitting                                  ... on

GRIDX 2
-------
General Integration Accuracy     IntAcc      ... 4.020
Radial Grid Type                 RadialGrid  ... OptM3 with GC (2021)
Angular Grid (max. ang.)         AngularGrid ... 2 (Lebedev-110)
Angular grid pruning method      GridPruning ... 4 (adaptive)
Weight generation scheme         WeightScheme... mBecke (2022)
Basis function cutoff            BFCut       ... 1.0000e-10
Integration weight cutoff        WCut        ... 1.0000e-14
Partially contracted basis set               ... on
Rotationally invariant grid construction     ... off
Angular grids for H and He will be reduced by one unit

Total number of grid points                  ...    43128
Total number of batches                      ...      355
Average number of points per batch           ...      121
Average number of grid points per atom       ...     1135
UseSFitting                                  ... on

GRIDX 3
-------
General Integration Accuracy     IntAcc      ... 4.338
Radial Grid Type                 RadialGrid  ... OptM3 with GC (2021)
Angular Grid (max. ang.)         AngularGrid ... 3 (Lebedev-194)
Angular grid pruning method      GridPruning ... 4 (adaptive)
Weight generation scheme         WeightScheme... mBecke (2022)
Basis function cutoff            BFCut       ... 1.0000e-10
Integration weight cutoff        WCut        ... 1.0000e-14
Partially contracted basis set               ... on
Rotationally invariant grid construction     ... off
Angular grids for H and He will be reduced by one unit

Total number of grid points                  ...    94014
Total number of batches                      ...      754
Average number of points per batch           ...      124
Average number of grid points per atom       ...     2474
UseSFitting                                  ... on
Initializing property integral containers    ... done (  0.0 sec)

SHARK setup successfully completed in   3.2 seconds

Maximum memory used throughout the entire STARTUP-calculation: 64.6 MB


           ************************************************************
           *        Program running with 6 parallel MPI-processes     *
           *              working on a common directory               *
           ************************************************************
-------------------------------------------------------------------------------
                                 ORCA GUESS
                   Start orbitals & Density for SCF / CASSCF
-------------------------------------------------------------------------------

------------
SCF SETTINGS
------------
Hamiltonian:
 Density Functional     Method          .... DFT(GTOs)
 Exchange Functional    Exchange        .... M062X
 Correlation Functional Correlation     .... M062X
 Gradients option       PostSCFGGA      .... off
 Hybrid DFT is turned on
   Fraction HF Exchange ScalHFX         ....  0.540000
   Scaling of DF-GGA-X  ScalDFX         ....  0.460000
   Scaling of DF-GGA-C  ScalDFC         ....  1.000000
   Scaling of DF-LDA-C  ScalLDAC        ....  1.000000
   Perturbative correction              ....  0.000000
 RI-approximation to the Coulomb term is turned on
   Number of AuxJ basis functions       .... 990
   RIJ-COSX (HFX calculated with COS-X)).... on


General Settings:
 Integral files         IntName         .... data/single_point_P_M06-2x/316378/316378
 Hartree-Fock type      HFTyp           .... RHF
 Total Charge           Charge          ....    0
 Multiplicity           Mult            ....    1
 Number of Electrons    NEL             ....  122
 Basis Dimension        Dim             ....  609
 Nuclear Repulsion      ENuc            ....   1181.2407813185 Eh

Convergence Acceleration:
 AO-DIIS                CNVDIIS         .... on
   Start iteration      DIISMaxIt       ....    12
   Startup error        DIISStart       ....  0.200000
   # of expansion vecs  DIISMaxEq       ....     5
   Bias factor          DIISBfac        ....   1.050
   Max. coefficient     DIISMaxC        ....  10.000
 MO-DIIS                CNVKDIIS        .... off
 Trust-Rad. Augm. Hess. CNVTRAH         .... auto
   Auto Start mean grad. ratio tolernc. ....  1.125000
   Auto Start start iteration           ....    50
   Auto Start num. interpolation iter.  ....    10
   Max. Number of Micro iterations      ....    24
   Max. Number of Macro iterations      .... Maxiter - #DIIS iter
   Number of Davidson start vectors     ....     2
   Converg. threshold    (grad. norm)   ....   5.000e-05
   Grad. Scal. Fac. for Micro threshold ....   0.100
   Minimum threshold for Micro iter.    ....   1.000e-02
   NR start threshold (gradient norm)   ....   1.000e-04
   Initial trust radius                 ....   0.400
   Minimum AH scaling param. (alpha)    ....   1.000
   Maximum AH scaling param. (alpha)    .... 1000.000
   Quad. conv. algorithm                .... NR
   White noise on init. David. guess    .... on
   Maximum white noise                  ....   0.010
   Pseudo random numbers                .... off
   Inactive MOs                         .... canonical
   Orbital update algorithm             .... Taylor
   Preconditioner                       .... Diag
   Full preconditioner red. dimension   ....   250
 SOSCF                  CNVSOSCF        .... on
   Start iteration      SOSCFMaxIt      ....   150
   Startup grad/error   SOSCFStart      ....  0.003300
   Hessian update       SOSCFHessUp     .... L-BFGS
 Level Shifting         CNVShift        .... on
   Level shift para.    LevelShift      ....    0.2500
   Turn off err/grad.   ShiftErr        ....    0.0010
 Zerner damping         CNVZerner       .... off
 Static damping         CNVDamp         .... on
   Fraction old density DampFac         ....    0.7000
   Max. Damping (<1)    DampMax         ....    0.9800
   Min. Damping (>=0)   DampMin         ....    0.0000
   Turn off err/grad.   DampErr         ....    0.1000

SCF Procedure:
 Maximum # iterations   MaxIter         ....   125
 SCF integral mode      SCFMode         .... Direct
   Integral package                     .... SHARK and LIBINT hybrid scheme
 Reset frequency        DirectResetFreq ....    20
 Integral Threshold     Thresh          ....  1.000e-10 Eh
 Primitive CutOff       TCut            ....  1.000e-11 Eh

Convergence Tolerance:
 Convergence Check Mode ConvCheckMode   .... Total+1el-Energy
 Convergence forced     ConvForced      .... 0
 Energy Change          TolE            ....  1.000e-06 Eh
 1-El. energy change                    ....  1.000e-03 Eh
 Orbital Gradient       TolG            ....  5.000e-05
 Orbital Rotation angle TolX            ....  5.000e-05
 DIIS Error             TolErr          ....  1.000e-05

------------------------------
INITIAL GUESS: MODEL POTENTIAL
------------------------------
Loading Hartree-Fock densities                     ... done
Calculating cut-offs                               ... done
Initializing the effective Hamiltonian             ... done
Setting up the integral package (SHARK)            ... done
Starting the Coulomb interaction                   ... done (   0.5 sec)
Making the grid                                    ... done (   0.2 sec)
Mapping shells                                     ... done
Starting the XC term evaluation                    ... done (   0.3 sec)
  promolecular density results
     # of electrons  =    121.984383337
     EX              =   -100.817984815
     EC              =     -4.092738100
     EX+EC           =   -104.910722915
Transforming the Hamiltonian                       ... done (   0.0 sec)
Diagonalizing the Hamiltonian                      ... done (   0.1 sec)
Back transforming the eigenvectors                 ... done (   0.0 sec)
Now organizing SCF variables                       ... done
                      ------------------
                      INITIAL GUESS DONE (   1.2 sec)
                      ------------------
             **** ENERGY FILE WAS UPDATED (data/single_point_P_M06-2x/316378/316378.en.tmp) ****
Finished Guess after   1.4 sec
Maximum memory used throughout the entire GUESS-calculation: 46.4 MB


           ************************************************************
           *        Program running with 6 parallel MPI-processes     *
           *              working on a common directory               *
           ************************************************************

-------------------------------------------------------------------------------------------
                                      ORCA LEAN-SCF
                              memory conserving SCF solver
-------------------------------------------------------------------------------------------

----------------------------------------D-I-I-S--------------------------------------------
Iteration    Energy (Eh)           Delta-E    RMSDP     MaxDP     DIISErr   Damp  Time(sec)
-------------------------------------------------------------------------------------------
               ***  Starting incremental Fock matrix formation  ***
    1    -888.1323863200075266     0.00e+00  1.19e-03  5.02e-02  1.80e-01  0.700  11.9
    2    -888.3412480190033875    -2.09e-01  9.46e-04  3.58e-02  1.01e-01  0.700   6.9
                               ***Turning on AO-DIIS***
    3    -888.4399055953842890    -9.87e-02  6.11e-04  2.57e-02  4.52e-02  0.700   6.6
    4    -888.4969316892704683    -5.70e-02  1.39e-03  6.35e-02  2.66e-02  0.000   6.3
    5    -888.6177327990928916    -1.21e-01  1.23e-04  9.38e-03  3.42e-03  0.000   6.8
                              *** Initializing SOSCF ***
---------------------------------------S-O-S-C-F--------------------------------------
Iteration    Energy (Eh)           Delta-E    RMSDP     MaxDP     MaxGrad    Time(sec)
--------------------------------------------------------------------------------------
    6    -888.6179840962811340    -2.51e-04  4.99e-05  2.45e-03  1.22e-03     6.0
               *** Restarting incremental Fock matrix formation ***
    7    -888.6180693811645597    -8.53e-05  7.59e-05  3.05e-03  2.41e-04    11.7
    8    -888.6180729017717113    -3.52e-06  2.68e-05  1.03e-03  2.01e-04     8.1
    9    -888.6180746916359112    -1.79e-06  1.96e-05  9.00e-04  7.06e-05     7.6
   10    -888.6180748753456555    -1.84e-07  4.51e-06  1.90e-04  3.83e-05     7.3
                 **** Energy Check signals convergence ****

               *****************************************************
               *                     SUCCESS                       *
               *           SCF CONVERGED AFTER  10 CYCLES          *
               *****************************************************

Recomputing exchange energy using gridx3       ... done (   16.559 sec)
Old exchange energy                            :    -55.755886068 Eh
New exchange energy                            :    -55.755849636 Eh
Exchange energy change after final integration :      0.000036432 Eh
Total energy after final integration           :   -888.618038443 Eh
             **** ENERGY FILE WAS UPDATED (data/single_point_P_M06-2x/316378/316378.en.tmp) ****

----------------
TOTAL SCF ENERGY
----------------

Total Energy       :       -888.61803844293524 Eh          -24180.52614 eV

Components:
Nuclear Repulsion  :       1181.24078131851979 Eh           32143.19579 eV
Electronic Energy  :      -2069.85885619386499 Eh          -56323.72292 eV
One Electron Energy:      -3556.83573158578429 Eh          -96786.42078 eV
Two Electron Energy:       1486.97687539191907 Eh           40462.69786 eV

Virial components:
Potential Energy   :      -1772.81363367073345 Eh          -48240.71148 eV
Kinetic Energy     :        884.19559522779809 Eh           24060.18534 eV
Virial Ratio       :          2.00500165714352

DFT components:
N(Alpha)           :       61.000112680959 electrons
N(Beta)            :       61.000112680959 electrons
N(Total)           :      122.000225361919 electrons
E(XC)              :      -51.734111869649 Eh       

---------------
SCF CONVERGENCE
---------------

  Last Energy change         ...    1.8371e-07  Tolerance :   1.0000e-06
  Last MAX-Density change    ...    1.9037e-04  Tolerance :   1.0000e-05
  Last RMS-Density change    ...    4.5144e-06  Tolerance :   1.0000e-06
  Last DIIS Error            ...    1.2191e-03  Tolerance :   1.0000e-05
  Last Orbital Gradient      ...    3.8311e-05  Tolerance :   5.0000e-05
  Last Orbital Rotation      ...    5.8042e-05  Tolerance :   5.0000e-05


----------------
ORBITAL ENERGIES
----------------

  NO   OCC          E(Eh)            E(eV) 
   0   2.0000     -78.014719     -2122.8884 
   1   2.0000     -10.556699      -287.2624 
   2   2.0000     -10.555220      -287.2222 
   3   2.0000     -10.551696      -287.1262 
   4   2.0000     -10.551464      -287.1199 
   5   2.0000     -10.550718      -287.0996 
   6   2.0000     -10.550089      -287.0825 
   7   2.0000     -10.549328      -287.0618 
   8   2.0000     -10.548617      -287.0425 
   9   2.0000     -10.533488      -286.6308 
  10   2.0000     -10.532189      -286.5954 
  11   2.0000     -10.528624      -286.4984 
  12   2.0000     -10.528101      -286.4842 
  13   2.0000     -10.527040      -286.4553 
  14   2.0000     -10.526386      -286.4375 
  15   2.0000      -6.830780      -185.8750 
  16   2.0000      -4.945135      -134.5640 
  17   2.0000      -4.944867      -134.5567 
  18   2.0000      -4.944481      -134.5462 
  19   2.0000      -0.955213       -25.9927 
  20   2.0000      -0.914309       -24.8796 
  21   2.0000      -0.897714       -24.4281 
  22   2.0000      -0.842019       -22.9125 
  23   2.0000      -0.840010       -22.8578 
  24   2.0000      -0.777947       -21.1690 
  25   2.0000      -0.774737       -21.0817 
  26   2.0000      -0.767674       -20.8895 
  27   2.0000      -0.767189       -20.8763 
  28   2.0000      -0.715700       -19.4752 
  29   2.0000      -0.684669       -18.6308 
  30   2.0000      -0.661432       -17.9985 
  31   2.0000      -0.620035       -16.8720 
  32   2.0000      -0.600616       -16.3436 
  33   2.0000      -0.567516       -15.4429 
  34   2.0000      -0.529836       -14.4176 
  35   2.0000      -0.525405       -14.2970 
  36   2.0000      -0.517055       -14.0698 
  37   2.0000      -0.513522       -13.9736 
  38   2.0000      -0.502947       -13.6859 
  39   2.0000      -0.499292       -13.5864 
  40   2.0000      -0.492264       -13.3952 
  41   2.0000      -0.487374       -13.2621 
  42   2.0000      -0.479001       -13.0343 
  43   2.0000      -0.458495       -12.4763 
  44   2.0000      -0.450222       -12.2512 
  45   2.0000      -0.445480       -12.1221 
  46   2.0000      -0.438240       -11.9251 
  47   2.0000      -0.434858       -11.8331 
  48   2.0000      -0.433729       -11.8024 
  49   2.0000      -0.424390       -11.5483 
  50   2.0000      -0.423383       -11.5208 
  51   2.0000      -0.403654       -10.9840 
  52   2.0000      -0.399357       -10.8671 
  53   2.0000      -0.392446       -10.6790 
  54   2.0000      -0.386378       -10.5139 
  55   2.0000      -0.382403       -10.4057 
  56   2.0000      -0.349636        -9.5141 
  57   2.0000      -0.336624        -9.1600 
  58   2.0000      -0.308299        -8.3893 
  59   2.0000      -0.301628        -8.2077 
  60   2.0000      -0.266486        -7.2515 
  61   0.0000       0.002598         0.0707 
  62   0.0000       0.016260         0.4425 
  63   0.0000       0.059180         1.6104 
  64   0.0000       0.067607         1.8397 
  65   0.0000       0.079885         2.1738 
  66   0.0000       0.083760         2.2792 
  67   0.0000       0.095097         2.5877 
  68   0.0000       0.098540         2.6814 
  69   0.0000       0.104950         2.8558 
  70   0.0000       0.109515         2.9801 
  71   0.0000       0.110630         3.0104 
*Only the first 10 virtual orbitals were printed.

                    ********************************
                    * MULLIKEN POPULATION ANALYSIS *
                    ********************************

-----------------------
MULLIKEN ATOMIC CHARGES
-----------------------
   0 C :   -0.480884
   1 C :   -0.006852
   2 C :   -0.466785
   3 C :   -0.489387
   4 P :    0.080716
   5 C :   -0.037238
   6 C :   -0.115981
   7 C :   -0.153811
   8 C :   -0.132187
   9 C :   -0.162022
  10 C :   -0.231492
  11 C :   -0.059524
  12 C :   -0.470467
  13 C :   -0.436203
  14 C :   -0.458593
  15 H :    0.176878
  16 H :    0.161440
  17 H :    0.149321
  18 H :    0.145812
  19 H :    0.170947
  20 H :    0.163242
  21 H :    0.152919
  22 H :    0.176076
  23 H :    0.143862
  24 H :    0.160255
  25 H :    0.145061
  26 H :    0.145109
  27 H :    0.144602
  28 H :    0.175453
  29 H :    0.155579
  30 H :    0.155603
  31 H :    0.146590
  32 H :    0.166169
  33 H :    0.144834
  34 H :    0.158272
  35 H :    0.172230
  36 H :    0.145638
  37 H :    0.164819
Sum of atomic charges:   -0.0000000

--------------------------------
MULLIKEN REDUCED ORBITAL CHARGES
--------------------------------
  0 C s       :     3.351351  s :     3.351351
      pz      :     0.908524  p :     3.067142
      px      :     1.067990
      py      :     1.090627
      dz2     :     0.009718  d :     0.059081
      dxz     :     0.012063
      dyz     :     0.021484
      dx2y2   :     0.009000
      dxy     :     0.006815
      f0      :     0.000864  f :     0.003311
      f+1     :     0.000685
      f-1     :     0.000678
      f+2     :     0.000274
      f-2     :     0.000254
      f+3     :     0.000256
      f-3     :     0.000299

  1 C s       :     3.067967  s :     3.067967
      pz      :     0.921610  p :     2.816435
      px      :     0.930865
      py      :     0.963959
      dz2     :     0.022270  d :     0.115787
      dxz     :     0.026640
      dyz     :     0.025915
      dx2y2   :     0.023652
      dxy     :     0.017310
      f0      :     0.001080  f :     0.006663
      f+1     :     0.001045
      f-1     :     0.001309
      f+2     :     0.000647
      f-2     :     0.000597
      f+3     :     0.001104
      f-3     :     0.000881

  2 C s       :     3.353325  s :     3.353325
      pz      :     1.058119  p :     3.051575
      px      :     1.005524
      py      :     0.987931
      dz2     :     0.016220  d :     0.058524
      dxz     :     0.003631
      dyz     :     0.012057
      dx2y2   :     0.020206
      dxy     :     0.006411
      f0      :     0.000517  f :     0.003361
      f+1     :     0.000447
      f-1     :     0.000418
      f+2     :     0.000377
      f-2     :     0.000377
      f+3     :     0.000506
      f-3     :     0.000720

  3 C s       :     3.360815  s :     3.360815
      pz      :     1.079717  p :     3.067386
      px      :     0.915411
      py      :     1.072258
      dz2     :     0.011412  d :     0.057867
      dxz     :     0.012605
      dyz     :     0.008108
      dx2y2   :     0.011850
      dxy     :     0.013892
      f0      :     0.000768  f :     0.003318
      f+1     :     0.000338
      f-1     :     0.000100
      f+2     :     0.000427
      f-2     :     0.000355
      f+3     :     0.000654
      f-3     :     0.000677

  4 P s       :     5.722040  s :     5.722040
      pz      :     3.390307  p :     8.945401
      px      :     2.726683
      py      :     2.828411
      dz2     :     0.024316  d :     0.228239
      dxz     :     0.036905
      dyz     :     0.046244
      dx2y2   :     0.051245
      dxy     :     0.069529
      f0      :     0.002558  f :     0.023604
      f+1     :     0.002214
      f-1     :     0.002923
      f+2     :     0.003847
      f-2     :     0.003882
      f+3     :     0.003964
      f-3     :     0.004216

  5 C s       :     3.281463  s :     3.281463
      pz      :     0.848860  p :     2.673453
      px      :     0.878570
      py      :     0.946024
      dz2     :     0.019430  d :     0.075454
      dxz     :     0.017664
      dyz     :     0.011609
      dx2y2   :     0.011693
      dxy     :     0.015057
      f0      :     0.001119  f :     0.006868
      f+1     :     0.001274
      f-1     :     0.000777
      f+2     :     0.001132
      f-2     :     0.001180
      f+3     :     0.000685
      f-3     :     0.000700

  6 C s       :     3.195182  s :     3.195182
      pz      :     0.984740  p :     2.849745
      px      :     0.911491
      py      :     0.953514
      dz2     :     0.011368  d :     0.064500
      dxz     :     0.016842
      dyz     :     0.008504
      dx2y2   :     0.009442
      dxy     :     0.018344
      f0      :     0.000533  f :     0.006553
      f+1     :     0.001228
      f-1     :     0.000667
      f+2     :     0.000969
      f-2     :     0.000947
      f+3     :     0.001167
      f-3     :     0.001044

  7 C s       :     3.226962  s :     3.226962
      pz      :     0.941957  p :     2.859669
      px      :     0.965163
      py      :     0.952548
      dz2     :     0.013833  d :     0.060897
      dxz     :     0.015872
      dyz     :     0.008138
      dx2y2   :     0.012541
      dxy     :     0.010513
      f0      :     0.001085  f :     0.006283
      f+1     :     0.000870
      f-1     :     0.000743
      f+2     :     0.001177
      f-2     :     0.000762
      f+3     :     0.000914
      f-3     :     0.000732

  8 C s       :     3.223244  s :     3.223244
      pz      :     0.905093  p :     2.841270
      px      :     0.983728
      py      :     0.952449
      dz2     :     0.017079  d :     0.061352
      dxz     :     0.012651
      dyz     :     0.012183
      dx2y2   :     0.009666
      dxy     :     0.009773
      f0      :     0.001077  f :     0.006321
      f+1     :     0.001166
      f-1     :     0.000698
      f+2     :     0.001027
      f-2     :     0.001098
      f+3     :     0.000557
      f-3     :     0.000698

  9 C s       :     3.228199  s :     3.228199
      pz      :     0.995877  p :     2.866472
      px      :     0.898235
      py      :     0.972360
      dz2     :     0.010380  d :     0.061082
      dxz     :     0.015359
      dyz     :     0.007914
      dx2y2   :     0.009313
      dxy     :     0.018117
      f0      :     0.000535  f :     0.006269
      f+1     :     0.001092
      f-1     :     0.000735
      f+2     :     0.000979
      f-2     :     0.000942
      f+3     :     0.001062
      f-3     :     0.000925

 10 C s       :     3.213789  s :     3.213789
      pz      :     0.890795  p :     2.942861
      px      :     1.108344
      py      :     0.943722
      dz2     :     0.013241  d :     0.068320
      dxz     :     0.020856
      dyz     :     0.009448
      dx2y2   :     0.011871
      dxy     :     0.012904
      f0      :     0.001054  f :     0.006523
      f+1     :     0.000911
      f-1     :     0.000722
      f+2     :     0.001200
      f-2     :     0.000896
      f+3     :     0.000983
      f-3     :     0.000757

 11 C s       :     3.084217  s :     3.084217
      pz      :     0.913553  p :     2.855872
      px      :     0.960806
      py      :     0.981514
      dz2     :     0.025624  d :     0.112857
      dxz     :     0.023217
      dyz     :     0.023642
      dx2y2   :     0.015185
      dxy     :     0.025188
      f0      :     0.001014  f :     0.006579
      f+1     :     0.001390
      f-1     :     0.001064
      f+2     :     0.000460
      f-2     :     0.001024
      f+3     :     0.000670
      f-3     :     0.000957

 12 C s       :     3.354298  s :     3.354298
      pz      :     0.914258  p :     3.055262
      px      :     1.060154
      py      :     1.080851
      dz2     :     0.010432  d :     0.057662
      dxz     :     0.016421
      dyz     :     0.012555
      dx2y2   :     0.002089
      dxy     :     0.016165
      f0      :     0.000781  f :     0.003245
      f+1     :     0.000726
      f-1     :     0.000657
      f+2     :     0.000215
      f-2     :     0.000363
      f+3     :     0.000398
      f-3     :     0.000106

 13 C s       :     3.337123  s :     3.337123
      pz      :     1.023019  p :     3.038750
      px      :     0.949098
      py      :     1.066633
      dz2     :     0.021179  d :     0.057042
      dxz     :     0.005949
      dyz     :     0.003957
      dx2y2   :     0.004904
      dxy     :     0.021054
      f0      :     0.000497  f :     0.003288
      f+1     :     0.000823
      f-1     :     0.000175
      f+2     :     0.000312
      f-2     :     0.000457
      f+3     :     0.000639
      f-3     :     0.000384

 14 C s       :     3.344621  s :     3.344621
      pz      :     1.060836  p :     3.053843
      px      :     1.051295
      py      :     0.941712
      dz2     :     0.013732  d :     0.056811
      dxz     :     0.011105
      dyz     :     0.005896
      dx2y2   :     0.009360
      dxy     :     0.016717
      f0      :     0.000367  f :     0.003319
      f+1     :     0.000487
      f-1     :     0.000497
      f+2     :     0.000294
      f-2     :     0.000414
      f+3     :     0.000498
      f-3     :     0.000761

 15 H s       :     0.803969  s :     0.803969
      pz      :     0.003684  p :     0.019153
      px      :     0.011079
      py      :     0.004390

 16 H s       :     0.819393  s :     0.819393
      pz      :     0.004896  p :     0.019168
      px      :     0.006506
      py      :     0.007766

 17 H s       :     0.832508  s :     0.832508
      pz      :     0.005672  p :     0.018171
      px      :     0.003646
      py      :     0.008853

 18 H s       :     0.835959  s :     0.835959
      pz      :     0.005380  p :     0.018228
      px      :     0.003465
      py      :     0.009382

 19 H s       :     0.810411  s :     0.810411
      pz      :     0.003503  p :     0.018641
      px      :     0.010916
      py      :     0.004223

 20 H s       :     0.818230  s :     0.818230
      pz      :     0.011110  p :     0.018528
      px      :     0.003605
      py      :     0.003812

 21 H s       :     0.828812  s :     0.828812
      pz      :     0.004913  p :     0.018270
      px      :     0.003532
      py      :     0.009825

 22 H s       :     0.805542  s :     0.805542
      pz      :     0.010900  p :     0.018383
      px      :     0.003962
      py      :     0.003520

 23 H s       :     0.837238  s :     0.837238
      pz      :     0.004770  p :     0.018899
      px      :     0.007648
      py      :     0.006481

 24 H s       :     0.819738  s :     0.819738
      pz      :     0.011028  p :     0.020007
      px      :     0.003192
      py      :     0.005788

 25 H s       :     0.835287  s :     0.835287
      pz      :     0.006999  p :     0.019652
      px      :     0.008776
      py      :     0.003877

 26 H s       :     0.835274  s :     0.835274
      pz      :     0.003528  p :     0.019616
      px      :     0.011574
      py      :     0.004515

 27 H s       :     0.835765  s :     0.835765
      pz      :     0.010749  p :     0.019633
      px      :     0.002942
      py      :     0.005942

 28 H s       :     0.804311  s :     0.804311
      pz      :     0.007240  p :     0.020237
      px      :     0.009196
      py      :     0.003801

 29 H s       :     0.825480  s :     0.825480
      pz      :     0.006901  p :     0.018941
      px      :     0.008126
      py      :     0.003914

 30 H s       :     0.826150  s :     0.826150
      pz      :     0.003513  p :     0.018247
      px      :     0.006744
      py      :     0.007990

 31 H s       :     0.834360  s :     0.834360
      pz      :     0.004713  p :     0.019050
      px      :     0.005361
      py      :     0.008976

 32 H s       :     0.815160  s :     0.815160
      pz      :     0.011198  p :     0.018671
      px      :     0.003876
      py      :     0.003597

 33 H s       :     0.836932  s :     0.836932
      pz      :     0.003458  p :     0.018233
      px      :     0.007167
      py      :     0.007608

 34 H s       :     0.822853  s :     0.822853
      pz      :     0.004092  p :     0.018875
      px      :     0.005308
      py      :     0.009476

 35 H s       :     0.808717  s :     0.808717
      pz      :     0.006067  p :     0.019052
      px      :     0.008813
      py      :     0.004173

 36 H s       :     0.836080  s :     0.836080
      pz      :     0.003523  p :     0.018281
      px      :     0.006744
      py      :     0.008014

 37 H s       :     0.816692  s :     0.816692
      pz      :     0.010430  p :     0.018489
      px      :     0.004534
      py      :     0.003525



                     *******************************
                     * LOEWDIN POPULATION ANALYSIS *
                     *******************************

----------------------
LOEWDIN ATOMIC CHARGES
----------------------
   0 C :   -0.295361
   1 C :   -0.451649
   2 C :   -0.302333
   3 C :   -0.301363
   4 P :    0.699752
   5 C :   -0.278632
   6 C :   -0.148035
   7 C :   -0.144504
   8 C :   -0.140822
   9 C :   -0.146444
  10 C :   -0.150725
  11 C :   -0.451647
  12 C :   -0.298369
  13 C :   -0.306081
  14 C :   -0.295367
  15 H :    0.132387
  16 H :    0.123293
  17 H :    0.128302
  18 H :    0.126141
  19 H :    0.129671
  20 H :    0.126821
  21 H :    0.128375
  22 H :    0.128575
  23 H :    0.119580
  24 H :    0.149297
  25 H :    0.147376
  26 H :    0.146936
  27 H :    0.147151
  28 H :    0.145764
  29 H :    0.119060
  30 H :    0.129590
  31 H :    0.120734
  32 H :    0.127625
  33 H :    0.125472
  34 H :    0.122905
  35 H :    0.129188
  36 H :    0.126786
  37 H :    0.130551

-------------------------------
LOEWDIN REDUCED ORBITAL CHARGES
-------------------------------
  0 C s       :     2.837543  s :     2.837543
      pz      :     1.025553  p :     3.164345
      px      :     1.069489
      py      :     1.069303
      dz2     :     0.058920  d :     0.269265
      dxz     :     0.056515
      dyz     :     0.088577
      dx2y2   :     0.034804
      dxy     :     0.030449
      f0      :     0.005276  f :     0.024208
      f+1     :     0.005807
      f-1     :     0.004222
      f+2     :     0.002963
      f-2     :     0.002984
      f+3     :     0.001394
      f-3     :     0.001561

  1 C s       :     2.755840  s :     2.755840
      pz      :     1.038050  p :     3.059991
      px      :     1.009719
      py      :     1.012222
      dz2     :     0.129062  d :     0.579953
      dxz     :     0.105215
      dyz     :     0.132104
      dx2y2   :     0.112889
      dxy     :     0.100683
      f0      :     0.008286  f :     0.055865
      f+1     :     0.009439
      f-1     :     0.009416
      f+2     :     0.006521
      f-2     :     0.006286
      f+3     :     0.008467
      f-3     :     0.007450

  2 C s       :     2.843508  s :     2.843508
      pz      :     1.068081  p :     3.164144
      px      :     1.051134
      py      :     1.044928
      dz2     :     0.067153  d :     0.270584
      dxz     :     0.018680
      dyz     :     0.056866
      dx2y2   :     0.087996
      dxy     :     0.039890
      f0      :     0.002732  f :     0.024097
      f+1     :     0.003478
      f-1     :     0.002163
      f+2     :     0.003955
      f-2     :     0.003660
      f+3     :     0.003332
      f-3     :     0.004777

  3 C s       :     2.841107  s :     2.841107
      pz      :     1.072043  p :     3.165319
      px      :     1.027956
      py      :     1.065320
      dz2     :     0.051591  d :     0.270727
      dxz     :     0.057164
      dyz     :     0.031636
      dx2y2   :     0.059932
      dxy     :     0.070404
      f0      :     0.004091  f :     0.024210
      f+1     :     0.002577
      f-1     :     0.000635
      f+2     :     0.004170
      f-2     :     0.003699
      f+3     :     0.004559
      f-3     :     0.004479

  4 P s       :     4.959036  s :     4.959036
      pz      :     3.288518  p :     8.792863
      px      :     2.730787
      py      :     2.773558
      dz2     :     0.075193  d :     0.464897
      dxz     :     0.066276
      dyz     :     0.082252
      dx2y2   :     0.110346
      dxy     :     0.130831
      f0      :     0.006985  f :     0.083451
      f+1     :     0.007359
      f-1     :     0.009856
      f+2     :     0.013259
      f-2     :     0.014282
      f+3     :     0.015113
      f-3     :     0.016596

  5 C s       :     2.781670  s :     2.781670
      pz      :     1.040907  p :     3.000047
      px      :     1.043651
      py      :     0.915488
      dz2     :     0.109946  d :     0.452070
      dxz     :     0.138216
      dyz     :     0.070440
      dx2y2   :     0.065673
      dxy     :     0.067794
      f0      :     0.006847  f :     0.044845
      f+1     :     0.010705
      f-1     :     0.004978
      f+2     :     0.006173
      f-2     :     0.008182
      f+3     :     0.004249
      f-3     :     0.003712

  6 C s       :     2.780353  s :     2.780353
      pz      :     0.975177  p :     2.941960
      px      :     1.064881
      py      :     0.901902
      dz2     :     0.081419  d :     0.385343
      dxz     :     0.100282
      dyz     :     0.042700
      dx2y2   :     0.081858
      dxy     :     0.079085
      f0      :     0.004125  f :     0.040379
      f+1     :     0.009464
      f-1     :     0.002759
      f+2     :     0.005468
      f-2     :     0.006905
      f+3     :     0.007089
      f-3     :     0.004570

  7 C s       :     2.778367  s :     2.778367
      pz      :     1.003670  p :     2.951341
      px      :     1.019970
      py      :     0.927700
      dz2     :     0.070367  d :     0.374332
      dxz     :     0.136196
      dyz     :     0.046866
      dx2y2   :     0.062406
      dxy     :     0.058496
      f0      :     0.007323  f :     0.040465
      f+1     :     0.007263
      f-1     :     0.005202
      f+2     :     0.004958
      f-2     :     0.005633
      f+3     :     0.005497
      f-3     :     0.004589

  8 C s       :     2.778874  s :     2.778874
      pz      :     1.027508  p :     2.945703
      px      :     0.999646
      py      :     0.918549
      dz2     :     0.106500  d :     0.375562
      dxz     :     0.099626
      dyz     :     0.063073
      dx2y2   :     0.055939
      dxy     :     0.050424
      f0      :     0.006194  f :     0.040684
      f+1     :     0.009559
      f-1     :     0.004989
      f+2     :     0.005541
      f-2     :     0.007402
      f+3     :     0.003615
      f-3     :     0.003384

  9 C s       :     2.778176  s :     2.778176
      pz      :     0.975300  p :     2.951519
      px      :     1.060775
      py      :     0.915444
      dz2     :     0.077035  d :     0.376217
      dxz     :     0.098919
      dyz     :     0.043122
      dx2y2   :     0.078704
      dxy     :     0.078436
      f0      :     0.004172  f :     0.040532
      f+1     :     0.009337
      f-1     :     0.002943
      f+2     :     0.005400
      f-2     :     0.006977
      f+3     :     0.007144
      f-3     :     0.004559

 10 C s       :     2.778607  s :     2.778607
      pz      :     0.995924  p :     2.945572
      px      :     1.024601
      py      :     0.925048
      dz2     :     0.070927  d :     0.386212
      dxz     :     0.141887
      dyz     :     0.047908
      dx2y2   :     0.063162
      dxy     :     0.062328
      f0      :     0.007284  f :     0.040334
      f+1     :     0.007242
      f-1     :     0.005036
      f+2     :     0.004900
      f-2     :     0.005729
      f+3     :     0.005489
      f-3     :     0.004653

 11 C s       :     2.756338  s :     2.756338
      pz      :     1.026728  p :     3.064606
      px      :     1.016244
      py      :     1.021634
      dz2     :     0.130683  d :     0.574973
      dxz     :     0.124779
      dyz     :     0.103875
      dx2y2   :     0.078992
      dxy     :     0.136643
      f0      :     0.007314  f :     0.055730
      f+1     :     0.009899
      f-1     :     0.008847
      f+2     :     0.007890
      f-2     :     0.008917
      f+3     :     0.005745
      f-3     :     0.007118

 12 C s       :     2.838535  s :     2.838535
      pz      :     1.030051  p :     3.162804
      px      :     1.064520
      py      :     1.068232
      dz2     :     0.061896  d :     0.272823
      dxz     :     0.081062
      dyz     :     0.057403
      dx2y2   :     0.012746
      dxy     :     0.059716
      f0      :     0.005134  f :     0.024207
      f+1     :     0.004149
      f-1     :     0.005654
      f+2     :     0.003911
      f-2     :     0.002049
      f+3     :     0.002491
      f-3     :     0.000819

 13 C s       :     2.844179  s :     2.844179
      pz      :     1.057447  p :     3.167106
      px      :     1.039588
      py      :     1.070071
      dz2     :     0.087942  d :     0.270809
      dxz     :     0.041147
      dyz     :     0.017373
      dx2y2   :     0.030465
      dxy     :     0.093882
      f0      :     0.002513  f :     0.023987
      f+1     :     0.005130
      f-1     :     0.001935
      f+2     :     0.004031
      f-2     :     0.003843
      f+3     :     0.004209
      f-3     :     0.002327

 14 C s       :     2.840724  s :     2.840724
      pz      :     1.067582  p :     3.160664
      px      :     1.061967
      py      :     1.031115
      dz2     :     0.058747  d :     0.269803
      dxz     :     0.047146
      dyz     :     0.035692
      dx2y2   :     0.046816
      dxy     :     0.081403
      f0      :     0.002386  f :     0.024177
      f+1     :     0.002187
      f-1     :     0.004245
      f+2     :     0.003985
      f-2     :     0.002718
      f+3     :     0.003334
      f-3     :     0.005322

 15 H s       :     0.807859  s :     0.807859
      pz      :     0.011824  p :     0.059754
      px      :     0.033529
      py      :     0.014401

 16 H s       :     0.816979  s :     0.816979
      pz      :     0.015140  p :     0.059728
      px      :     0.021034
      py      :     0.023554

 17 H s       :     0.814119  s :     0.814119
      pz      :     0.016921  p :     0.057579
      px      :     0.012721
      py      :     0.027937

 18 H s       :     0.816162  s :     0.816162
      pz      :     0.017998  p :     0.057697
      px      :     0.012064
      py      :     0.027634

 19 H s       :     0.811284  s :     0.811284
      pz      :     0.012280  p :     0.059045
      px      :     0.032453
      py      :     0.014312

 20 H s       :     0.814739  s :     0.814739
      pz      :     0.033452  p :     0.058439
      px      :     0.012574
      py      :     0.012413

 21 H s       :     0.813918  s :     0.813918
      pz      :     0.016401  p :     0.057707
      px      :     0.011654
      py      :     0.029652

 22 H s       :     0.813214  s :     0.813214
      pz      :     0.033645  p :     0.058210
      px      :     0.012320
      py      :     0.012245

 23 H s       :     0.821851  s :     0.821851
      pz      :     0.016066  p :     0.058569
      px      :     0.021678
      py      :     0.020825

 24 H s       :     0.794153  s :     0.794153
      pz      :     0.029255  p :     0.056550
      px      :     0.010444
      py      :     0.016851

 25 H s       :     0.796832  s :     0.796832
      pz      :     0.019739  p :     0.055793
      px      :     0.023832
      py      :     0.012221

 26 H s       :     0.797306  s :     0.797306
      pz      :     0.011752  p :     0.055758
      px      :     0.030308
      py      :     0.013698

 27 H s       :     0.797078  s :     0.797078
      pz      :     0.028313  p :     0.055771
      px      :     0.010479
      py      :     0.016978

 28 H s       :     0.796473  s :     0.796473
      pz      :     0.020240  p :     0.057763
      px      :     0.025073
      py      :     0.012450

 29 H s       :     0.821929  s :     0.821929
      pz      :     0.019718  p :     0.059011
      px      :     0.025943
      py      :     0.013350

 30 H s       :     0.812782  s :     0.812782
      pz      :     0.011603  p :     0.057628
      px      :     0.021191
      py      :     0.024835

 31 H s       :     0.820625  s :     0.820625
      pz      :     0.014132  p :     0.058641
      px      :     0.017089
      py      :     0.027419

 32 H s       :     0.813820  s :     0.813820
      pz      :     0.033168  p :     0.058555
      px      :     0.012986
      py      :     0.012401

 33 H s       :     0.816879  s :     0.816879
      pz      :     0.012033  p :     0.057649
      px      :     0.021162
      py      :     0.024454

 34 H s       :     0.817868  s :     0.817868
      pz      :     0.014143  p :     0.059227
      px      :     0.016633
      py      :     0.028451

 35 H s       :     0.811148  s :     0.811148
      pz      :     0.020030  p :     0.059664
      px      :     0.026269
      py      :     0.013364

 36 H s       :     0.815535  s :     0.815535
      pz      :     0.012166  p :     0.057679
      px      :     0.022316
      py      :     0.023197

 37 H s       :     0.811177  s :     0.811177
      pz      :     0.031810  p :     0.058272
      px      :     0.014771
      py      :     0.011692



                      *****************************
                      * MAYER POPULATION ANALYSIS *
                      *****************************

  NA   - Mulliken gross atomic population
  ZA   - Total nuclear charge
  QA   - Mulliken gross atomic charge
  VA   - Mayer's total valence
  BVA  - Mayer's bonded valence
  FA   - Mayer's free valence

  ATOM       NA         ZA         QA         VA         BVA        FA
  0 C      6.4809     6.0000    -0.4809     3.7304     3.7304     0.0000
  1 C      6.0069     6.0000    -0.0069     3.7781     3.7781     0.0000
  2 C      6.4668     6.0000    -0.4668     3.7536     3.7536     0.0000
  3 C      6.4894     6.0000    -0.4894     3.7352     3.7352     0.0000
  4 P     14.9193    15.0000     0.0807     3.0016     3.0016    -0.0000
  5 C      6.0372     6.0000    -0.0372     3.6428     3.6428     0.0000
  6 C      6.1160     6.0000    -0.1160     3.8748     3.8748    -0.0000
  7 C      6.1538     6.0000    -0.1538     3.9667     3.9667    -0.0000
  8 C      6.1322     6.0000    -0.1322     3.9287     3.9287     0.0000
  9 C      6.1620     6.0000    -0.1620     4.0372     4.0372    -0.0000
 10 C      6.2315     6.0000    -0.2315     3.8335     3.8335    -0.0000
 11 C      6.0595     6.0000    -0.0595     3.8135     3.8135    -0.0000
 12 C      6.4705     6.0000    -0.4705     3.7153     3.7153    -0.0000
 13 C      6.4362     6.0000    -0.4362     3.7462     3.7462     0.0000
 14 C      6.4586     6.0000    -0.4586     3.7536     3.7536     0.0000
 15 H      0.8231     1.0000     0.1769     0.9436     0.9436     0.0000
 16 H      0.8386     1.0000     0.1614     0.9480     0.9480     0.0000
 17 H      0.8507     1.0000     0.1493     0.9663     0.9663     0.0000
 18 H      0.8542     1.0000     0.1458     0.9647     0.9647     0.0000
 19 H      0.8291     1.0000     0.1709     0.9500     0.9500    -0.0000
 20 H      0.8368     1.0000     0.1632     0.9599     0.9599     0.0000
 21 H      0.8471     1.0000     0.1529     0.9675     0.9675     0.0000
 22 H      0.8239     1.0000     0.1761     0.9517     0.9517     0.0000
 23 H      0.8561     1.0000     0.1439     0.9551     0.9551     0.0000
 24 H      0.8397     1.0000     0.1603     0.9788     0.9788     0.0000
 25 H      0.8549     1.0000     0.1451     0.9651     0.9651    -0.0000
 26 H      0.8549     1.0000     0.1451     0.9637     0.9637     0.0000
 27 H      0.8554     1.0000     0.1446     0.9652     0.9652    -0.0000
 28 H      0.8245     1.0000     0.1755     0.9364     0.9364    -0.0000
 29 H      0.8444     1.0000     0.1556     0.9556     0.9556     0.0000
 30 H      0.8444     1.0000     0.1556     0.9681     0.9681     0.0000
 31 H      0.8534     1.0000     0.1466     0.9544     0.9544    -0.0000
 32 H      0.8338     1.0000     0.1662     0.9618     0.9618    -0.0000
 33 H      0.8552     1.0000     0.1448     0.9635     0.9635     0.0000
 34 H      0.8417     1.0000     0.1583     0.9501     0.9501    -0.0000
 35 H      0.8278     1.0000     0.1722     0.9477     0.9477     0.0000
 36 H      0.8544     1.0000     0.1456     0.9642     0.9642     0.0000
 37 H      0.8352     1.0000     0.1648     0.9582     0.9582     0.0000

  Mayer bond orders larger than 0.100000
B(  0-C ,  1-C ) :   0.9417 B(  0-C , 15-H ) :   0.9608 B(  0-C , 16-H ) :   0.9683 
B(  0-C , 17-H ) :   0.9560 B(  1-C ,  2-C ) :   0.9546 B(  1-C ,  3-C ) :   0.9227 
B(  1-C ,  4-P ) :   0.9368 B(  2-C , 18-H ) :   0.9586 B(  2-C , 19-H ) :   0.9620 
B(  2-C , 20-H ) :   0.9650 B(  3-C , 21-H ) :   0.9588 B(  3-C , 22-H ) :   0.9671 
B(  3-C , 23-H ) :   0.9669 B(  4-P ,  5-C ) :   0.9559 B(  4-P , 11-C ) :   0.9280 
B(  5-C ,  6-C ) :   1.3851 B(  5-C , 10-C ) :   1.2347 B(  6-C ,  7-C ) :   1.4519 
B(  6-C , 24-H ) :   0.9355 B(  7-C ,  8-C ) :   1.4482 B(  7-C , 25-H ) :   0.9465 
B(  8-C ,  9-C ) :   1.4318 B(  8-C , 26-H ) :   0.9475 B(  9-C , 10-C ) :   1.5059 
B(  9-C , 27-H ) :   0.9412 B( 10-C , 28-H ) :   0.9515 B( 11-C , 12-C ) :   0.9181 
B( 11-C , 13-C ) :   0.9636 B( 11-C , 14-C ) :   0.9599 B( 12-C , 29-H ) :   0.9675 
B( 12-C , 30-H ) :   0.9570 B( 12-C , 31-H ) :   0.9693 B( 13-C , 32-H ) :   0.9650 
B( 13-C , 33-H ) :   0.9607 B( 13-C , 34-H ) :   0.9599 B( 14-C , 35-H ) :   0.9641 
B( 14-C , 36-H ) :   0.9573 B( 14-C , 37-H ) :   0.9607 

-------
TIMINGS
-------

Total SCF time: 0 days 0 hours 1 min 36 sec 

Total time                  ....      96.467 sec
Sum of individual times     ....      96.474 sec  (100.0%)

SCF preparation             ....       0.268 sec  (  0.3%)
Fock matrix formation       ....      93.713 sec  ( 97.1%)
  Startup                   ....       0.090 sec  (  0.1% of F)
  Split-RI-J                ....       6.369 sec  (  6.8% of F)
  Chain of spheres X        ....      65.092 sec  ( 69.5% of F)
  XC integration            ....      21.903 sec  ( 23.4% of F)
    Basis function eval.    ....       3.146 sec  ( 14.4% of XC)
    Density eval.           ....       9.193 sec  ( 42.0% of XC)
    XC-Functional eval.     ....       0.381 sec  (  1.7% of XC)
    XC-Potential eval.      ....       8.374 sec  ( 38.2% of XC)
Diagonalization             ....       0.000 sec  (  0.0%)
Density matrix formation    ....       0.236 sec  (  0.2%)
Total Energy calculation    ....       0.082 sec  (  0.1%)
Population analysis         ....       0.144 sec  (  0.1%)
Orbital Transformation      ....       0.288 sec  (  0.3%)
Orbital Orthonormalization  ....       0.000 sec  (  0.0%)
DIIS solution               ....       1.188 sec  (  1.2%)
SOSCF solution              ....       0.555 sec  (  0.6%)
Finished LeanSCF after  96.5 sec

Maximum memory used throughout the entire LEANSCF-calculation: 88.6 MB


-------------------------------------------------------------------------------
                          DFT DISPERSION CORRECTION                            
                                                                               
                              DFTD3 V3.1  Rev 1                                
                              USING zero damping                               
-------------------------------------------------------------------------------
The M062X functional is recognized
Active option DFTDOPT                   ...         3   

molecular C6(AA) [au] = 13626.939392 


            DFT-D V3
 parameters
 s6 scaling factor         :     1.0000 
 rs6 scaling factor        :     1.6190 
 s8 scaling factor         :     0.0000 
 rs8 scaling factor        :     1.0000 
 Damping factor alpha6     :    14.0000 
 Damping factor alpha8     :    16.0000 
 ad hoc parameters k1-k3   :    16.0000     1.3333    -4.0000 

 Edisp/kcal,au: -1.552708407798  -0.002474398087 
 E6   /kcal   :  -1.552708408 
 E8   /kcal   :  -0.000000000 
 % E8         :   0.000000000 

-------------------------   ----------------
Dispersion correction           -0.002474398
-------------------------   ----------------


-------------------------   --------------------
FINAL SINGLE POINT ENERGY      -888.620512841022
-------------------------   --------------------



           ************************************************************
           *        Program running with 6 parallel MPI-processes     *
           *              working on a common directory               *
           ************************************************************

------------------------------------------------------------------------------
                              ORCA PROPERTY CALCULATIONS
------------------------------------------------------------------------------

GBWName                                 ... data/single_point_P_M06-2x/316378/316378.gbw
Number of atoms                         ...     38
Number of basis functions               ...    609
Max core memory                         ...   1024 MB

Electric properties:
Dipole moment                           ... YES
Quadrupole moment                       ...  NO
Static polarizability (Dipole/Dipole)   ...  NO
Static polarizability (Dipole/Quad.)    ...  NO
Static polarizability (Quad./Quad.)     ...  NO
Static polarizability (Velocity)        ...  NO

Atomic electric properties:
Dipole moment                           ...  NO
Quadrupole moment                       ...  NO
Static polarizability                   ...  NO

Choice of electric origin               ... Center of mass
Position of electric origin             ...     0.595107    -0.119727    -0.267550

General magnetic properties:
Magnetizability                         ...  NO

EPR properties:
g-Tensor (aka g-matrix)                 ...  NO
Zero-Field splitting spin-orbit         ...  NO
Zero-field splitting spin-spin          ...  NO
Hyperfine couplings                     ...  NO (   0 nuclei)
Quadrupole couplings                    ...  NO (   0 nuclei)
Contact density                         ...  NO (   0 nuclei)

NMR properties:
Chemical shifts                         ...  NO (   0 nuclei)
Spin-rotation constants                 ...  NO (   0 nuclei)
Spin-spin couplings                     ...  NO (   0 nuclei,    0 pairs)

Choice of magnetic origin               ... GIAO
Position of magnetic origin             ...     0.000000     0.000000     0.000000

Properties with geometric perturbations:
SCF Hessian                             ...  NO
IR spectrum                             ...  NO
VCD spectrum                            ...  NO
X-ray spectroscopy properties:
SCF XES/XAS/RIXS spectra                ...  NO


-------------
DIPOLE MOMENT
-------------

Method             : SCF
Type of density    : Electron Density
Multiplicity       :   1
Irrep              :   0
Energy             :  -888.6180384429352443 Eh
Relativity type    : 
Basis              : AO
                                X                 Y                 Z
Electronic contribution:     12.697703984      -2.818436592      -4.508451595
Nuclear contribution   :    -12.660031139       2.710215394       4.930978371
                        -----------------------------------------
Total Dipole Moment    :      0.037672845      -0.108221198       0.422526776
                        -----------------------------------------
Magnitude (a.u.)       :      0.437789844
Magnitude (Debye)      :      1.112773350



--------------------
Rotational spectrum 
--------------------
 
Rotational constants in cm-1:             0.024384             0.014368             0.011653 
Rotational constants in MHz :           731.025966           430.727731           349.348962 

Dipole components along the rotational axes: 
x,y,z [a.u.] :     0.088689    -0.024089     0.428035 
x,y,z [Debye]:     0.225430    -0.061229     1.087978 

 

Dipole moment calculation done in   0.0 sec 

Maximum memory used throughout the entire PROP-calculation: 45.6 MB

--------------------------------
SUGGESTED CITATIONS FOR THIS RUN
--------------------------------

Below you find a list of papers that are relevant to this ORCA run
We neither can nor want to force you to cite these papers, but we appreciate if you do
You receive ORCA, which is the product of decades of hard work by many enthusiastic individuals, for free
The only thing we kindly ask in return is that you cite our papers,
We deeply appreciate it, if you show your appreciation for ORCA by not just citing the generic ORCA reference.

Please note that relegating all ORCA citations to the supporting information does *not* help us.
SI sections are not indexed - citations you put there will not count into any citation statistics
But we need these citations in order to attract the funding resources that allow us to do what we are doing

Therefore, if you are a happy ORCA user, please consider citing a few of the papers listed below in the main body of your paper

In addition to the list printed below, the program has created the file data/single_point_P_M06-2x/316378/316378.bibtex that contains the list in bibtex format
You can import this file easily into all common literature databanks and citation aid programs


List of essential papers. We consider these as the minimum necessary citations

  1. Neese,F.
     Software update: the ORCA program system, version 5.0
     WIRES Comput. Molec. Sci., 2022 12(1)e1606
     doi.org/10.1002/wcms.1606

List of papers to cite with high priority. The work reported in these papers was absolutely
necessary for this run to complete.
Our perspective: the developers of density functionals and basis sets usually get cited in chemistry papers
Good! But without the algorithms to do something with them, the functionals or basis sets would not do anything.
Hence, in our opinion, the algorithm design and method developments papers are equally worthy of getting cited

  1. Neese,F.
     An improvement of the resolution of the identity approximation for the formation of the Coulomb matrix
     J. Comp. Chem., 2003 24(14)1740-1747
     doi.org/10.1002/jcc.10318
  2. Neese,F.; Wennmohs,F.; Hansen,A.; Becker,U.
     Efficient, approximate and parallel Hartree-Fock and hybrid DFT calculations. A 'chain-of-spheres' algorithm for the Hartree-Fock exchange
     Chem. Phys., 2009 356(1-3)98-109
     doi.org/10.1016/j.chemphys.2008.10.036
  3. Helmich-Paris,B.; de Souza,B.; Neese,F.; Izsák,R.
     An improved chain of spheres for exchange algorithm
     J. Chem. Phys., 2021 155 104109
     doi.org/doi: 10.1063/5.0058766.
  4. Neese,F.
     The SHARK Integral Generation and Digestion System
     J. Comp. Chem., 2022  1-16
     doi.org/10.1002/jcc.26942
  5. Grimme,S.; Antony,J.; Ehrlich,S.; Krieg,H.
     A consistent and accurate ab initio parametrization of density functional dispersion correction (DFT-D) for the 94 elements H-Pu
     J. Chem. Phys., 2010 132 154104-XXXX
     doi.org/10.1063/1.3382344

List of suggested additional citations. These are papers that are important in the 'surrounding' of 
of this run, or papers that preceded the highly important papers. If you like your results we are grateful for a citation.

  1. Izsak,R.; Neese,F.
     An overlap fitted chain of spheres exchange method
     J. Chem. Phys., 2011 135 144105
     doi.org/10.1063/1.3646921
  2. Izsak,R.; Hansen,A.; Neese,F.
     The resolution of identity and chain of spheres approximations for the LPNO-CCSD singles Fock term
     Molec. Phys., 2012 110 2413-2417
     doi.org/10.1080/00268976.2012.687466
  3. Neese,F.
     The ORCA program system
     WIRES Comput. Molec. Sci., 2012 2(1)73-78
     doi.org/10.1002/wcms.81
  4. Izsak,R.; Neese,F.; Klopper,W.
     Robust fitting techniques in the chain of spheres approximation to the Fock exchange: The role of the complementary space
     J. Chem. Phys., 2013 139 
     doi.org/10.1063/1.4819264
  5. Neese,F.
     Software update: the ORCA program system, version 4.0
     WIRES Comput. Molec. Sci., 2018 8(1)1-6
     doi.org/10.1002/wcms.1327
  6. Neese,F.; Wennmohs,F.; Becker,U.; Riplinger,C.
     The ORCA quantum chemistry program package
     J. Chem. Phys., 2020 152 Art. No. L224108
     doi.org/10.1063/5.0004608

List of optional additional citations

  1. Neese,F.
     Approximate second-order SCF convergence for spin unrestricted wavefunctions
     Chem. Phys. Lett., 2000 325(1-3)93-98
     doi.org/10.1016/s0009-2614(00)00662-x

Timings for individual modules:

Sum of individual times          ...      101.877 sec (=   1.698 min)
Startup calculation              ...        3.346 sec (=   0.056 min)   3.3 %
SCF iterations                   ...       98.239 sec (=   1.637 min)  96.4 %
Property calculations            ...        0.292 sec (=   0.005 min)   0.3 %
                             ****ORCA TERMINATED NORMALLY****
TOTAL RUN TIME: 0 days 0 hours 1 minutes 42 seconds 150 msec
