
                                 *****************
                                 * O   R   C   A *
                                 *****************

                                            #,                                       
                                            ###                                      
                                            ####                                     
                                            #####                                    
                                            ######                                   
                                           ########,                                 
                                     ,,################,,,,,                         
                               ,,#################################,,                 
                          ,,##########################################,,             
                       ,#########################################, ''#####,          
                    ,#############################################,,   '####,        
                  ,##################################################,,,,####,       
                ,###########''''           ''''###############################       
              ,#####''   ,,,,##########,,,,          '''####'''          '####       
            ,##' ,,,,###########################,,,                        '##       
           ' ,,###''''                  '''############,,,                           
         ,,##''                                '''############,,,,        ,,,,,,###''
      ,#''                                            '''#######################'''  
     '                                                          ''''####''''         
             ,#######,   #######,   ,#######,      ##                                
            ,#'     '#,  ##    ##  ,#'     '#,    #''#        ,####,   ,####,        
            ##       ##  ##   ,#'  ##            #'  '#       #'       #'  '#        
            ##       ##  #######   ##           ,######,      #####,   #    #        
            '#,     ,#'  ##    ##  '#,     ,#' ,#      #,     #,   #   #,  ,#        
             '#######'   ##     ##  '#######'  #'      '#     '####' # '####'        



                #########################################################
                #                        -***-                          #
                #          Department of theory and spectroscopy        #
                #                                                       #
                #                      Frank Neese                      #
                #                                                       #
                #     Directorship, Architecture, Infrastructure        #
                #                    SHARK, DRIVERS                     #
                #        Core code/Algorithms in most modules           #
                #                                                       #
                #        Max Planck Institute fuer Kohlenforschung      #
                #                Kaiser Wilhelm Platz 1                 #
                #                 D-45470 Muelheim/Ruhr                 #
                #                      Germany                          #
                #                                                       #
                #                  All rights reserved                  #
                #                        -***-                          #
                #########################################################


                         Program Version 6.0.0  -   RELEASE   -


 With contributions from (in alphabetic order):
   Daniel Aravena         : Magnetic Suceptibility
   Michael Atanasov       : Ab Initio Ligand Field Theory (pilot matlab implementation)
   Alexander A. Auer      : GIAO ZORA, VPT2 properties, NMR spectrum
   Ute Becker             : All parallelization in ORCA, NUMFREQ, NUMCALC
   Giovanni Bistoni       : ED, misc. LED, open-shell LED, HFLD
   Martin Brehm           : Molecular dynamics
   Dmytro Bykov           : pre 5.0 version of the SCF Hessian
   Marcos Casanova-Páez   : Triplet and SCS-CIS(D). UHF-(DLPNO)-IP/EA/STEOM-CCSD. UHF-CVS-IP/STEOM-CCSD
   Vijay G. Chilkuri      : MRCI spin determinant printing, contributions to CSF-ICE
   Pauline Colinet        : FMM embedding
   Dipayan Datta          : RHF DLPNO-CCSD density
   Achintya Kumar Dutta   : EOM-CC, STEOM-CC
   Nicolas Foglia         : Exact transition moments, OPA infrastructure, MCD improvements
   Dmitry Ganyushin       : Spin-Orbit,Spin-Spin,Magnetic field MRCI
   Miquel Garcia          : C-PCM and meta-GGA Hessian, CCSD/C-PCM, Gaussian charge scheme
   Tiago L. C. Gouveia    : GS-ROHF, GS-ROCIS
   Yang Guo               : DLPNO-NEVPT2, F12-NEVPT2, CIM, IAO-localization
   Andreas Hansen         : Spin unrestricted coupled pair/coupled cluster methods
   Ingolf Harden          : AUTO-CI MPn and infrastructure 
   Benjamin Helmich-Paris : MC-RPA, TRAH-(SCF,CASSCF), AVAS, COSX integrals, SCF dyn. polar.
   Lee Huntington         : MR-EOM, pCC
   Robert Izsak           : Overlap fitted RIJCOSX, COSX-SCS-MP3, EOM
   Riya Kayal             : Wick's Theorem for AUTO-CI, AUTO-CI UHF-CCSDT
   Emily Kempfer          : AUTO-CI, RHF CISDT and CCSDT
   Christian Kollmar      : KDIIS, OOCD, Brueckner-CCSD(T), CCSD density, CASPT2, CASPT2-K, improved NEVPT2
   Axel Koslowski         : Symmetry handling
   Simone Kossmann        : Meta GGA functionals, TD-DFT gradient, OOMP2, (MP2 Hessian; deprecated post 5.0)
   Lucas Lang             : DCDCAS
   Marvin Lechner         : AUTO-CI (C++ implementation), FIC-MRCC
   Spencer Leger          : CASSCF response
   Dagmar Lenk            : GEPOL surface, SMD, ORCA-2-JSON
   Dimitrios Liakos       : Extrapolation schemes; Compound Job, initial MDCI parallelization
   Dimitrios Manganas     : Further ROCIS development; embedding schemes. LFT, Crystal Embedding
   Dimitrios Pantazis     : SARC Basis sets
   Anastasios Papadopoulos: AUTO-CI, single reference methods and gradients
   Taras Petrenko         : pre 6.0 DFT Hessian and TD-DFT gradient, (ASA, deprecated), ECA, 1-Electron XAS/XES, NRVS
   Peter Pinski           : DLPNO-MP2, DLPNO-MP2 Gradient
   Christoph Reimann      : Effective Core Potentials
   Marius Retegan         : Local ZFS, SOC
   Christoph Riplinger    : Optimizer, TS searches, QM/MM, DLPNO-CCSD(T), (RO)-DLPNO pert. Triples
   Michael Roemelt        : Original ROCIS implementation
   Masaaki Saitow         : Open-shell DLPNO-CCSD energy and density
   Barbara Sandhoefer     : DKH picture change effects
   Kantharuban Sivalingam : CASSCF convergence/infrastructure, NEVPT2 and variants, FIC-MRCI
   Bernardo de Souza      : ESD, SOC TD-DFT
   Georgi Stoychev        : AutoAux, RI-MP2 NMR, DLPNO-MP2 response, X2C
   Van Anh Tran           : RI-MP2 g-tensors
   Willem Van den Heuvel  : Paramagnetic NMR
   Zikuan Wang            : NOTCH, Electric field optimization 
   Frank Wennmohs         : Technical directorship and infrastructure
   Hang Xu                : AUTO-CI-Response properties 


 We gratefully acknowledge several colleagues who have allowed us to
 interface, adapt or use parts of their codes:
   Stefan Grimme, W. Hujo, H. Kruse, P. Pracht,  : VdW corrections, initial TS optimization,
                  C. Bannwarth, S. Ehlert,         DFT functionals, gCP, sTDA/sTD-DF
                  L. Wittmann, M. Mueller
   Ed Valeev, F. Pavosevic, A. Kumar             : LibInt (2-el integral package), F12 methods
   Garnet Chan, S. Sharma, J. Yang, R. Olivares  : DMRG
   Ulf Ekstrom                                   : XCFun DFT Library
   Mihaly Kallay                                 : mrcc  (arbitrary order and MRCC methods)
   Frank Weinhold                                : gennbo (NPA and NBO analysis)
   Simon Mueller                                 : openCOSMO-RS
   Christopher J. Cramer and Donald G. Truhlar   : smd solvation model
   Lars Goerigk                                  : TD-DFT with DH, B97 family of functionals
   V. Asgeirsson, H. Jonsson                     : NEB implementation
   FAccTs GmbH                                   : IRC, NEB, NEB-TS, DLPNO-Multilevel, CI-OPT
                                                   MM, QMMM, 2- and 3-layer-ONIOM, Crystal-QMMM,
                                                   LR-CPCM, SF, NACMEs, symmetry and pop. for TD-DFT,
                                                   nearIR, NL-DFT gradient (VV10), updates on ESD,
                                                   ML-optimized integration grids, MBIS, APM,
                                                   GOAT, DOCKER, SOLVATOR, interface openCOSMO-RS
   S Lehtola, MJT Oliveira, MAL Marques          : LibXC Library
   Liviu Ungur et al                             : ANISO software


 Your calculation uses the libint2 library for the computation of 2-el integrals
 For citations please refer to: http://libint.valeyev.net

 Your ORCA version has been built with support for libXC version: 6.2.2
 For citations please refer to: https://libxc.gitlab.io

 This ORCA versions uses:
   CBLAS   interface :  Fast vector & matrix operations
   LAPACKE interface :  Fast linear algebra routines
   Shared memory     :  Shared parallel matrices


Your calculation utilizes the atom-pairwise dispersion correction
with the zero-damping scheme (D30)


XCFun DFT library Copyright 2009-2010 Ulf Ekstrom and contributors.
See http://admol.org/xcfun for more information.
This is free software; see the source code for copying conditions.
There is ABSOLUTELY NO WARRANTY; not even for MERCHANTABILITY or FITNESS FOR A PARTICULAR PURPOSE.
For details see the documentation.
Scientific users of this library should cite U. Ekstrom, L. Visscher, R. Bast, A. J. Thorvaldsen and K. Ruud;
J.Chem.Theor.Comp. 2010, DOI: 10.1021/ct100117s
XCFun Version 0.99 

Warning: RI is on but no J-basis has been assigned. Assigning Def2/J (nothing to worry about!)
================================================================================

----- Orbital basis set information -----
Your calculation utilizes the basis: def2-TZVP
   F. Weigend and R. Ahlrichs, Phys. Chem. Chem. Phys. 7, 3297 (2005).

----- AuxJ basis set information -----
Your calculation utilizes the auxiliary basis: def2/J
   F. Weigend, Phys. Chem. Chem. Phys. 8, 1057 (2006).

================================================================================
                                        WARNINGS
                       Please study these warnings very carefully!
================================================================================

WARNING: Functional chosen is sensitive to the integration grid.
         DEFGRID3 seems to be a minimum grid for robust results!

================================================================================
                                       INPUT FILE
================================================================================
NAME = data/single_point_P_M06-2x/70071/70071.inp
|  1> ! RIJCOSX M062X def2-TZVP D3ZERO NormalSCF
|  2> %pal
|  3> nprocs 6
|  4> end
|  5> 
|  6> * xyz 0 1
|  7>   C           4.75229837526229     -3.53309334863173     -1.13540678865001
|  8>   O           3.91454535133447     -3.86722190893532     -0.04260912107950
|  9>   C           3.03602124433902     -2.92650974499212      0.40767118405281
| 10>   C           2.23233863925785     -3.30442445695196      1.50797983470438
| 11>   C           1.31181889598446     -2.40264573668807      2.04498762833414
| 12>   C           1.14622625372686     -1.10866049970950      1.49473189131457
| 13>   C           1.95229880119420     -0.74432498313114      0.40000740167160
| 14>   C           2.89398122936524     -1.63577258548199     -0.14328563625196
| 15>   P          -0.12024949916073     -0.00312448998287      2.26555180166745
| 16>   C          -1.63723662659254     -0.50521899616483      1.33476953605827
| 17>   C          -1.62787936423079     -1.33478809563724      0.19789709412019
| 18>   C          -2.81797284101213     -1.67559627571975     -0.46863033490500
| 19>   C          -4.05074719469401     -1.17420683937397     -0.00109915064002
| 20>   C          -4.07341602354337     -0.33991237111824      1.14032511447228
| 21>   C          -2.88453636834660     -0.02278725732776      1.79976046745423
| 22>   O          -5.26034569658533     -1.43926662298368     -0.57213740102438
| 23>   C          -5.29366990248533     -2.27955497859965     -1.71247431950277
| 24>   C           0.27537543857108      1.60735449877961      1.44648022367346
| 25>   C           1.27808564237803      2.41551483288736      2.03509236773698
| 26>   C           1.64747248610059      3.63662227464260      1.46838331649185
| 27>   C           1.00359910391512      4.09886314638170      0.29735654131158
| 28>   C          -0.00800328768968      3.31313305991803     -0.29331592223704
| 29>   C          -0.35836693857837      2.07872027077129      0.28145422665813
| 30>   O           1.42176117489373      5.30676174941502     -0.17770072436128
| 31>   C           0.79941252451683      5.82161477896546     -1.34167093892912
| 32>   H           4.16493719354157     -3.29704195801755     -2.05153365844558
| 33>   H           5.41088090222328     -2.66606040688349     -0.90268333838581
| 34>   H           5.38159782266231     -4.42115020091974     -1.33074045005180
| 35>   H           2.36249681475883     -4.31238748727462      1.92852876844280
| 36>   H           0.70054642096433     -2.70549933241000      2.91075120612816
| 37>   H           1.84530195639106      0.25718167864806     -0.04375762614194
| 38>   H           3.50715852766591     -1.31279284173368     -0.99558560091269
| 39>   H          -0.67126968732890     -1.72527843971231     -0.18119168292840
| 40>   H          -2.76976243797027     -2.32982105604422     -1.34976647238273
| 41>   H          -5.04501034396352      0.03524540906191      1.49395321761087
| 42>   H          -2.91771004111461      0.61809943181880      2.69589000196803
| 43>   H          -6.35600899686890     -2.36566971495091     -2.00717022819902
| 44>   H          -4.89560952424281     -3.29549345574992     -1.49081381326155
| 45>   H          -4.71610055305106     -1.84946390794218     -2.56183858666808
| 46>   H           1.77905887362216      2.07277326400634      2.95509627101753
| 47>   H           2.42857152388519      4.26686465724879      1.91831837073091
| 48>   H          -0.52899712079719      3.64851782345030     -1.20037324153988
| 49>   H          -1.14404480184097      1.47129564097927     -0.19292615409882
| 50>   H          -0.29327971648153      5.97621709292182     -1.19387760358228
| 51>   H           0.94779932315638      5.15502197061267     -2.22124753698223
| 52>   H           1.27663444686787      6.79796741255944     -1.54619713445834
| 53> **                         ****END OF INPUT****
================================================================================

                       ****************************
                       * Single Point Calculation *
                       ****************************

---------------------------------
CARTESIAN COORDINATES (ANGSTROEM)
---------------------------------
  C      4.752298   -3.533093   -1.135407
  O      3.914545   -3.867222   -0.042609
  C      3.036021   -2.926510    0.407671
  C      2.232339   -3.304424    1.507980
  C      1.311819   -2.402646    2.044988
  C      1.146226   -1.108660    1.494732
  C      1.952299   -0.744325    0.400007
  C      2.893981   -1.635773   -0.143286
  P     -0.120249   -0.003124    2.265552
  C     -1.637237   -0.505219    1.334770
  C     -1.627879   -1.334788    0.197897
  C     -2.817973   -1.675596   -0.468630
  C     -4.050747   -1.174207   -0.001099
  C     -4.073416   -0.339912    1.140325
  C     -2.884536   -0.022787    1.799760
  O     -5.260346   -1.439267   -0.572137
  C     -5.293670   -2.279555   -1.712474
  C      0.275375    1.607354    1.446480
  C      1.278086    2.415515    2.035092
  C      1.647472    3.636622    1.468383
  C      1.003599    4.098863    0.297357
  C     -0.008003    3.313133   -0.293316
  C     -0.358367    2.078720    0.281454
  O      1.421761    5.306762   -0.177701
  C      0.799413    5.821615   -1.341671
  H      4.164937   -3.297042   -2.051534
  H      5.410881   -2.666060   -0.902683
  H      5.381598   -4.421150   -1.330740
  H      2.362497   -4.312387    1.928529
  H      0.700546   -2.705499    2.910751
  H      1.845302    0.257182   -0.043758
  H      3.507159   -1.312793   -0.995586
  H     -0.671270   -1.725278   -0.181192
  H     -2.769762   -2.329821   -1.349766
  H     -5.045010    0.035245    1.493953
  H     -2.917710    0.618099    2.695890
  H     -6.356009   -2.365670   -2.007170
  H     -4.895610   -3.295493   -1.490814
  H     -4.716101   -1.849464   -2.561839
  H      1.779059    2.072773    2.955096
  H      2.428572    4.266865    1.918318
  H     -0.528997    3.648518   -1.200373
  H     -1.144045    1.471296   -0.192926
  H     -0.293280    5.976217   -1.193878
  H      0.947799    5.155022   -2.221248
  H      1.276634    6.797967   -1.546197

----------------------------
CARTESIAN COORDINATES (A.U.)
----------------------------
  NO LB      ZA    FRAG     MASS         X           Y           Z
   0 C     6.0000    0    12.011    8.980542   -6.676579   -2.145608
   1 O     8.0000    0    15.999    7.397419   -7.307990   -0.080520
   2 C     6.0000    0    12.011    5.737249   -5.530302    0.770387
   3 C     6.0000    0    12.011    4.218509   -6.244457    2.849669
   4 C     6.0000    0    12.011    2.478978   -4.540342    3.864467
   5 C     6.0000    0    12.011    2.166054   -2.095065    2.824634
   6 C     6.0000    0    12.011    3.689310   -1.406570    0.755904
   7 C     6.0000    0    12.011    5.468832   -3.091162   -0.270771
   8 P    15.0000    0    30.974   -0.227239   -0.005904    4.281272
   9 C     6.0000    0    12.011   -3.093929   -0.954726    2.522349
  10 C     6.0000    0    12.011   -3.076246   -2.522384    0.373971
  11 C     6.0000    0    12.011   -5.325197   -3.166418   -0.885583
  12 C     6.0000    0    12.011   -7.654803   -2.218929   -0.002077
  13 C     6.0000    0    12.011   -7.697641   -0.642341    2.154902
  14 C     6.0000    0    12.011   -5.450984   -0.043062    3.401054
  15 O     8.0000    0    15.999   -9.940613   -2.719820   -1.081183
  16 C     6.0000    0    12.011  -10.003586   -4.307735   -3.236107
  17 C     6.0000    0    12.011    0.520384    3.037460    2.733451
  18 C     6.0000    0    12.011    2.415232    4.564662    3.845767
  19 C     6.0000    0    12.011    3.113272    6.872220    2.774842
  20 C     6.0000    0    12.011    1.896527    7.745729    0.561922
  21 C     6.0000    0    12.011   -0.015124    6.260914   -0.554287
  22 C     6.0000    0    12.011   -0.677215    3.928212    0.531871
  23 O     8.0000    0    15.999    2.686739   10.028326   -0.335806
  24 C     6.0000    0    12.011    1.510671   11.001258   -2.535391
  25 H     1.0000    0     1.008    7.870591   -6.230506   -3.876837
  26 H     1.0000    0     1.008   10.225083   -5.038124   -1.705824
  27 H     1.0000    0     1.008   10.169746   -8.354763   -2.514735
  28 H     1.0000    0     1.008    4.464472   -8.149231    3.644391
  29 H     1.0000    0     1.008    1.323841   -5.112653    5.500523
  30 H     1.0000    0     1.008    3.487115    0.486003   -0.082690
  31 H     1.0000    0     1.008    6.627569   -2.480819   -1.881384
  32 H     1.0000    0     1.008   -1.268516   -3.260304   -0.342403
  33 H     1.0000    0     1.008   -5.234092   -4.402724   -2.550689
  34 H     1.0000    0     1.008   -9.533688    0.066604    2.823162
  35 H     1.0000    0     1.008   -5.513673    1.168039    5.094494
  36 H     1.0000    0     1.008  -12.011116   -4.470468   -3.793002
  37 H     1.0000    0     1.008   -9.251361   -6.227580   -2.817230
  38 H     1.0000    0     1.008   -8.912138   -3.494980   -4.841173
  39 H     1.0000    0     1.008    3.361934    3.916974    5.584323
  40 H     1.0000    0     1.008    4.589335    8.063206    3.625096
  41 H     1.0000    0     1.008   -0.999660    6.894699   -2.268377
  42 H     1.0000    0     1.008   -2.161931    2.780346   -0.364578
  43 H     1.0000    0     1.008   -0.554218   11.293414   -2.256102
  44 H     1.0000    0     1.008    1.791081    9.741580   -4.197550
  45 H     1.0000    0     1.008    2.412489   12.846297   -2.921889

--------------------------------
INTERNAL COORDINATES (ANGSTROEM)
--------------------------------
 C      0   0   0     0.000000000000     0.00000000     0.00000000
 O      1   0   0     1.416925815333     0.00000000     0.00000000
 C      2   1   0     1.363633504705   118.22306635     0.00000000
 C      3   2   1     1.414002965317   116.02425650   180.60271236
 C      4   3   2     1.396043992321   120.09655113   179.44688928
 C      5   4   3     1.415839006671   121.19693475     0.99647996
 C      6   5   4     1.407449831662   118.15697782   359.00178716
 C      7   6   5     1.405920320758   121.33489969     0.30672978
 P      6   5   4     1.849414511582   117.67385163   179.02439932
 C      9   6   5     1.849244295355   100.93358283   272.94516595
 C     10   9   6     1.407391700415   124.13676812   349.87548586
 C     11  10   9     1.405962841874   121.34579723   180.25660238
 C     12  11  10     1.410570587470   119.76714835     0.39977477
 C     13  12  11     1.414005123241   119.42537086   359.59783944
 C     14  13  12     1.396015099166   120.11182120   359.69412707
 O     13  12  11     1.363623814718   124.56545579   179.88500251
 C     16  13  12     1.416885073295   118.24028716     0.23007677
 C      9   6   5     1.849605340195   100.92047193   169.45380252
 C     18   9   6     1.415985570048   117.66736176   273.85498652
 C     19  18   9     1.395961737795   121.18992202   179.14401061
 C     20  19  18     1.414052072585   120.10924182     1.01391162
 C     21  20  19     1.410533631882   119.42307143   359.71869515
 C     22  21  20     1.406019326302   119.77422351   359.58786416
 O     21  20  19     1.363656099786   116.00326687   179.44679897
 C     24  21  20     1.416763263592   118.25528717   180.60900589
 H      1   2   3     1.113553706996   111.87810471   298.53699183
 H      1   2   3     1.113389990613   111.84865925    60.62616538
 H      1   2   3     1.105811017611   106.45890938   179.59556185
 H      4   3   2     1.099905462672   118.37185863     0.16624913
 H      5   4   3     1.102234508530   119.36223947   180.76891756
 H      7   6   5     1.100632235716   119.56937303   180.20470398
 H      8   7   6     1.098506961190   119.16135314   180.22702598
 H     11  10   9     1.100587608345   119.54770478     0.15029088
 H     12  11  10     1.098514997131   119.17477844   180.30166268
 H     14  13  12     1.099905322667   118.35527160   180.43727986
 H     15  14  13     1.102217938304   119.37356091   180.77764253
 H     17  16  13     1.105814531409   106.45487779   179.71865875
 H     17  16  13     1.113425540442   111.86964865    60.75743892
 H     17  16  13     1.113545841357   111.87754588   298.65764722
 H     19  18   9     1.102203766784   119.42994534   359.39028220
 H     20  19  18     1.099892140482   121.53900203   180.26762526
 H     22  21  20     1.098485545761   121.05455867   179.70787811
 H     23  22  21     1.100586721411   119.09356673   180.44929499
 H     25  24  21     1.113427626293   111.86991567    60.66138658
 H     25  24  21     1.113561675885   111.89255992   298.55823278
 H     25  24  21     1.105819240634   106.45346364   179.62338156

---------------------------
INTERNAL COORDINATES (A.U.)
---------------------------
 C      0   0   0     0.000000000000     0.00000000     0.00000000
 O      1   0   0     2.677601743063     0.00000000     0.00000000
 C      2   1   0     2.576893870931   118.22306635     0.00000000
 C      3   2   1     2.672078357001   116.02425650   180.60271236
 C      4   3   2     2.638140816393   120.09655113   179.44688928
 C      5   4   3     2.675547972331   121.19693475     0.99647996
 C      6   5   4     2.659694729074   118.15697782   359.00178716
 C      7   6   5     2.656804372347   121.33489969     0.30672978
 P      6   5   4     3.494886934990   117.67385163   179.02439932
 C      9   6   5     3.494565272938   100.93358283   272.94516595
 C     10   9   6     2.659584876938   124.13676812   349.87548586
 C     11  10   9     2.656884725612   121.34579723   180.25660238
 C     12  11  10     2.665592102882   119.76714835     0.39977477
 C     13  12  11     2.672082434886   119.42537086   359.59783944
 C     14  13  12     2.638086216243   120.11182120   359.69412707
 O     13  12  11     2.576875559511   124.56545579   179.88500251
 C     16  13  12     2.677524751769   118.24028716     0.23007677
 C      9   6   5     3.495247548807   100.92047193   169.45380252
 C     18   9   6     2.675824936974   117.66736176   273.85498652
 C     19  18   9     2.637985377866   121.18992202   179.14401061
 C     20  19  18     2.672171156290   120.10924182     1.01391162
 C     21  20  19     2.665522266942   119.42307143   359.71869515
 C     22  21  20     2.656991465711   119.77422351   359.58786416
 O     21  20  19     2.576936569447   116.00326687   179.44679897
 C     24  21  20     2.677294564790   118.25528717   180.60900589
 H      1   2   3     2.104311541635   111.87810471   298.53699183
 H      1   2   3     2.104002162508   111.84865925    60.62616538
 H      1   2   3     2.089679979158   106.45890938   179.59556185
 H      4   3   2     2.078520097654   118.37185863     0.16624913
 H      5   4   3     2.082921356478   119.36223947   180.76891756
 H      7   6   5     2.079893499668   119.56937303   180.20470398
 H      8   7   6     2.075877312856   119.16135314   180.22702598
 H     11  10   9     2.079809166159   119.54770478     0.15029088
 H     12  11  10     2.075892498582   119.17477844   180.30166268
 H     14  13  12     2.078519833083   118.35527160   180.43727986
 H     15  14  13     2.082890043289   119.37356091   180.77764253
 H     17  16  13     2.089686619273   106.45487779   179.71865875
 H     17  16  13     2.104069341948   111.86964865    60.75743892
 H     17  16  13     2.104296677731   111.87754588   298.65764722
 H     19  18   9     2.082863262999   119.42994534   359.39028220
 H     20  19  18     2.078494922364   121.53900203   180.26762526
 H     22  21  20     2.075836843560   121.05455867   179.70787811
 H     23  22  21     2.079807490097   119.09356673   180.44929499
 H     25  24  21     2.104073283635   111.86991567    60.66138658
 H     25  24  21     2.104326600654   111.89255992   298.55823278
 H     25  24  21     2.089695518419   106.45346364   179.62338156

---------------------
BASIS SET INFORMATION
---------------------
There are 4 groups of distinct atoms

 Group   1 Type C   : 11s6p2d1f contracted to 5s3p2d1f pattern {62111/411/11/1}
 Group   2 Type O   : 11s6p2d1f contracted to 5s3p2d1f pattern {62111/411/11/1}
 Group   3 Type P   : 14s9p3d1f contracted to 5s5p2d1f pattern {73211/51111/21/1}
 Group   4 Type H   : 5s1p contracted to 3s1p pattern {311/1}

Atom   0C    basis set group =>   1
Atom   1O    basis set group =>   2
Atom   2C    basis set group =>   1
Atom   3C    basis set group =>   1
Atom   4C    basis set group =>   1
Atom   5C    basis set group =>   1
Atom   6C    basis set group =>   1
Atom   7C    basis set group =>   1
Atom   8P    basis set group =>   3
Atom   9C    basis set group =>   1
Atom  10C    basis set group =>   1
Atom  11C    basis set group =>   1
Atom  12C    basis set group =>   1
Atom  13C    basis set group =>   1
Atom  14C    basis set group =>   1
Atom  15O    basis set group =>   2
Atom  16C    basis set group =>   1
Atom  17C    basis set group =>   1
Atom  18C    basis set group =>   1
Atom  19C    basis set group =>   1
Atom  20C    basis set group =>   1
Atom  21C    basis set group =>   1
Atom  22C    basis set group =>   1
Atom  23O    basis set group =>   2
Atom  24C    basis set group =>   1
Atom  25H    basis set group =>   4
Atom  26H    basis set group =>   4
Atom  27H    basis set group =>   4
Atom  28H    basis set group =>   4
Atom  29H    basis set group =>   4
Atom  30H    basis set group =>   4
Atom  31H    basis set group =>   4
Atom  32H    basis set group =>   4
Atom  33H    basis set group =>   4
Atom  34H    basis set group =>   4
Atom  35H    basis set group =>   4
Atom  36H    basis set group =>   4
Atom  37H    basis set group =>   4
Atom  38H    basis set group =>   4
Atom  39H    basis set group =>   4
Atom  40H    basis set group =>   4
Atom  41H    basis set group =>   4
Atom  42H    basis set group =>   4
Atom  43H    basis set group =>   4
Atom  44H    basis set group =>   4
Atom  45H    basis set group =>   4
---------------------------------
AUXILIARY/J BASIS SET INFORMATION
---------------------------------
There are 4 groups of distinct atoms

 Group   1 Type C   : 12s5p4d2f1g contracted to 6s4p3d1f1g pattern {711111/2111/211/2/1}
 Group   2 Type O   : 12s5p4d2f1g contracted to 6s4p3d1f1g pattern {711111/2111/211/2/1}
 Group   3 Type P   : 14s5p5d2f1g contracted to 8s4p3d1f1g pattern {71111111/2111/311/2/1}
 Group   4 Type H   : 5s2p1d contracted to 3s1p1d pattern {311/2/1}

Atom   0C    basis set group =>   1
Atom   1O    basis set group =>   2
Atom   2C    basis set group =>   1
Atom   3C    basis set group =>   1
Atom   4C    basis set group =>   1
Atom   5C    basis set group =>   1
Atom   6C    basis set group =>   1
Atom   7C    basis set group =>   1
Atom   8P    basis set group =>   3
Atom   9C    basis set group =>   1
Atom  10C    basis set group =>   1
Atom  11C    basis set group =>   1
Atom  12C    basis set group =>   1
Atom  13C    basis set group =>   1
Atom  14C    basis set group =>   1
Atom  15O    basis set group =>   2
Atom  16C    basis set group =>   1
Atom  17C    basis set group =>   1
Atom  18C    basis set group =>   1
Atom  19C    basis set group =>   1
Atom  20C    basis set group =>   1
Atom  21C    basis set group =>   1
Atom  22C    basis set group =>   1
Atom  23O    basis set group =>   2
Atom  24C    basis set group =>   1
Atom  25H    basis set group =>   4
Atom  26H    basis set group =>   4
Atom  27H    basis set group =>   4
Atom  28H    basis set group =>   4
Atom  29H    basis set group =>   4
Atom  30H    basis set group =>   4
Atom  31H    basis set group =>   4
Atom  32H    basis set group =>   4
Atom  33H    basis set group =>   4
Atom  34H    basis set group =>   4
Atom  35H    basis set group =>   4
Atom  36H    basis set group =>   4
Atom  37H    basis set group =>   4
Atom  38H    basis set group =>   4
Atom  39H    basis set group =>   4
Atom  40H    basis set group =>   4
Atom  41H    basis set group =>   4
Atom  42H    basis set group =>   4
Atom  43H    basis set group =>   4
Atom  44H    basis set group =>   4
Atom  45H    basis set group =>   4


           ************************************************************
           *        Program running with 6 parallel MPI-processes     *
           *              working on a common directory               *
           ************************************************************
------------------------------------------------------------------------------
                             ORCA STARTUP CALCULATIONS
                           -- RI-GTO INTEGRALS CHOSEN --
------------------------------------------------------------------------------
------------------------------------------------------------------------------
                   ___                                                        
                  /   \      - P O W E R E D   B Y -                         
                 /     \                                                     
                 |  |  |   _    _      __       _____    __    __             
                 |  |  |  | |  | |    /  \     |  _  \  |  |  /  |          
                  \  \/   | |  | |   /    \    | | | |  |  | /  /          
                 / \  \   | |__| |  /  /\  \   | |_| |  |  |/  /          
                |  |  |   |  __  | /  /__\  \  |    /   |      \           
                |  |  |   | |  | | |   __   |  |    \   |  |\   \          
                \     /   | |  | | |  |  |  |  | |\  \  |  | \   \       
                 \___/    |_|  |_| |__|  |__|  |_| \__\ |__|  \__/        
                                                                              
                      - O R C A' S   B I G   F R I E N D -                    
                                      &                                       
                       - I N T E G R A L  F E E D E R -                       
                                                                              
 v1 FN, 2020, v2 2021, v3 2022-2024                                           
------------------------------------------------------------------------------


----------------------
SHARK INTEGRAL PACKAGE
----------------------

Number of atoms                             ...     46
Number of basis functions                   ...    907
Number of shells                            ...    361
Maximum angular momentum                    ...      3
Integral batch strategy                     ... SHARK/LIBINT Hybrid
RI-J (if used) integral strategy            ... SPLIT-RIJ (Revised 2003 algorithm where possible)
Printlevel                                  ...      1
Contraction scheme used                     ... SEGMENTED contraction
Prescreening option                         ... SCHWARTZ
   Thresh                                   ... 1.000e-10
   Tcut                                     ... 1.000e-11
   Tpresel                                  ... 1.000e-11 
Coulomb Range Separation                    ... NOT USED
Exchange Range Separation                   ... NOT USED
Multipole approximations                    ... NOT USED
Finite Nucleus Model                        ... NOT USED
CABS basis                                  ... NOT available
Auxiliary Coulomb fitting basis             ... AVAILABLE
   # of basis functions in Aux-J            ...   1458
   # of shells in Aux-J                     ...    482
   Maximum angular momentum in Aux-J        ...      4
Auxiliary J/K fitting basis                 ... NOT available
Auxiliary Correlation fitting basis         ... NOT available
Auxiliary 'external' fitting basis          ... NOT available

Checking pre-screening integrals            ... done (  0.0 sec) Dimension = 361
Check shell pair data                       ... done (  0.0 sec)
Shell pair information
Shell pair cut-off parameter TPreSel        ...   1.0e-11
Total number of shell pairs                 ...     65341
Shell pairs after pre-screening             ...     39831
Total number of primitive shell pairs       ...    201288
Primitive shell pairs kept                  ...     79600
          la=0 lb=0:  10375 shell pairs
          la=1 lb=0:  11780 shell pairs
          la=1 lb=1:   3377 shell pairs
          la=2 lb=0:   5487 shell pairs
          la=2 lb=1:   3164 shell pairs
          la=2 lb=2:    747 shell pairs
          la=3 lb=0:   2588 shell pairs
          la=3 lb=1:   1460 shell pairs
          la=3 lb=2:    681 shell pairs
          la=3 lb=3:    172 shell pairs

Calculating one electron integrals          ... done (  0.1 sec)
Calculating RI/J V-Matrix + Cholesky decomp.... done (  0.1 sec)
Calculating Nuclear repulsion               ... done (  0.0 sec) ENN=   2186.380165775711 Eh

Diagonalization of the overlap matrix:
Smallest eigenvalue                        ... 7.585e-06
Time for diagonalization                   ...    0.187 sec
Threshold for overlap eigenvalues          ... 1.000e-07
Number of eigenvalues below threshold      ... 0
Time for construction of square roots      ...    0.084 sec
Total time needed                          ...    0.278 sec

-------------------
DFT GRID GENERATION
-------------------

General Integration Accuracy     IntAcc      ... 4.388
Radial Grid Type                 RadialGrid  ... OptM3 with GC (2021)
Angular Grid (max. ang.)         AngularGrid ... 4 (Lebedev-302)
Angular grid pruning method      GridPruning ... 4 (adaptive)
Weight generation scheme         WeightScheme... mBecke (2022)
Basis function cutoff            BFCut       ... 1.0000e-10
Integration weight cutoff        WCut        ... 1.0000e-14
Partially contracted basis set               ... off
Rotationally invariant grid construction     ... off
Angular grids for H and He will be reduced by one unit

Total number of grid points                  ...   217908
Total number of batches                      ...     3426
Average number of points per batch           ...       63
Average number of grid points per atom       ...     4737

--------------------
COSX GRID GENERATION
--------------------

GRIDX 1
-------
General Integration Accuracy     IntAcc      ... 3.816
Radial Grid Type                 RadialGrid  ... OptM3 with GC (2021)
Angular Grid (max. ang.)         AngularGrid ... 1 (Lebedev-50)
Angular grid pruning method      GridPruning ... 4 (adaptive)
Weight generation scheme         WeightScheme... mBecke (2022)
Basis function cutoff            BFCut       ... 1.0000e-10
Integration weight cutoff        WCut        ... 1.0000e-14
Partially contracted basis set               ... on
Rotationally invariant grid construction     ... off
Angular grids for H and He will be reduced by one unit

Total number of grid points                  ...    28683
Total number of batches                      ...      246
Average number of points per batch           ...      116
Average number of grid points per atom       ...      624
UseSFitting                                  ... on

GRIDX 2
-------
General Integration Accuracy     IntAcc      ... 4.020
Radial Grid Type                 RadialGrid  ... OptM3 with GC (2021)
Angular Grid (max. ang.)         AngularGrid ... 2 (Lebedev-110)
Angular grid pruning method      GridPruning ... 4 (adaptive)
Weight generation scheme         WeightScheme... mBecke (2022)
Basis function cutoff            BFCut       ... 1.0000e-10
Integration weight cutoff        WCut        ... 1.0000e-14
Partially contracted basis set               ... on
Rotationally invariant grid construction     ... off
Angular grids for H and He will be reduced by one unit

Total number of grid points                  ...    59713
Total number of batches                      ...      488
Average number of points per batch           ...      122
Average number of grid points per atom       ...     1298
UseSFitting                                  ... on

GRIDX 3
-------
General Integration Accuracy     IntAcc      ... 4.338
Radial Grid Type                 RadialGrid  ... OptM3 with GC (2021)
Angular Grid (max. ang.)         AngularGrid ... 3 (Lebedev-194)
Angular grid pruning method      GridPruning ... 4 (adaptive)
Weight generation scheme         WeightScheme... mBecke (2022)
Basis function cutoff            BFCut       ... 1.0000e-10
Integration weight cutoff        WCut        ... 1.0000e-14
Partially contracted basis set               ... on
Rotationally invariant grid construction     ... off
Angular grids for H and He will be reduced by one unit

Total number of grid points                  ...   130898
Total number of batches                      ...     1047
Average number of points per batch           ...      125
Average number of grid points per atom       ...     2846
UseSFitting                                  ... on
Initializing property integral containers    ... done (  0.0 sec)

SHARK setup successfully completed in   5.3 seconds

Maximum memory used throughout the entire STARTUP-calculation: 90.2 MB


           ************************************************************
           *        Program running with 6 parallel MPI-processes     *
           *              working on a common directory               *
           ************************************************************
-------------------------------------------------------------------------------
                                 ORCA GUESS
                   Start orbitals & Density for SCF / CASSCF
-------------------------------------------------------------------------------

------------
SCF SETTINGS
------------
Hamiltonian:
 Density Functional     Method          .... DFT(GTOs)
 Exchange Functional    Exchange        .... M062X
 Correlation Functional Correlation     .... M062X
 Gradients option       PostSCFGGA      .... off
 Hybrid DFT is turned on
   Fraction HF Exchange ScalHFX         ....  0.540000
   Scaling of DF-GGA-X  ScalDFX         ....  0.460000
   Scaling of DF-GGA-C  ScalDFC         ....  1.000000
   Scaling of DF-LDA-C  ScalLDAC        ....  1.000000
   Perturbative correction              ....  0.000000
 RI-approximation to the Coulomb term is turned on
   Number of AuxJ basis functions       .... 1458
   RIJ-COSX (HFX calculated with COS-X)).... on


General Settings:
 Integral files         IntName         .... data/single_point_P_M06-2x/70071/70071
 Hartree-Fock type      HFTyp           .... RHF
 Total Charge           Charge          ....    0
 Multiplicity           Mult            ....    1
 Number of Electrons    NEL             ....  186
 Basis Dimension        Dim             ....  907
 Nuclear Repulsion      ENuc            ....   2186.3801657757 Eh

Convergence Acceleration:
 AO-DIIS                CNVDIIS         .... on
   Start iteration      DIISMaxIt       ....    12
   Startup error        DIISStart       ....  0.200000
   # of expansion vecs  DIISMaxEq       ....     5
   Bias factor          DIISBfac        ....   1.050
   Max. coefficient     DIISMaxC        ....  10.000
 MO-DIIS                CNVKDIIS        .... off
 Trust-Rad. Augm. Hess. CNVTRAH         .... auto
   Auto Start mean grad. ratio tolernc. ....  1.125000
   Auto Start start iteration           ....    50
   Auto Start num. interpolation iter.  ....    10
   Max. Number of Micro iterations      ....    24
   Max. Number of Macro iterations      .... Maxiter - #DIIS iter
   Number of Davidson start vectors     ....     2
   Converg. threshold    (grad. norm)   ....   5.000e-05
   Grad. Scal. Fac. for Micro threshold ....   0.100
   Minimum threshold for Micro iter.    ....   1.000e-02
   NR start threshold (gradient norm)   ....   1.000e-04
   Initial trust radius                 ....   0.400
   Minimum AH scaling param. (alpha)    ....   1.000
   Maximum AH scaling param. (alpha)    .... 1000.000
   Quad. conv. algorithm                .... NR
   White noise on init. David. guess    .... on
   Maximum white noise                  ....   0.010
   Pseudo random numbers                .... off
   Inactive MOs                         .... canonical
   Orbital update algorithm             .... Taylor
   Preconditioner                       .... Diag
   Full preconditioner red. dimension   ....   250
 SOSCF                  CNVSOSCF        .... on
   Start iteration      SOSCFMaxIt      ....   150
   Startup grad/error   SOSCFStart      ....  0.003300
   Hessian update       SOSCFHessUp     .... L-BFGS
 Level Shifting         CNVShift        .... on
   Level shift para.    LevelShift      ....    0.2500
   Turn off err/grad.   ShiftErr        ....    0.0010
 Zerner damping         CNVZerner       .... off
 Static damping         CNVDamp         .... on
   Fraction old density DampFac         ....    0.7000
   Max. Damping (<1)    DampMax         ....    0.9800
   Min. Damping (>=0)   DampMin         ....    0.0000
   Turn off err/grad.   DampErr         ....    0.1000

SCF Procedure:
 Maximum # iterations   MaxIter         ....   125
 SCF integral mode      SCFMode         .... Direct
   Integral package                     .... SHARK and LIBINT hybrid scheme
 Reset frequency        DirectResetFreq ....    20
 Integral Threshold     Thresh          ....  1.000e-10 Eh
 Primitive CutOff       TCut            ....  1.000e-11 Eh

Convergence Tolerance:
 Convergence Check Mode ConvCheckMode   .... Total+1el-Energy
 Convergence forced     ConvForced      .... 0
 Energy Change          TolE            ....  1.000e-06 Eh
 1-El. energy change                    ....  1.000e-03 Eh
 Orbital Gradient       TolG            ....  5.000e-05
 Orbital Rotation angle TolX            ....  5.000e-05
 DIIS Error             TolErr          ....  1.000e-05

------------------------------
INITIAL GUESS: MODEL POTENTIAL
------------------------------
Loading Hartree-Fock densities                     ... done
Calculating cut-offs                               ... done
Initializing the effective Hamiltonian             ... done
Setting up the integral package (SHARK)            ... done
Starting the Coulomb interaction                   ... done (   0.7 sec)
Making the grid                                    ... done (   0.4 sec)
Mapping shells                                     ... done
Starting the XC term evaluation                    ... done (   0.5 sec)
  promolecular density results
     # of electrons  =    185.992417156
     EX              =   -160.493977470
     EC              =     -6.281540787
     EX+EC           =   -166.775518257
Transforming the Hamiltonian                       ... done (   0.1 sec)
Diagonalizing the Hamiltonian                      ... done (   0.2 sec)
Back transforming the eigenvectors                 ... done (   0.1 sec)
Now organizing SCF variables                       ... done
                      ------------------
                      INITIAL GUESS DONE (   2.1 sec)
                      ------------------
             **** ENERGY FILE WAS UPDATED (data/single_point_P_M06-2x/70071/70071.en.tmp) ****
Finished Guess after   2.4 sec
Maximum memory used throughout the entire GUESS-calculation: 70.8 MB


           ************************************************************
           *        Program running with 6 parallel MPI-processes     *
           *              working on a common directory               *
           ************************************************************

-------------------------------------------------------------------------------------------
                                      ORCA LEAN-SCF
                              memory conserving SCF solver
-------------------------------------------------------------------------------------------

----------------------------------------D-I-I-S--------------------------------------------
Iteration    Energy (Eh)           Delta-E    RMSDP     MaxDP     DIISErr   Damp  Time(sec)
-------------------------------------------------------------------------------------------
               ***  Starting incremental Fock matrix formation  ***
    1    -1379.2763356585865040     0.00e+00  1.03e-03  4.08e-02  1.46e-01  0.700  21.0
    2    -1379.5001521117237644    -2.24e-01  9.02e-04  4.58e-02  7.92e-02  0.700  11.7
                               ***Turning on AO-DIIS***
    3    -1379.6117095261524810    -1.12e-01  5.72e-04  2.03e-02  4.50e-02  0.700  11.1
    4    -1379.6774408443752691    -6.57e-02  1.30e-03  5.33e-02  3.15e-02  0.000  10.7
    5    -1379.8172326379044534    -1.40e-01  1.62e-04  1.39e-02  3.41e-03  0.000  11.4
                              *** Initializing SOSCF ***
---------------------------------------S-O-S-C-F--------------------------------------
Iteration    Energy (Eh)           Delta-E    RMSDP     MaxDP     MaxGrad    Time(sec)
--------------------------------------------------------------------------------------
    6    -1379.8175404594276188    -3.08e-04  4.58e-05  4.05e-03  8.22e-04    10.0
               *** Restarting incremental Fock matrix formation ***
    7    -1379.8175617023775885    -2.12e-05  1.61e-04  6.68e-03  4.15e-04    20.9
    8    -1379.8175665607368501    -4.86e-06  6.02e-05  2.39e-03  4.06e-04    15.1
    9    -1379.8175745228304550    -7.96e-06  5.44e-05  2.34e-03  7.24e-05    14.2
   10    -1379.8175747856671478    -2.63e-07  9.10e-06  3.78e-04  2.97e-05    13.3
                 **** Energy Check signals convergence ****

               *****************************************************
               *                     SUCCESS                       *
               *           SCF CONVERGED AFTER  10 CYCLES          *
               *****************************************************

Recomputing exchange energy using gridx3       ... done (   31.585 sec)
Old exchange energy                            :    -88.286011999 Eh
New exchange energy                            :    -88.285894262 Eh
Exchange energy change after final integration :      0.000117737 Eh
Total energy after final integration           :  -1379.817457049 Eh
             **** ENERGY FILE WAS UPDATED (data/single_point_P_M06-2x/70071/70071.en.tmp) ****

----------------
TOTAL SCF ENERGY
----------------

Total Energy       :      -1379.81745704915375 Eh          -37546.74185 eV

Components:
Nuclear Repulsion  :       2186.38016577571079 Eh           59494.42895 eV
Electronic Energy  :      -3566.19774056137794 Eh          -97041.17400 eV
One Electron Energy:      -6228.74580171731668 Eh         -169492.79011 eV
Two Electron Energy:       2662.54806115593874 Eh           72451.61611 eV

Virial components:
Potential Energy   :      -2752.62758998386789 Eh          -74902.80471 eV
Kinetic Energy     :       1372.81013293471415 Eh           37356.06286 eV
Virial Ratio       :          2.00510436508759

DFT components:
N(Alpha)           :       93.000100900122 electrons
N(Beta)            :       93.000100900122 electrons
N(Total)           :      186.000201800243 electrons
E(XC)              :      -82.025950273093 Eh       

---------------
SCF CONVERGENCE
---------------

  Last Energy change         ...    2.6284e-07  Tolerance :   1.0000e-06
  Last MAX-Density change    ...    3.7818e-04  Tolerance :   1.0000e-05
  Last RMS-Density change    ...    9.1023e-06  Tolerance :   1.0000e-06
  Last DIIS Error            ...    8.2214e-04  Tolerance :   1.0000e-05
  Last Orbital Gradient      ...    2.9726e-05  Tolerance :   5.0000e-05
  Last Orbital Rotation      ...    3.6976e-05  Tolerance :   5.0000e-05


----------------
ORBITAL ENERGIES
----------------

  NO   OCC          E(Eh)            E(eV) 
   0   2.0000     -78.023933     -2123.1391 
   1   2.0000     -19.661978      -535.0296 
   2   2.0000     -19.661910      -535.0278 
   3   2.0000     -19.661805      -535.0249 
   4   2.0000     -10.610094      -288.7153 
   5   2.0000     -10.610056      -288.7143 
   6   2.0000     -10.609992      -288.7125 
   7   2.0000     -10.599100      -288.4162 
   8   2.0000     -10.599084      -288.4157 
   9   2.0000     -10.598997      -288.4134 
  10   2.0000     -10.550140      -287.0839 
  11   2.0000     -10.550136      -287.0838 
  12   2.0000     -10.550099      -287.0828 
  13   2.0000     -10.549212      -287.0587 
  14   2.0000     -10.549145      -287.0568 
  15   2.0000     -10.549127      -287.0563 
  16   2.0000     -10.546771      -286.9922 
  17   2.0000     -10.546759      -286.9919 
  18   2.0000     -10.546707      -286.9905 
  19   2.0000     -10.543739      -286.9097 
  20   2.0000     -10.543718      -286.9091 
  21   2.0000     -10.543711      -286.9090 
  22   2.0000     -10.543616      -286.9064 
  23   2.0000     -10.543614      -286.9063 
  24   2.0000     -10.543571      -286.9052 
  25   2.0000      -6.839710      -186.1180 
  26   2.0000      -4.954393      -134.8159 
  27   2.0000      -4.953958      -134.8040 
  28   2.0000      -4.953955      -134.8040 
  29   2.0000      -1.194291       -32.4983 
  30   2.0000      -1.194267       -32.4976 
  31   2.0000      -1.194181       -32.4953 
  32   2.0000      -0.957206       -26.0469 
  33   2.0000      -0.949265       -25.8308 
  34   2.0000      -0.949191       -25.8288 
  35   2.0000      -0.867798       -23.6140 
  36   2.0000      -0.849342       -23.1118 
  37   2.0000      -0.849288       -23.1103 
  38   2.0000      -0.841839       -22.9076 
  39   2.0000      -0.839383       -22.8408 
  40   2.0000      -0.839322       -22.8391 
  41   2.0000      -0.799493       -21.7553 
  42   2.0000      -0.781558       -21.2673 
  43   2.0000      -0.781477       -21.2651 
  44   2.0000      -0.712617       -19.3913 
  45   2.0000      -0.692878       -18.8542 
  46   2.0000      -0.692846       -18.8533 
  47   2.0000      -0.689272       -18.7561 
  48   2.0000      -0.665244       -18.1022 
  49   2.0000      -0.665187       -18.1007 
  50   2.0000      -0.630201       -17.1486 
  51   2.0000      -0.609617       -16.5885 
  52   2.0000      -0.609555       -16.5868 
  53   2.0000      -0.604349       -16.4452 
  54   2.0000      -0.558146       -15.1879 
  55   2.0000      -0.557960       -15.1829 
  56   2.0000      -0.557939       -15.1823 
  57   2.0000      -0.550514       -14.9802 
  58   2.0000      -0.550457       -14.9787 
  59   2.0000      -0.550382       -14.9767 
  60   2.0000      -0.533065       -14.5054 
  61   2.0000      -0.533030       -14.5045 
  62   2.0000      -0.514500       -14.0003 
  63   2.0000      -0.510875       -13.9016 
  64   2.0000      -0.510831       -13.9004 
  65   2.0000      -0.489024       -13.3070 
  66   2.0000      -0.487571       -13.2675 
  67   2.0000      -0.487491       -13.2653 
  68   2.0000      -0.484760       -13.1910 
  69   2.0000      -0.479785       -13.0556 
  70   2.0000      -0.479781       -13.0555 
  71   2.0000      -0.467803       -12.7296 
  72   2.0000      -0.447918       -12.1885 
  73   2.0000      -0.447837       -12.1863 
  74   2.0000      -0.446409       -12.1474 
  75   2.0000      -0.428843       -11.6694 
  76   2.0000      -0.428806       -11.6684 
  77   2.0000      -0.428669       -11.6647 
  78   2.0000      -0.401743       -10.9320 
  79   2.0000      -0.401689       -10.9305 
  80   2.0000      -0.395152       -10.7526 
  81   2.0000      -0.388560       -10.5733 
  82   2.0000      -0.388375       -10.5682 
  83   2.0000      -0.388317       -10.5666 
  84   2.0000      -0.375318       -10.2129 
  85   2.0000      -0.375260       -10.2114 
  86   2.0000      -0.315458        -8.5841 
  87   2.0000      -0.310291        -8.4435 
  88   2.0000      -0.307765        -8.3747 
  89   2.0000      -0.307689        -8.3727 
  90   2.0000      -0.280066        -7.6210 
  91   2.0000      -0.279854        -7.6152 
  92   2.0000      -0.249065        -6.7774 
  93   0.0000       0.002283         0.0621 
  94   0.0000       0.012560         0.3418 
  95   0.0000       0.012710         0.3459 
  96   0.0000       0.025448         0.6925 
  97   0.0000       0.025544         0.6951 
  98   0.0000       0.031387         0.8541 
  99   0.0000       0.067931         1.8485 
 100   0.0000       0.070749         1.9252 
 101   0.0000       0.070789         1.9263 
 102   0.0000       0.085164         2.3174 
 103   0.0000       0.085405         2.3240 
*Only the first 10 virtual orbitals were printed.

                    ********************************
                    * MULLIKEN POPULATION ANALYSIS *
                    ********************************

-----------------------
MULLIKEN ATOMIC CHARGES
-----------------------
   0 C :   -0.298513
   1 O :   -0.277688
   2 C :    0.300197
   3 C :   -0.205342
   4 C :   -0.120829
   5 C :   -0.122552
   6 C :   -0.155966
   7 C :   -0.260214
   8 P :    0.106892
   9 C :   -0.123222
  10 C :   -0.154840
  11 C :   -0.257931
  12 C :    0.297600
  13 C :   -0.206061
  14 C :   -0.120447
  15 O :   -0.277530
  16 C :   -0.298946
  17 C :   -0.121594
  18 C :   -0.123628
  19 C :   -0.206933
  20 C :    0.298258
  21 C :   -0.256756
  22 C :   -0.156332
  23 O :   -0.277673
  24 C :   -0.299017
  25 H :    0.148165
  26 H :    0.150949
  27 H :    0.156025
  28 H :    0.153815
  29 H :    0.154173
  30 H :    0.183400
  31 H :    0.158541
  32 H :    0.183477
  33 H :    0.159022
  34 H :    0.154305
  35 H :    0.154405
  36 H :    0.155864
  37 H :    0.150773
  38 H :    0.148699
  39 H :    0.154624
  40 H :    0.155039
  41 H :    0.158658
  42 H :    0.183827
  43 H :    0.150973
  44 H :    0.148353
  45 H :    0.155977
Sum of atomic charges:   -0.0000000

--------------------------------
MULLIKEN REDUCED ORBITAL CHARGES
--------------------------------
  0 C s       :     3.295183  s :     3.295183
      pz      :     0.838436  p :     2.896342
      px      :     0.947561
      py      :     1.110345
      dz2     :     0.034779  d :     0.099406
      dxz     :     0.016697
      dyz     :     0.015451
      dx2y2   :     0.009098
      dxy     :     0.023382
      f0      :     0.001747  f :     0.007582
      f+1     :     0.001537
      f-1     :     0.000766
      f+2     :     0.001091
      f-2     :     0.001336
      f+3     :     0.000755
      f-3     :     0.000350

  1 O s       :     3.771611  s :     3.771611
      pz      :     1.469532  p :     4.465255
      px      :     1.447359
      py      :     1.548364
      dz2     :     0.007662  d :     0.038675
      dxz     :     0.006698
      dyz     :     0.007827
      dx2y2   :     0.006297
      dxy     :     0.010191
      f0      :     0.000253  f :     0.002148
      f+1     :     0.000490
      f-1     :     0.000166
      f+2     :     0.000273
      f-2     :     0.000453
      f+3     :     0.000265
      f-3     :     0.000249

  2 C s       :     3.063359  s :     3.063359
      pz      :     0.873726  p :     2.472894
      px      :     0.801389
      py      :     0.797779
      dz2     :     0.030491  d :     0.149716
      dxz     :     0.018598
      dyz     :     0.029656
      dx2y2   :     0.042343
      dxy     :     0.028628
      f0      :     0.001280  f :     0.013833
      f+1     :     0.001644
      f-1     :     0.002224
      f+2     :     0.001884
      f-2     :     0.002003
      f+3     :     0.002566
      f-3     :     0.002232

  3 C s       :     3.237680  s :     3.237680
      pz      :     0.929515  p :     2.906677
      px      :     0.947038
      py      :     1.030124
      dz2     :     0.016200  d :     0.054414
      dxz     :     0.007635
      dyz     :     0.008472
      dx2y2   :     0.013599
      dxy     :     0.008508
      f0      :     0.000885  f :     0.006571
      f+1     :     0.001206
      f-1     :     0.000598
      f+2     :     0.001239
      f-2     :     0.001076
      f+3     :     0.000739
      f-3     :     0.000828

  4 C s       :     3.191450  s :     3.191450
      pz      :     0.988639  p :     2.855860
      px      :     0.946160
      py      :     0.921062
      dz2     :     0.008639  d :     0.066933
      dxz     :     0.010675
      dyz     :     0.015553
      dx2y2   :     0.018718
      dxy     :     0.013349
      f0      :     0.000297  f :     0.006586
      f+1     :     0.000908
      f-1     :     0.001204
      f+2     :     0.000944
      f-2     :     0.000978
      f+3     :     0.001296
      f-3     :     0.000960

  5 C s       :     3.245242  s :     3.245242
      pz      :     0.903370  p :     2.793261
      px      :     0.960113
      py      :     0.929778
      dz2     :     0.020779  d :     0.077064
      dxz     :     0.010448
      dyz     :     0.014689
      dx2y2   :     0.013880
      dxy     :     0.017268
      f0      :     0.000875  f :     0.006985
      f+1     :     0.000948
      f-1     :     0.001090
      f+2     :     0.001231
      f-2     :     0.001168
      f+3     :     0.000982
      f-3     :     0.000691

  6 C s       :     3.184806  s :     3.184806
      pz      :     0.898849  p :     2.896607
      px      :     0.950897
      py      :     1.046861
      dz2     :     0.017006  d :     0.067889
      dxz     :     0.009350
      dyz     :     0.015189
      dx2y2   :     0.018473
      dxy     :     0.007870
      f0      :     0.000919  f :     0.006664
      f+1     :     0.001075
      f-1     :     0.000623
      f+2     :     0.001275
      f-2     :     0.001131
      f+3     :     0.000745
      f-3     :     0.000897

  7 C s       :     3.213945  s :     3.213945
      pz      :     1.046885  p :     2.986969
      px      :     1.040023
      py      :     0.900061
      dz2     :     0.005384  d :     0.052937
      dxz     :     0.009620
      dyz     :     0.013791
      dx2y2   :     0.016261
      dxy     :     0.007881
      f0      :     0.000332  f :     0.006364
      f+1     :     0.000892
      f-1     :     0.001078
      f+2     :     0.000924
      f-2     :     0.001016
      f+3     :     0.001190
      f-3     :     0.000930

  8 P s       :     5.745112  s :     5.745112
      pz      :     3.375652  p :     8.859378
      px      :     2.742897
      py      :     2.740829
      dz2     :     0.025207  d :     0.262563
      dxz     :     0.054975
      dyz     :     0.051432
      dx2y2   :     0.063767
      dxy     :     0.067181
      f0      :     0.002393  f :     0.026056
      f+1     :     0.003003
      f-1     :     0.002664
      f+2     :     0.005125
      f-2     :     0.005477
      f+3     :     0.003372
      f-3     :     0.004021

  9 C s       :     3.246297  s :     3.246297
      pz      :     0.901703  p :     2.792809
      px      :     0.908455
      py      :     0.982651
      dz2     :     0.020730  d :     0.077117
      dxz     :     0.019702
      dyz     :     0.006053
      dx2y2   :     0.014007
      dxy     :     0.016624
      f0      :     0.000967  f :     0.006999
      f+1     :     0.001055
      f-1     :     0.000934
      f+2     :     0.001138
      f-2     :     0.001180
      f+3     :     0.001004
      f-3     :     0.000720

 10 C s       :     3.184424  s :     3.184424
      pz      :     0.896958  p :     2.896300
      px      :     1.057490
      py      :     0.941852
      dz2     :     0.018665  d :     0.067456
      dxz     :     0.014737
      dyz     :     0.009310
      dx2y2   :     0.010400
      dxy     :     0.014345
      f0      :     0.000931  f :     0.006660
      f+1     :     0.001064
      f-1     :     0.000780
      f+2     :     0.001068
      f-2     :     0.001311
      f+3     :     0.000659
      f-3     :     0.000848

 11 C s       :     3.210126  s :     3.210126
      pz      :     1.052972  p :     2.988626
      px      :     0.891672
      py      :     1.043982
      dz2     :     0.006312  d :     0.052816
      dxz     :     0.014603
      dyz     :     0.007406
      dx2y2   :     0.006429
      dxy     :     0.018064
      f0      :     0.000324  f :     0.006364
      f+1     :     0.001157
      f-1     :     0.000843
      f+2     :     0.001129
      f-2     :     0.000793
      f+3     :     0.001181
      f-3     :     0.000937

 12 C s       :     3.066279  s :     3.066279
      pz      :     0.855325  p :     2.472583
      px      :     0.716868
      py      :     0.900390
      dz2     :     0.033235  d :     0.149701
      dxz     :     0.036134
      dyz     :     0.011590
      dx2y2   :     0.028066
      dxy     :     0.040676
      f0      :     0.001218  f :     0.013838
      f+1     :     0.003155
      f-1     :     0.000960
      f+2     :     0.001833
      f-2     :     0.002150
      f+3     :     0.002390
      f-3     :     0.002132

 13 C s       :     3.238528  s :     3.238528
      pz      :     0.917567  p :     2.906680
      px      :     1.009515
      py      :     0.979598
      dz2     :     0.017429  d :     0.054278
      dxz     :     0.006653
      dyz     :     0.008969
      dx2y2   :     0.012285
      dxy     :     0.008942
      f0      :     0.000899  f :     0.006574
      f+1     :     0.001036
      f-1     :     0.000907
      f+2     :     0.001090
      f-2     :     0.001184
      f+3     :     0.000667
      f-3     :     0.000791

 14 C s       :     3.190630  s :     3.190630
      pz      :     0.996681  p :     2.856521
      px      :     0.905162
      py      :     0.954677
      dz2     :     0.009751  d :     0.066710
      dxz     :     0.016032
      dyz     :     0.009153
      dx2y2   :     0.010836
      dxy     :     0.020938
      f0      :     0.000326  f :     0.006586
      f+1     :     0.001324
      f-1     :     0.000786
      f+2     :     0.001055
      f-2     :     0.000870
      f+3     :     0.001259
      f-3     :     0.000967

 15 O s       :     3.771144  s :     3.771144
      pz      :     1.420090  p :     4.465525
      px      :     1.444580
      py      :     1.600856
      dz2     :     0.007785  d :     0.038713
      dxz     :     0.008539
      dyz     :     0.007050
      dx2y2   :     0.009211
      dxy     :     0.006129
      f0      :     0.000255  f :     0.002148
      f+1     :     0.000257
      f-1     :     0.000458
      f+2     :     0.000437
      f-2     :     0.000314
      f+3     :     0.000225
      f-3     :     0.000202

 16 C s       :     3.295560  s :     3.295560
      pz      :     0.817887  p :     2.896414
      px      :     1.144478
      py      :     0.934049
      dz2     :     0.032243  d :     0.099406
      dxz     :     0.020798
      dyz     :     0.015718
      dx2y2   :     0.018646
      dxy     :     0.012001
      f0      :     0.001999  f :     0.007566
      f+1     :     0.000828
      f-1     :     0.001321
      f+2     :     0.001106
      f-2     :     0.001352
      f+3     :     0.000666
      f-3     :     0.000295

 17 C s       :     3.247084  s :     3.247084
      pz      :     0.892052  p :     2.790637
      px      :     0.970190
      py      :     0.928396
      dz2     :     0.020635  d :     0.076876
      dxz     :     0.008830
      dyz     :     0.017735
      dx2y2   :     0.017721
      dxy     :     0.011956
      f0      :     0.000963  f :     0.006996
      f+1     :     0.001026
      f-1     :     0.001042
      f+2     :     0.001164
      f-2     :     0.001159
      f+3     :     0.000926
      f-3     :     0.000716

 18 C s       :     3.193163  s :     3.193163
      pz      :     0.994619  p :     2.857298
      px      :     0.943431
      py      :     0.919249
      dz2     :     0.009806  d :     0.066578
      dxz     :     0.010878
      dyz     :     0.013925
      dx2y2   :     0.018983
      dxy     :     0.012986
      f0      :     0.000272  f :     0.006589
      f+1     :     0.000959
      f-1     :     0.001206
      f+2     :     0.000848
      f-2     :     0.001055
      f+3     :     0.001216
      f-3     :     0.001033

 19 C s       :     3.239638  s :     3.239638
      pz      :     0.918589  p :     2.906348
      px      :     1.021442
      py      :     0.966318
      dz2     :     0.016317  d :     0.054365
      dxz     :     0.009627
      dyz     :     0.007149
      dx2y2   :     0.006737
      dxy     :     0.014535
      f0      :     0.000962  f :     0.006581
      f+1     :     0.000613
      f-1     :     0.001219
      f+2     :     0.001018
      f-2     :     0.001225
      f+3     :     0.000691
      f-3     :     0.000854

 20 C s       :     3.067070  s :     3.067070
      pz      :     0.868219  p :     2.471342
      px      :     0.891229
      py      :     0.711894
      dz2     :     0.030702  d :     0.149490
      dxz     :     0.016299
      dyz     :     0.032887
      dx2y2   :     0.036084
      dxy     :     0.033518
      f0      :     0.001270  f :     0.013841
      f+1     :     0.001327
      f-1     :     0.002667
      f+2     :     0.001987
      f-2     :     0.001862
      f+3     :     0.002352
      f-3     :     0.002376

 21 C s       :     3.209971  s :     3.209971
      pz      :     1.045870  p :     2.987754
      px      :     0.975677
      py      :     0.966207
      dz2     :     0.005852  d :     0.052662
      dxz     :     0.009064
      dyz     :     0.013627
      dx2y2   :     0.014554
      dxy     :     0.009565
      f0      :     0.000299  f :     0.006369
      f+1     :     0.000958
      f-1     :     0.001064
      f+2     :     0.000803
      f-2     :     0.001116
      f+3     :     0.001135
      f-3     :     0.000993

 22 C s       :     3.186607  s :     3.186607
      pz      :     0.897497  p :     2.895783
      px      :     0.991415
      py      :     1.006871
      dz2     :     0.016615  d :     0.067282
      dxz     :     0.012726
      dyz     :     0.013037
      dx2y2   :     0.009666
      dxy     :     0.015239
      f0      :     0.000993  f :     0.006660
      f+1     :     0.000582
      f-1     :     0.001153
      f+2     :     0.001144
      f-2     :     0.001195
      f+3     :     0.000682
      f-3     :     0.000911

 23 O s       :     3.771186  s :     3.771186
      pz      :     1.430846  p :     4.465653
      px      :     1.645785
      py      :     1.389022
      dz2     :     0.008400  d :     0.038686
      dxz     :     0.007696
      dyz     :     0.006988
      dx2y2   :     0.007691
      dxy     :     0.007911
      f0      :     0.000262  f :     0.002148
      f+1     :     0.000274
      f-1     :     0.000422
      f+2     :     0.000380
      f-2     :     0.000307
      f+3     :     0.000268
      f-3     :     0.000236

 24 C s       :     3.295650  s :     3.295650
      pz      :     0.807323  p :     2.896342
      px      :     1.020448
      py      :     1.068572
      dz2     :     0.033969  d :     0.099441
      dxz     :     0.015658
      dyz     :     0.020155
      dx2y2   :     0.018083
      dxy     :     0.011576
      f0      :     0.002022  f :     0.007584
      f+1     :     0.001142
      f-1     :     0.001147
      f+2     :     0.001307
      f-2     :     0.001020
      f+3     :     0.000689
      f-3     :     0.000255

 25 H s       :     0.834483  s :     0.834483
      pz      :     0.008877  p :     0.017353
      px      :     0.004896
      py      :     0.003579

 26 H s       :     0.831654  s :     0.831654
      pz      :     0.002723  p :     0.017397
      px      :     0.006145
      py      :     0.008529

 27 H s       :     0.825455  s :     0.825455
      pz      :     0.003044  p :     0.018520
      px      :     0.006329
      py      :     0.009147

 28 H s       :     0.826363  s :     0.826363
      pz      :     0.004553  p :     0.019822
      px      :     0.003411
      py      :     0.011858

 29 H s       :     0.825921  s :     0.825921
      pz      :     0.009745  p :     0.019906
      px      :     0.006569
      py      :     0.003592

 30 H s       :     0.795996  s :     0.795996
      pz      :     0.004655  p :     0.020604
      px      :     0.003455
      py      :     0.012494

 31 H s       :     0.821122  s :     0.821122
      pz      :     0.009723  p :     0.020337
      px      :     0.006880
      py      :     0.003734

 32 H s       :     0.795885  s :     0.795885
      pz      :     0.004146  p :     0.020637
      px      :     0.011793
      py      :     0.004698

 33 H s       :     0.820659  s :     0.820659
      pz      :     0.010095  p :     0.020319
      px      :     0.002699
      py      :     0.007524

 34 H s       :     0.825876  s :     0.825876
      pz      :     0.004019  p :     0.019820
      px      :     0.011115
      py      :     0.004686

 35 H s       :     0.825697  s :     0.825697
      pz      :     0.010179  p :     0.019897
      px      :     0.002749
      py      :     0.006969

 36 H s       :     0.825603  s :     0.825603
      pz      :     0.003399  p :     0.018533
      px      :     0.011986
      py      :     0.003149

 37 H s       :     0.831822  s :     0.831822
      pz      :     0.002621  p :     0.017405
      px      :     0.004271
      py      :     0.010513

 38 H s       :     0.833946  s :     0.833946
      pz      :     0.007950  p :     0.017356
      px      :     0.005481
      py      :     0.003924

 39 H s       :     0.825495  s :     0.825495
      pz      :     0.010509  p :     0.019881
      px      :     0.005321
      py      :     0.004051

 40 H s       :     0.825151  s :     0.825151
      pz      :     0.004668  p :     0.019810
      px      :     0.008653
      py      :     0.006489

 41 H s       :     0.821042  s :     0.821042
      pz      :     0.010428  p :     0.020300
      px      :     0.005776
      py      :     0.004095

 42 H s       :     0.795544  s :     0.795544
      pz      :     0.004828  p :     0.020629
      px      :     0.008953
      py      :     0.006849

 43 H s       :     0.831644  s :     0.831644
      pz      :     0.002432  p :     0.017383
      px      :     0.011714
      py      :     0.003237

 44 H s       :     0.834295  s :     0.834295
      pz      :     0.008315  p :     0.017352
      px      :     0.003158
      py      :     0.005879

 45 H s       :     0.825487  s :     0.825487
      pz      :     0.002962  p :     0.018536
      px      :     0.004786
      py      :     0.010788



                     *******************************
                     * LOEWDIN POPULATION ANALYSIS *
                     *******************************

----------------------
LOEWDIN ATOMIC CHARGES
----------------------
   0 C :   -0.339622
   1 O :    0.224396
   2 C :   -0.240463
   3 C :   -0.118895
   4 C :   -0.138676
   5 C :   -0.291104
   6 C :   -0.135971
   7 C :   -0.148066
   8 P :    0.688287
   9 C :   -0.291109
  10 C :   -0.135743
  11 C :   -0.147952
  12 C :   -0.240516
  13 C :   -0.119025
  14 C :   -0.138742
  15 O :    0.224432
  16 C :   -0.339742
  17 C :   -0.290909
  18 C :   -0.138690
  19 C :   -0.118984
  20 C :   -0.240501
  21 C :   -0.148020
  22 C :   -0.136033
  23 O :    0.224433
  24 C :   -0.339885
  25 H :    0.111786
  26 H :    0.112671
  27 H :    0.119178
  28 H :    0.153518
  29 H :    0.152093
  30 H :    0.159130
  31 H :    0.150663
  32 H :    0.159180
  33 H :    0.150619
  34 H :    0.153548
  35 H :    0.152136
  36 H :    0.119175
  37 H :    0.112619
  38 H :    0.111810
  39 H :    0.152112
  40 H :    0.153562
  41 H :    0.150568
  42 H :    0.159147
  43 H :    0.112647
  44 H :    0.111759
  45 H :    0.119178

-------------------------------
LOEWDIN REDUCED ORBITAL CHARGES
-------------------------------
  0 C s       :     2.869101  s :     2.869101
      pz      :     0.931235  p :     3.026438
      px      :     0.994800
      py      :     1.100404
      dz2     :     0.119146  d :     0.388982
      dxz     :     0.087714
      dyz     :     0.058165
      dx2y2   :     0.024770
      dxy     :     0.099186
      f0      :     0.010053  f :     0.055102
      f+1     :     0.011717
      f-1     :     0.007361
      f+2     :     0.009523
      f-2     :     0.008784
      f+3     :     0.004984
      f-3     :     0.002680

  1 O s       :     3.245740  s :     3.245740
      pz      :     1.451824  p :     4.412071
      px      :     1.429461
      py      :     1.530786
      dz2     :     0.022456  d :     0.111178
      dxz     :     0.024839
      dyz     :     0.019993
      dx2y2   :     0.018971
      dxy     :     0.024919
      f0      :     0.000917  f :     0.006615
      f+1     :     0.000944
      f-1     :     0.000915
      f+2     :     0.000799
      f-2     :     0.001199
      f+3     :     0.000965
      f-3     :     0.000876

  2 C s       :     2.722182  s :     2.722182
      pz      :     0.950532  p :     2.759117
      px      :     0.856789
      py      :     0.951795
      dz2     :     0.122025  d :     0.666335
      dxz     :     0.089928
      dyz     :     0.145997
      dx2y2   :     0.150259
      dxy     :     0.158126
      f0      :     0.009162  f :     0.092829
      f+1     :     0.009342
      f-1     :     0.016349
      f+2     :     0.011500
      f-2     :     0.013192
      f+3     :     0.018980
      f-3     :     0.014303

  3 C s       :     2.772263  s :     2.772263
      pz      :     0.977772  p :     2.951831
      px      :     0.982855
      py      :     0.991204
      dz2     :     0.072733  d :     0.354872
      dxz     :     0.068838
      dyz     :     0.071876
      dx2y2   :     0.086834
      dxy     :     0.054591
      f0      :     0.005280  f :     0.039929
      f+1     :     0.006065
      f-1     :     0.005514
      f+2     :     0.005867
      f-2     :     0.006414
      f+3     :     0.005672
      f-3     :     0.005117

  4 C s       :     2.775890  s :     2.775890
      pz      :     0.949777  p :     2.931166
      px      :     0.946601
      py      :     1.034788
      dz2     :     0.056525  d :     0.390469
      dxz     :     0.057730
      dyz     :     0.085905
      dx2y2   :     0.092865
      dxy     :     0.097444
      f0      :     0.002359  f :     0.041151
      f+1     :     0.003994
      f-1     :     0.008684
      f+2     :     0.006191
      f-2     :     0.005667
      f+3     :     0.009153
      f-3     :     0.005104

  5 C s       :     2.777498  s :     2.777498
      pz      :     1.012902  p :     3.016762
      px      :     0.978875
      py      :     1.024985
      dz2     :     0.087524  d :     0.451973
      dxz     :     0.075311
      dyz     :     0.116410
      dx2y2   :     0.074294
      dxy     :     0.098434
      f0      :     0.005331  f :     0.044872
      f+1     :     0.005620
      f-1     :     0.008005
      f+2     :     0.007693
      f-2     :     0.006272
      f+3     :     0.007146
      f-3     :     0.004805

  6 C s       :     2.775127  s :     2.775127
      pz      :     0.972516  p :     2.928352
      px      :     0.970307
      py      :     0.985528
      dz2     :     0.077496  d :     0.391412
      dxz     :     0.073463
      dyz     :     0.086778
[...]
      py      :     0.027784

 27 H s       :     0.823482  s :     0.823482
      pz      :     0.009963  p :     0.057340
      px      :     0.018761
      py      :     0.028616

 28 H s       :     0.789637  s :     0.789637
      pz      :     0.014406  p :     0.056845
      px      :     0.011433
      py      :     0.031006

 29 H s       :     0.792043  s :     0.792043
      pz      :     0.025645  p :     0.055864
      px      :     0.018526
      py      :     0.011692

 30 H s       :     0.782598  s :     0.782598
      pz      :     0.014332  p :     0.058272
      px      :     0.011432
      py      :     0.032508

 31 H s       :     0.791181  s :     0.791181
      pz      :     0.026115  p :     0.058155
      px      :     0.019494
      py      :     0.012546

 32 H s       :     0.782509  s :     0.782509
      pz      :     0.013091  p :     0.058311
      px      :     0.030973
      py      :     0.014248

 33 H s       :     0.791231  s :     0.791231
      pz      :     0.026922  p :     0.058150
      px      :     0.010094
      py      :     0.021134

 34 H s       :     0.789610  s :     0.789610
      pz      :     0.013160  p :     0.056842
      px      :     0.029191
      py      :     0.014490

 35 H s       :     0.791997  s :     0.791997
      pz      :     0.026640  p :     0.055868
      px      :     0.009642
      py      :     0.019585

 36 H s       :     0.823483  s :     0.823483
      pz      :     0.010717  p :     0.057341
      px      :     0.036057
      py      :     0.010568

 37 H s       :     0.829654  s :     0.829654
      pz      :     0.009608  p :     0.057728
      px      :     0.015222
      py      :     0.032898

 38 H s       :     0.830562  s :     0.830562
      pz      :     0.024914  p :     0.057628
      px      :     0.018876
      py      :     0.013839

 39 H s       :     0.792010  s :     0.792010
      pz      :     0.027474  p :     0.055877
      px      :     0.015803
      py      :     0.012601

 40 H s       :     0.789578  s :     0.789578
      pz      :     0.014685  p :     0.056860
      px      :     0.023685
      py      :     0.018490

 41 H s       :     0.791273  s :     0.791273
      pz      :     0.027729  p :     0.058159
      px      :     0.017287
      py      :     0.013143

 42 H s       :     0.782525  s :     0.782525
      pz      :     0.014733  p :     0.058328
      px      :     0.024179
      py      :     0.019416

 43 H s       :     0.829637  s :     0.829637
      pz      :     0.008977  p :     0.057716
      px      :     0.036892
      py      :     0.011848

 44 H s       :     0.830617  s :     0.830617
      pz      :     0.025932  p :     0.057624
      px      :     0.011480
      py      :     0.020212

 45 H s       :     0.823486  s :     0.823486
      pz      :     0.009644  p :     0.057335
      px      :     0.016052
      py      :     0.031639



                      *****************************
                      * MAYER POPULATION ANALYSIS *
                      *****************************

  NA   - Mulliken gross atomic population
  ZA   - Total nuclear charge
  QA   - Mulliken gross atomic charge
  VA   - Mayer's total valence
  BVA  - Mayer's bonded valence
  FA   - Mayer's free valence

  ATOM       NA         ZA         QA         VA         BVA        FA
  0 C      6.2985     6.0000    -0.2985     3.8617     3.8617    -0.0000
  1 O      8.2777     8.0000    -0.2777     2.0514     2.0514    -0.0000
  2 C      5.6998     6.0000     0.3002     3.8608     3.8608     0.0000
  3 C      6.2053     6.0000    -0.2053     3.9705     3.9705    -0.0000
  4 C      6.1208     6.0000    -0.1208     3.9175     3.9175     0.0000
  5 C      6.1226     6.0000    -0.1226     3.8567     3.8567     0.0000
  6 C      6.1560     6.0000    -0.1560     3.8920     3.8920     0.0000
  7 C      6.2602     6.0000    -0.2602     3.9355     3.9355     0.0000
  8 P     14.8931    15.0000     0.1069     3.1101     3.1101    -0.0000
  9 C      6.1232     6.0000    -0.1232     3.8582     3.8582    -0.0000
 10 C      6.1548     6.0000    -0.1548     3.8928     3.8928    -0.0000
 11 C      6.2579     6.0000    -0.2579     3.9364     3.9364    -0.0000
 12 C      5.7024     6.0000     0.2976     3.8643     3.8643    -0.0000
 13 C      6.2061     6.0000    -0.2061     3.9695     3.9695    -0.0000
 14 C      6.1204     6.0000    -0.1204     3.9192     3.9192    -0.0000
 15 O      8.2775     8.0000    -0.2775     2.0521     2.0521    -0.0000
 16 C      6.2989     6.0000    -0.2989     3.8616     3.8616    -0.0000
 17 C      6.1216     6.0000    -0.1216     3.8579     3.8579     0.0000
 18 C      6.1236     6.0000    -0.1236     3.9223     3.9223     0.0000
 19 C      6.2069     6.0000    -0.2069     3.9691     3.9691    -0.0000
 20 C      5.7017     6.0000     0.2983     3.8635     3.8635    -0.0000
 21 C      6.2568     6.0000    -0.2568     3.9360     3.9360    -0.0000
 22 C      6.1563     6.0000    -0.1563     3.8932     3.8932    -0.0000
 23 O      8.2777     8.0000    -0.2777     2.0523     2.0523     0.0000
 24 C      6.2990     6.0000    -0.2990     3.8618     3.8618    -0.0000
 25 H      0.8518     1.0000     0.1482     0.9452     0.9452     0.0000
 26 H      0.8491     1.0000     0.1509     0.9451     0.9451     0.0000
 27 H      0.8440     1.0000     0.1560     0.9618     0.9618     0.0000
 28 H      0.8462     1.0000     0.1538     0.9736     0.9736    -0.0000
 29 H      0.8458     1.0000     0.1542     0.9674     0.9674     0.0000
 30 H      0.8166     1.0000     0.1834     0.9496     0.9496     0.0000
 31 H      0.8415     1.0000     0.1585     0.9700     0.9700     0.0000
 32 H      0.8165     1.0000     0.1835     0.9498     0.9498     0.0000
 33 H      0.8410     1.0000     0.1590     0.9697     0.9697     0.0000
 34 H      0.8457     1.0000     0.1543     0.9735     0.9735    -0.0000
 35 H      0.8456     1.0000     0.1544     0.9676     0.9676    -0.0000
 36 H      0.8441     1.0000     0.1559     0.9619     0.9619    -0.0000
 37 H      0.8492     1.0000     0.1508     0.9450     0.9450    -0.0000
 38 H      0.8513     1.0000     0.1487     0.9451     0.9451    -0.0000
 39 H      0.8454     1.0000     0.1546     0.9675     0.9675     0.0000
 40 H      0.8450     1.0000     0.1550     0.9735     0.9735    -0.0000
 41 H      0.8413     1.0000     0.1587     0.9700     0.9700     0.0000
 42 H      0.8162     1.0000     0.1838     0.9504     0.9504     0.0000
 43 H      0.8490     1.0000     0.1510     0.9450     0.9450     0.0000
 44 H      0.8516     1.0000     0.1484     0.9452     0.9452    -0.0000
 45 H      0.8440     1.0000     0.1560     0.9617     0.9617     0.0000

  Mayer bond orders larger than 0.100000
B(  0-C ,  1-O ) :   0.9379 B(  0-C , 25-H ) :   0.9633 B(  0-C , 26-H ) :   0.9632 
B(  0-C , 27-H ) :   0.9724 B(  1-O ,  2-C ) :   1.0895 B(  2-C ,  3-C ) :   1.3809 
B(  2-C ,  7-C ) :   1.3485 B(  3-C ,  4-C ) :   1.4995 B(  3-C , 28-H ) :   0.9425 
B(  4-C ,  5-C ) :   1.3784 B(  4-C , 29-H ) :   0.9379 B(  5-C ,  6-C ) :   1.3579 
B(  5-C ,  8-P ) :   0.9414 B(  6-C ,  7-C ) :   1.4756 B(  6-C , 30-H ) :   0.9146 
B(  7-C , 31-H ) :   0.9102 B(  8-P ,  9-C ) :   0.9402 B(  8-P , 17-C ) :   0.9421 
B(  9-C , 10-C ) :   1.3586 B(  9-C , 14-C ) :   1.3791 B( 10-C , 11-C ) :   1.4774 
B( 10-C , 32-H ) :   0.9135 B( 11-C , 12-C ) :   1.3503 B( 11-C , 33-H ) :   0.9082 
B( 12-C , 13-C ) :   1.3799 B( 12-C , 15-O ) :   1.0904 B( 13-C , 14-C ) :   1.5004 
B( 13-C , 34-H ) :   0.9422 B( 14-C , 35-H ) :   0.9375 B( 15-O , 16-C ) :   0.9377 
B( 16-C , 36-H ) :   0.9725 B( 16-C , 37-H ) :   0.9631 B( 16-C , 38-H ) :   0.9633 
B( 17-C , 18-C ) :   1.3792 B( 17-C , 22-C ) :   1.3582 B( 18-C , 19-C ) :   1.5021 
B( 18-C , 39-H ) :   0.9371 B( 19-C , 20-C ) :   1.3792 B( 19-C , 40-H ) :   0.9417 
B( 20-C , 21-C ) :   1.3506 B( 20-C , 23-O ) :   1.0900 B( 21-C , 22-C ) :   1.4778 
B( 21-C , 41-H ) :   0.9081 B( 22-C , 42-H ) :   0.9137 B( 23-O , 24-C ) :   0.9378 
B( 24-C , 43-H ) :   0.9631 B( 24-C , 44-H ) :   0.9633 B( 24-C , 45-H ) :   0.9725 


-------
TIMINGS
-------

Total SCF time: 0 days 0 hours 2 min 52 sec 

Total time                  ....     172.158 sec
Sum of individual times     ....     172.315 sec  (100.1%)

SCF preparation             ....       0.398 sec  (  0.2%)
Fock matrix formation       ....     165.428 sec  ( 96.1%)
  Startup                   ....       0.201 sec  (  0.1% of F)
  Split-RI-J                ....      12.367 sec  (  7.5% of F)
  Chain of spheres X        ....     121.642 sec  ( 73.5% of F)
  XC integration            ....      30.734 sec  ( 18.6% of F)
    Basis function eval.    ....       4.464 sec  ( 14.5% of XC)
    Density eval.           ....      12.713 sec  ( 41.4% of XC)
    XC-Functional eval.     ....       0.504 sec  (  1.6% of XC)
    XC-Potential eval.      ....      11.587 sec  ( 37.7% of XC)
Diagonalization             ....       0.000 sec  (  0.0%)
Density matrix formation    ....       0.520 sec  (  0.3%)
Total Energy calculation    ....       0.167 sec  (  0.1%)
Population analysis         ....       0.305 sec  (  0.2%)
Orbital Transformation      ....       0.805 sec  (  0.5%)
Orbital Orthonormalization  ....       0.000 sec  (  0.0%)
DIIS solution               ....       3.281 sec  (  1.9%)
SOSCF solution              ....       1.411 sec  (  0.8%)
Finished LeanSCF after 172.2 sec

Maximum memory used throughout the entire LEANSCF-calculation: 136.2 MB


-------------------------------------------------------------------------------
                          DFT DISPERSION CORRECTION                            
                                                                               
                              DFTD3 V3.1  Rev 1                                
                              USING zero damping                               
-------------------------------------------------------------------------------
The M062X functional is recognized
Active option DFTDOPT                   ...         3   

molecular C6(AA) [au] = 26055.959266 


            DFT-D V3
 parameters
 s6 scaling factor         :     1.0000 
 rs6 scaling factor        :     1.6190 
 s8 scaling factor         :     0.0000 
 rs8 scaling factor        :     1.0000 
 Damping factor alpha6     :    14.0000 
 Damping factor alpha8     :    16.0000 
 ad hoc parameters k1-k3   :    16.0000     1.3333    -4.0000 

 Edisp/kcal,au: -1.851345926872  -0.002950307216 
 E6   /kcal   :  -1.851345927 
 E8   /kcal   :  -0.000000000 
 % E8         :   0.000000000 

-------------------------   ----------------
Dispersion correction           -0.002950307
-------------------------   ----------------


-------------------------   --------------------
FINAL SINGLE POINT ENERGY     -1379.820407356370
-------------------------   --------------------



           ************************************************************
           *        Program running with 6 parallel MPI-processes     *
           *              working on a common directory               *
           ************************************************************

------------------------------------------------------------------------------
                              ORCA PROPERTY CALCULATIONS
------------------------------------------------------------------------------

GBWName                                 ... data/single_point_P_M06-2x/70071/70071.gbw
Number of atoms                         ...     46
Number of basis functions               ...    907
Max core memory                         ...   1024 MB

Electric properties:
Dipole moment                           ... YES
Quadrupole moment                       ...  NO
Static polarizability (Dipole/Dipole)   ...  NO
Static polarizability (Dipole/Quad.)    ...  NO
Static polarizability (Quad./Quad.)     ...  NO
Static polarizability (Velocity)        ...  NO

Atomic electric properties:
Dipole moment                           ...  NO
Quadrupole moment                       ...  NO
Static polarizability                   ...  NO

Choice of electric origin               ... Center of mass
Position of electric origin             ...    -0.038172    -0.001405     0.972483

General magnetic properties:
Magnetizability                         ...  NO

EPR properties:
g-Tensor (aka g-matrix)                 ...  NO
Zero-Field splitting spin-orbit         ...  NO
Zero-field splitting spin-spin          ...  NO
Hyperfine couplings                     ...  NO (   0 nuclei)
Quadrupole couplings                    ...  NO (   0 nuclei)
Contact density                         ...  NO (   0 nuclei)

NMR properties:
Chemical shifts                         ...  NO (   0 nuclei)
Spin-rotation constants                 ...  NO (   0 nuclei)
Spin-spin couplings                     ...  NO (   0 nuclei,    0 pairs)

Choice of magnetic origin               ... GIAO
Position of magnetic origin             ...     0.000000     0.000000     0.000000

Properties with geometric perturbations:
SCF Hessian                             ...  NO
IR spectrum                             ...  NO
VCD spectrum                            ...  NO
X-ray spectroscopy properties:
SCF XES/XAS/RIXS spectra                ...  NO


-------------
DIPOLE MOMENT
-------------

Method             : SCF
Type of density    : Electron Density
Multiplicity       :   1
Irrep              :   0
Energy             : -1379.8174570491537452 Eh
Relativity type    : 
Basis              : AO
                                X                 Y                 Z
Electronic contribution:     -0.830469911      -0.035155663      15.010592046
Nuclear contribution   :      0.927692702       0.034192798     -16.773164620
                        -----------------------------------------
Total Dipole Moment    :      0.097222791      -0.000962864      -1.762572574
                        -----------------------------------------
Magnitude (a.u.)       :      1.765252185
Magnitude (Debye)      :      4.486914474



--------------------
Rotational spectrum 
--------------------
 
Rotational constants in cm-1:             0.005344             0.005335             0.003167 
Rotational constants in MHz :           160.221416           159.941805            94.929997 

Dipole components along the rotational axes: 
x,y,z [a.u.] :    -0.000031    -0.006203    -1.765241 
x,y,z [Debye]:    -0.000080    -0.015767    -4.486887 

 

Dipole moment calculation done in   0.1 sec 

Maximum memory used throughout the entire PROP-calculation: 75.2 MB

--------------------------------
SUGGESTED CITATIONS FOR THIS RUN
--------------------------------

Below you find a list of papers that are relevant to this ORCA run
We neither can nor want to force you to cite these papers, but we appreciate if you do
You receive ORCA, which is the product of decades of hard work by many enthusiastic individuals, for free
The only thing we kindly ask in return is that you cite our papers,
We deeply appreciate it, if you show your appreciation for ORCA by not just citing the generic ORCA reference.

Please note that relegating all ORCA citations to the supporting information does *not* help us.
SI sections are not indexed - citations you put there will not count into any citation statistics
But we need these citations in order to attract the funding resources that allow us to do what we are doing

Therefore, if you are a happy ORCA user, please consider citing a few of the papers listed below in the main body of your paper

In addition to the list printed below, the program has created the file data/single_point_P_M06-2x/70071/70071.bibtex that contains the list in bibtex format
You can import this file easily into all common literature databanks and citation aid programs


List of essential papers. We consider these as the minimum necessary citations

  1. Neese,F.
     Software update: the ORCA program system, version 5.0
     WIRES Comput. Molec. Sci., 2022 12(1)e1606
     doi.org/10.1002/wcms.1606

List of papers to cite with high priority. The work reported in these papers was absolutely
necessary for this run to complete.
Our perspective: the developers of density functionals and basis sets usually get cited in chemistry papers
Good! But without the algorithms to do something with them, the functionals or basis sets would not do anything.
Hence, in our opinion, the algorithm design and method developments papers are equally worthy of getting cited

  1. Neese,F.
     An improvement of the resolution of the identity approximation for the formation of the Coulomb matrix
     J. Comp. Chem., 2003 24(14)1740-1747
     doi.org/10.1002/jcc.10318
  2. Neese,F.; Wennmohs,F.; Hansen,A.; Becker,U.
     Efficient, approximate and parallel Hartree-Fock and hybrid DFT calculations. A 'chain-of-spheres' algorithm for the Hartree-Fock exchange
     Chem. Phys., 2009 356(1-3)98-109
     doi.org/10.1016/j.chemphys.2008.10.036
  3. Helmich-Paris,B.; de Souza,B.; Neese,F.; Izsák,R.
     An improved chain of spheres for exchange algorithm
     J. Chem. Phys., 2021 155 104109
     doi.org/doi: 10.1063/5.0058766.
  4. Neese,F.
     The SHARK Integral Generation and Digestion System
     J. Comp. Chem., 2022  1-16
     doi.org/10.1002/jcc.26942
  5. Grimme,S.; Antony,J.; Ehrlich,S.; Krieg,H.
     A consistent and accurate ab initio parametrization of density functional dispersion correction (DFT-D) for the 94 elements H-Pu
     J. Chem. Phys., 2010 132 154104-XXXX
     doi.org/10.1063/1.3382344

List of suggested additional citations. These are papers that are important in the 'surrounding' of 
of this run, or papers that preceded the highly important papers. If you like your results we are grateful for a citation.

  1. Izsak,R.; Neese,F.
     An overlap fitted chain of spheres exchange method
     J. Chem. Phys., 2011 135 144105
     doi.org/10.1063/1.3646921
  2. Izsak,R.; Hansen,A.; Neese,F.
     The resolution of identity and chain of spheres approximations for the LPNO-CCSD singles Fock term
     Molec. Phys., 2012 110 2413-2417
     doi.org/10.1080/00268976.2012.687466
  3. Neese,F.
     The ORCA program system
     WIRES Comput. Molec. Sci., 2012 2(1)73-78
     doi.org/10.1002/wcms.81
  4. Izsak,R.; Neese,F.; Klopper,W.
     Robust fitting techniques in the chain of spheres approximation to the Fock exchange: The role of the complementary space
     J. Chem. Phys., 2013 139 
     doi.org/10.1063/1.4819264
  5. Neese,F.
     Software update: the ORCA program system, version 4.0
     WIRES Comput. Molec. Sci., 2018 8(1)1-6
     doi.org/10.1002/wcms.1327
  6. Neese,F.; Wennmohs,F.; Becker,U.; Riplinger,C.
     The ORCA quantum chemistry program package
     J. Chem. Phys., 2020 152 Art. No. L224108
     doi.org/10.1063/5.0004608

List of optional additional citations

  1. Neese,F.
     Approximate second-order SCF convergence for spin unrestricted wavefunctions
     Chem. Phys. Lett., 2000 325(1-3)93-98
     doi.org/10.1016/s0009-2614(00)00662-x

Timings for individual modules:

Sum of individual times          ...      180.638 sec (=   3.011 min)
Startup calculation              ...        5.410 sec (=   0.090 min)   3.0 %
SCF iterations                   ...      174.803 sec (=   2.913 min)  96.8 %
Property calculations            ...        0.425 sec (=   0.007 min)   0.2 %
                             ****ORCA TERMINATED NORMALLY****
TOTAL RUN TIME: 0 days 0 hours 3 minutes 0 seconds 884 msec
