
                                 *****************
                                 * O   R   C   A *
                                 *****************

                                            #,                                       
                                            ###                                      
                                            ####                                     
                                            #####                                    
                                            ######                                   
                                           ########,                                 
                                     ,,################,,,,,                         
                               ,,#################################,,                 
                          ,,##########################################,,             
                       ,#########################################, ''#####,          
                    ,#############################################,,   '####,        
                  ,##################################################,,,,####,       
                ,###########''''           ''''###############################       
              ,#####''   ,,,,##########,,,,          '''####'''          '####       
            ,##' ,,,,###########################,,,                        '##       
           ' ,,###''''                  '''############,,,                           
         ,,##''                                '''############,,,,        ,,,,,,###''
      ,#''                                            '''#######################'''  
     '                                                          ''''####''''         
             ,#######,   #######,   ,#######,      ##                                
            ,#'     '#,  ##    ##  ,#'     '#,    #''#        ,####,   ,####,        
            ##       ##  ##   ,#'  ##            #'  '#       #'       #'  '#        
            ##       ##  #######   ##           ,######,      #####,   #    #        
            '#,     ,#'  ##    ##  '#,     ,#' ,#      #,     #,   #   #,  ,#        
             '#######'   ##     ##  '#######'  #'      '#     '####' # '####'        



                #########################################################
                #                        -***-                          #
                #          Department of theory and spectroscopy        #
                #                                                       #
                #                      Frank Neese                      #
                #                                                       #
                #     Directorship, Architecture, Infrastructure        #
                #                    SHARK, DRIVERS                     #
                #        Core code/Algorithms in most modules           #
                #                                                       #
                #        Max Planck Institute fuer Kohlenforschung      #
                #                Kaiser Wilhelm Platz 1                 #
                #                 D-45470 Muelheim/Ruhr                 #
                #                      Germany                          #
                #                                                       #
                #                  All rights reserved                  #
                #                        -***-                          #
                #########################################################


                         Program Version 6.0.0  -   RELEASE   -


 With contributions from (in alphabetic order):
   Daniel Aravena         : Magnetic Suceptibility
   Michael Atanasov       : Ab Initio Ligand Field Theory (pilot matlab implementation)
   Alexander A. Auer      : GIAO ZORA, VPT2 properties, NMR spectrum
   Ute Becker             : All parallelization in ORCA, NUMFREQ, NUMCALC
   Giovanni Bistoni       : ED, misc. LED, open-shell LED, HFLD
   Martin Brehm           : Molecular dynamics
   Dmytro Bykov           : pre 5.0 version of the SCF Hessian
   Marcos Casanova-Páez   : Triplet and SCS-CIS(D). UHF-(DLPNO)-IP/EA/STEOM-CCSD. UHF-CVS-IP/STEOM-CCSD
   Vijay G. Chilkuri      : MRCI spin determinant printing, contributions to CSF-ICE
   Pauline Colinet        : FMM embedding
   Dipayan Datta          : RHF DLPNO-CCSD density
   Achintya Kumar Dutta   : EOM-CC, STEOM-CC
   Nicolas Foglia         : Exact transition moments, OPA infrastructure, MCD improvements
   Dmitry Ganyushin       : Spin-Orbit,Spin-Spin,Magnetic field MRCI
   Miquel Garcia          : C-PCM and meta-GGA Hessian, CCSD/C-PCM, Gaussian charge scheme
   Tiago L. C. Gouveia    : GS-ROHF, GS-ROCIS
   Yang Guo               : DLPNO-NEVPT2, F12-NEVPT2, CIM, IAO-localization
   Andreas Hansen         : Spin unrestricted coupled pair/coupled cluster methods
   Ingolf Harden          : AUTO-CI MPn and infrastructure 
   Benjamin Helmich-Paris : MC-RPA, TRAH-(SCF,CASSCF), AVAS, COSX integrals, SCF dyn. polar.
   Lee Huntington         : MR-EOM, pCC
   Robert Izsak           : Overlap fitted RIJCOSX, COSX-SCS-MP3, EOM
   Riya Kayal             : Wick's Theorem for AUTO-CI, AUTO-CI UHF-CCSDT
   Emily Kempfer          : AUTO-CI, RHF CISDT and CCSDT
   Christian Kollmar      : KDIIS, OOCD, Brueckner-CCSD(T), CCSD density, CASPT2, CASPT2-K, improved NEVPT2
   Axel Koslowski         : Symmetry handling
   Simone Kossmann        : Meta GGA functionals, TD-DFT gradient, OOMP2, (MP2 Hessian; deprecated post 5.0)
   Lucas Lang             : DCDCAS
   Marvin Lechner         : AUTO-CI (C++ implementation), FIC-MRCC
   Spencer Leger          : CASSCF response
   Dagmar Lenk            : GEPOL surface, SMD, ORCA-2-JSON
   Dimitrios Liakos       : Extrapolation schemes; Compound Job, initial MDCI parallelization
   Dimitrios Manganas     : Further ROCIS development; embedding schemes. LFT, Crystal Embedding
   Dimitrios Pantazis     : SARC Basis sets
   Anastasios Papadopoulos: AUTO-CI, single reference methods and gradients
   Taras Petrenko         : pre 6.0 DFT Hessian and TD-DFT gradient, (ASA, deprecated), ECA, 1-Electron XAS/XES, NRVS
   Peter Pinski           : DLPNO-MP2, DLPNO-MP2 Gradient
   Christoph Reimann      : Effective Core Potentials
   Marius Retegan         : Local ZFS, SOC
   Christoph Riplinger    : Optimizer, TS searches, QM/MM, DLPNO-CCSD(T), (RO)-DLPNO pert. Triples
   Michael Roemelt        : Original ROCIS implementation
   Masaaki Saitow         : Open-shell DLPNO-CCSD energy and density
   Barbara Sandhoefer     : DKH picture change effects
   Kantharuban Sivalingam : CASSCF convergence/infrastructure, NEVPT2 and variants, FIC-MRCI
   Bernardo de Souza      : ESD, SOC TD-DFT
   Georgi Stoychev        : AutoAux, RI-MP2 NMR, DLPNO-MP2 response, X2C
   Van Anh Tran           : RI-MP2 g-tensors
   Willem Van den Heuvel  : Paramagnetic NMR
   Zikuan Wang            : NOTCH, Electric field optimization 
   Frank Wennmohs         : Technical directorship and infrastructure
   Hang Xu                : AUTO-CI-Response properties 


 We gratefully acknowledge several colleagues who have allowed us to
 interface, adapt or use parts of their codes:
   Stefan Grimme, W. Hujo, H. Kruse, P. Pracht,  : VdW corrections, initial TS optimization,
                  C. Bannwarth, S. Ehlert,         DFT functionals, gCP, sTDA/sTD-DF
                  L. Wittmann, M. Mueller
   Ed Valeev, F. Pavosevic, A. Kumar             : LibInt (2-el integral package), F12 methods
   Garnet Chan, S. Sharma, J. Yang, R. Olivares  : DMRG
   Ulf Ekstrom                                   : XCFun DFT Library
   Mihaly Kallay                                 : mrcc  (arbitrary order and MRCC methods)
   Frank Weinhold                                : gennbo (NPA and NBO analysis)
   Simon Mueller                                 : openCOSMO-RS
   Christopher J. Cramer and Donald G. Truhlar   : smd solvation model
   Lars Goerigk                                  : TD-DFT with DH, B97 family of functionals
   V. Asgeirsson, H. Jonsson                     : NEB implementation
   FAccTs GmbH                                   : IRC, NEB, NEB-TS, DLPNO-Multilevel, CI-OPT
                                                   MM, QMMM, 2- and 3-layer-ONIOM, Crystal-QMMM,
                                                   LR-CPCM, SF, NACMEs, symmetry and pop. for TD-DFT,
                                                   nearIR, NL-DFT gradient (VV10), updates on ESD,
                                                   ML-optimized integration grids, MBIS, APM,
                                                   GOAT, DOCKER, SOLVATOR, interface openCOSMO-RS
   S Lehtola, MJT Oliveira, MAL Marques          : LibXC Library
   Liviu Ungur et al                             : ANISO software


 Your calculation uses the libint2 library for the computation of 2-el integrals
 For citations please refer to: http://libint.valeyev.net

 Your ORCA version has been built with support for libXC version: 6.2.2
 For citations please refer to: https://libxc.gitlab.io

 This ORCA versions uses:
   CBLAS   interface :  Fast vector & matrix operations
   LAPACKE interface :  Fast linear algebra routines
   Shared memory     :  Shared parallel matrices


Your calculation utilizes the atom-pairwise dispersion correction
with the zero-damping scheme (D30)


XCFun DFT library Copyright 2009-2010 Ulf Ekstrom and contributors.
See http://admol.org/xcfun for more information.
This is free software; see the source code for copying conditions.
There is ABSOLUTELY NO WARRANTY; not even for MERCHANTABILITY or FITNESS FOR A PARTICULAR PURPOSE.
For details see the documentation.
Scientific users of this library should cite U. Ekstrom, L. Visscher, R. Bast, A. J. Thorvaldsen and K. Ruud;
J.Chem.Theor.Comp. 2010, DOI: 10.1021/ct100117s
XCFun Version 0.99 

Warning: RI is on but no J-basis has been assigned. Assigning Def2/J (nothing to worry about!)
================================================================================

----- Orbital basis set information -----
Your calculation utilizes the basis: def2-TZVP
   F. Weigend and R. Ahlrichs, Phys. Chem. Chem. Phys. 7, 3297 (2005).

----- AuxJ basis set information -----
Your calculation utilizes the auxiliary basis: def2/J
   F. Weigend, Phys. Chem. Chem. Phys. 8, 1057 (2006).

================================================================================
                                        WARNINGS
                       Please study these warnings very carefully!
================================================================================

WARNING: Functional chosen is sensitive to the integration grid.
         DEFGRID3 seems to be a minimum grid for robust results!

================================================================================
                                       INPUT FILE
================================================================================
NAME = data/single_point_PO_M06-2x/87021/87021.inp
|  1> ! RIJCOSX M062X def2-TZVP D3ZERO NormalSCF
|  2> %pal
|  3> nprocs 6
|  4> end
|  5> 
|  6> * xyz 0 1
|  7>   C          -2.32465276533075     -3.76573182804515      1.03216094219342
|  8>   C          -1.53744886041848     -3.96165598740371     -0.11611966092998
|  9>   C          -0.85573883755635     -2.87999859350583     -0.69423215676585
| 10>   C          -0.95436003833848     -1.59762040841529     -0.11698431647732
| 11>   C          -1.75735518191212     -1.39854919654178      1.02418069145584
| 12>   C          -2.43798009374966     -2.48429328438450      1.59874719463808
| 13>   P          -0.01732762500728     -0.25707103412805     -0.94943594597630
| 14>   O           0.18800727781267     -0.55947273829897     -2.42337051539429
| 15>   C          -0.97292399889675      1.25771793360837     -0.58633315577160
| 16>   C          -0.80701281131937      1.99749513635545      0.59990572947374
| 17>   C          -1.59873625332368      3.13447319386122      0.82969312378274
| 18>   C          -2.54846250260492      3.53512258845943     -0.12574825272232
| 19>   C          -2.70381999887419      2.80237343509181     -1.31589737428439
| 20>   C          -1.91641031892328      1.66472718373953     -1.54938468355320
| 21>   C           1.55683923213834     -0.13015064345603      0.01864858771798
| 22>   C           1.69407347814504     -0.82322390154578      1.23865751368587
| 23>   C           2.92268697832696     -0.85678040614090      1.91852602814579
| 24>   C           4.04845206060156     -0.22849887652428      1.36445834723982
| 25>   C           3.93368335491752      0.44496662445925      0.14060364617085
| 26>   C           2.69502877725962      0.52438692299279     -0.52372089560495
| 27>   C           2.67972620238905      1.28471725190354     -1.81831111548711
| 28>   O           3.60528531330257      1.31512463822348     -2.60783941732081
| 29>   O           1.53448305140883      1.98986554901496     -1.97856601732231
| 30>   H          -2.86161999477690     -4.61469140678822      1.48267346865258
| 31>   H          -1.46041065520500     -4.96276826038833     -0.56755211232365
| 32>   H          -0.25133744541454     -3.00308949137531     -1.60615471180074
| 33>   H          -1.85938853984792     -0.39171791309894      1.45761812317940
| 34>   H          -3.06689719939826     -2.32770646596766      2.48861131351947
| 35>   H          -0.04579156456480      1.69436911588602      1.33580717281561
| 36>   H          -1.46755195710961      3.71636851965346      1.75496438505056
| 37>   H          -3.16587126573860      4.42852319720849      0.05460232552316
| 38>   H          -3.44098357017404      3.12326830231941     -2.06805396174766
| 39>   H          -2.00910266862298      1.08665102728718     -2.48202581247642
| 40>   H           0.83111823223834     -1.36297384379023      1.65517456382256
| 41>   H           3.00161683172242     -1.39629548665357      2.87464505124955
| 42>   H           5.01941663965536     -0.27009164672217      1.88068129058460
| 43>   H           4.80444057138030      0.92893234672458     -0.32587693987505
| 44>   H           1.54632614580937      2.34329544638574     -2.89475245306769
| 45> **                         ****END OF INPUT****
================================================================================

                       ****************************
                       * Single Point Calculation *
                       ****************************

---------------------------------
CARTESIAN COORDINATES (ANGSTROEM)
---------------------------------
  C     -2.324653   -3.765732    1.032161
  C     -1.537449   -3.961656   -0.116120
  C     -0.855739   -2.879999   -0.694232
  C     -0.954360   -1.597620   -0.116984
  C     -1.757355   -1.398549    1.024181
  C     -2.437980   -2.484293    1.598747
  P     -0.017328   -0.257071   -0.949436
  O      0.188007   -0.559473   -2.423371
  C     -0.972924    1.257718   -0.586333
  C     -0.807013    1.997495    0.599906
  C     -1.598736    3.134473    0.829693
  C     -2.548463    3.535123   -0.125748
  C     -2.703820    2.802373   -1.315897
  C     -1.916410    1.664727   -1.549385
  C      1.556839   -0.130151    0.018649
  C      1.694073   -0.823224    1.238658
  C      2.922687   -0.856780    1.918526
  C      4.048452   -0.228499    1.364458
  C      3.933683    0.444967    0.140604
  C      2.695029    0.524387   -0.523721
  C      2.679726    1.284717   -1.818311
  O      3.605285    1.315125   -2.607839
  O      1.534483    1.989866   -1.978566
  H     -2.861620   -4.614691    1.482673
  H     -1.460411   -4.962768   -0.567552
  H     -0.251337   -3.003089   -1.606155
  H     -1.859389   -0.391718    1.457618
  H     -3.066897   -2.327706    2.488611
  H     -0.045792    1.694369    1.335807
  H     -1.467552    3.716369    1.754964
  H     -3.165871    4.428523    0.054602
  H     -3.440984    3.123268   -2.068054
  H     -2.009103    1.086651   -2.482026
  H      0.831118   -1.362974    1.655175
  H      3.001617   -1.396295    2.874645
  H      5.019417   -0.270092    1.880681
  H      4.804441    0.928932   -0.325877
  H      1.546326    2.343295   -2.894752

----------------------------
CARTESIAN COORDINATES (A.U.)
----------------------------
  NO LB      ZA    FRAG     MASS         X           Y           Z
   0 C     6.0000    0    12.011   -4.392957   -7.116202    1.950502
   1 C     6.0000    0    12.011   -2.905357   -7.486445   -0.219434
   2 C     6.0000    0    12.011   -1.617112   -5.442409   -1.311909
   3 C     6.0000    0    12.011   -1.803479   -3.019065   -0.221068
   4 C     6.0000    0    12.011   -3.320920   -2.642875    1.935421
   5 C     6.0000    0    12.011   -4.607115   -4.694634    3.021194
   6 P    15.0000    0    30.974   -0.032744   -0.485794   -1.794174
   7 O     8.0000    0    15.999    0.355282   -1.057250   -4.579507
   8 C     6.0000    0    12.011   -1.838560    2.376742   -1.108009
   9 C     6.0000    0    12.011   -1.525033    3.774719    1.133658
  10 C     6.0000    0    12.011   -3.021174    5.923296    1.567893
  11 C     6.0000    0    12.011   -4.815896    6.680414   -0.237630
  12 C     6.0000    0    12.011   -5.109479    5.295718   -2.486686
  13 C     6.0000    0    12.011   -3.621491    3.145878   -2.927913
  14 C     6.0000    0    12.011    2.942000   -0.245949    0.035241
  15 C     6.0000    0    12.011    3.201335   -1.555668    2.340723
  16 C     6.0000    0    12.011    5.523078   -1.619080    3.625489
  17 C     6.0000    0    12.011    7.650466   -0.431800    2.578453
  18 C     6.0000    0    12.011    7.433584    0.840865    0.265702
  19 C     6.0000    0    12.011    5.092866    0.990948   -0.989689
  20 C     6.0000    0    12.011    5.063949    2.427764   -3.436110
  21 O     8.0000    0    15.999    6.813002    2.485225   -4.928102
  22 O     8.0000    0    15.999    2.899753    3.760301   -3.738948
  23 H     1.0000    0     1.008   -5.407678   -8.720503    2.801847
  24 H     1.0000    0     1.008   -2.759776   -9.378273   -1.072518
  25 H     1.0000    0     1.008   -0.474959   -5.675017   -3.035193
  26 H     1.0000    0     1.008   -3.513735   -0.740240    2.754499
  27 H     1.0000    0     1.008   -5.795596   -4.398728    4.702794
  28 H     1.0000    0     1.008   -0.086534    3.201894    2.524310
  29 H     1.0000    0     1.008   -2.773271    7.022919    3.316402
  30 H     1.0000    0     1.008   -5.982630    8.368696    0.103183
  31 H     1.0000    0     1.008   -6.502517    5.902122   -3.908056
  32 H     1.0000    0     1.008   -3.796654    2.053473   -4.690349
  33 H     1.0000    0     1.008    1.570586   -2.575647    3.127827
  34 H     1.0000    0     1.008    5.672234   -2.638616    5.432292
  35 H     1.0000    0     1.008    9.485323   -0.510399    3.553973
  36 H     1.0000    0     1.008    9.079077    1.755428   -0.615818
  37 H     1.0000    0     1.008    2.922133    4.428187   -5.470289

--------------------------------
INTERNAL COORDINATES (ANGSTROEM)
--------------------------------
 C      0   0   0     0.000000000000     0.00000000     0.00000000
 C      1   0   0     1.405924822897     0.00000000     0.00000000
 C      2   1   0     1.403183997516   120.07285875     0.00000000
 C      3   2   1     1.409764171753   119.90203218     0.40414945
 C      4   3   2     1.409499245594   119.98938584   358.78685485
 C      5   4   3     1.404356493729   119.87819935     1.19313187
 P      4   3   2     1.835232433233   116.29544035   179.75407839
 O      7   4   3     1.518582341504   111.33611950    26.21140864
 C      7   4   3     1.827455521434   104.38062680   151.32461555
 C      9   7   4     1.407820842556   122.77668565    84.88233102
 C     10   9   7     1.404402847637   119.79153602   181.58319823
 C     11  10   9     1.405477893780   120.03262303   359.67315200
 C     12  11  10     1.406240450621   120.09609601   359.71454061
 C     13  12  11     1.403128404989   120.08708533     0.36668469
 C      7   4   3     1.852376242582   104.29341883   262.89215210
 C     15   7   4     1.409824655337   120.08549729   349.97000992
 C     16  15   7     1.404577647830   121.04821527   173.22076586
 C     17  16  15     1.403237576446   119.99583801   358.04057863
 C     18  17  16     1.401623332478   119.61781236     0.82224108
 C     19  18  17     1.407799646035   120.74311914     1.47182684
 C     20  19  18     1.501432720862   116.38594767   179.19962091
 O     21  20  19     1.216938460373   124.35409131    34.09903170
 O     21  20  19     1.354436277330   111.97985949   217.06957339
 H      1   2   3     1.100921299792   119.99057594   179.79670220
 H      2   1   3     1.100886881725   120.05455303   180.42989243
 H      3   2   1     1.100933766556   121.45284757   181.38656608
 H      5   4   3     1.100903286701   120.04801433   181.85724665
 H      6   5   4     1.100869795912   119.84276076   180.14518116
 H     10   9   7     1.101314716650   119.99050202     2.67547887
 H     11  10   9     1.100880736810   119.88522121   180.23947897
 H     12  11  10     1.100856284708   119.93078423   180.20032281
 H     13  12  11     1.100964658256   120.01950625   180.62358329
 H     14  13  12     1.101173641943   121.28769432   181.09125944
 H     16  15   7     1.099776436211   119.51337501   354.44299329
 H     17  16  15     1.100667992720   119.66364177   179.38422098
 H     18  17  16     1.100449135374   120.37894575   181.37406907
 H     19  18  17     1.100020494131   121.12189642   181.22289456
 H     23  21  20     0.982064425730   106.71123669   188.27845393

---------------------------
INTERNAL COORDINATES (A.U.)
---------------------------
 C      0   0   0     0.000000000000     0.00000000     0.00000000
 C      1   0   0     2.656812880158     0.00000000     0.00000000
 C      2   1   0     2.651633470807   120.07285875     0.00000000
 C      3   2   1     2.664068198027   119.90203218     0.40414945
 C      4   3   2     2.663567560142   119.98938584   358.78685485
 C      5   4   3     2.653849167541   119.87819935     1.19313187
 P      4   3   2     3.468086690900   116.29544035   179.75407839
 O      7   4   3     2.869704737251   111.33611950    26.21140864
 C      7   4   3     3.453390457433   104.38062680   151.32461555
 C      9   7   4     2.660395838058   122.77668565    84.88233102
 C     10   9   7     2.653936763734   119.79153602   181.58319823
 C     11  10   9     2.655968306524   120.03262303   359.67315200
 C     12  11  10     2.657409330116   120.09609601   359.71454061
 C     13  12  11     2.651528416154   120.08708533     0.36668469
 C      7   4   3     3.500483795462   104.29341883   262.89215210
 C     15   7   4     2.664182495438   120.08549729   349.97000992
 C     16  15   7     2.654267088226   121.04821527   173.22076586
 C     17  16  15     2.651734720311   119.99583801   358.04057863
 C     18  17  16     2.648684241298   119.61781236     0.82224108
 C     19  18  17     2.660355782438   120.74311914     1.47182684
 C     20  19  18     2.837296650937   116.38594767   179.19962091
 O     21  20  19     2.299680411940   124.35409131    34.09903170
 O     21  20  19     2.559513630002   111.97985949   217.06957339
 H      1   2   3     2.080439751607   119.99057594   179.79670220
 H      2   1   3     2.080374710887   120.05455303   180.42989243
 H      3   2   1     2.080463310377   121.45284757   181.38656608
 H      5   4   3     2.080405711799   120.04801433   181.85724665
 H      6   5   4     2.080342423380   119.84276076   180.14518116
 H     10   9   7     2.081183201725   119.99050202     2.67547887
 H     11  10   9     2.080363098681   119.88522121   180.23947897
 H     12  11  10     2.080316890904   119.93078423   180.20032281
 H     13  12  11     2.080521687230   120.01950625   180.62358329
 H     14  13  12     2.080916609166   121.28769432   181.09125944
 H     16  15   7     2.078276272979   119.51337501   354.44299329
 H     17  16  15     2.079961070614   119.66364177   179.38422098
 H     18  17  16     2.079547490167   120.37894575   181.37406907
 H     19  18  17     2.078737475608   121.12189642   181.22289456
 H     23  21  20     1.855832810496   106.71123669   188.27845393

---------------------
BASIS SET INFORMATION
---------------------
There are 4 groups of distinct atoms

 Group   1 Type C   : 11s6p2d1f contracted to 5s3p2d1f pattern {62111/411/11/1}
 Group   2 Type P   : 14s9p3d1f contracted to 5s5p2d1f pattern {73211/51111/21/1}
 Group   3 Type O   : 11s6p2d1f contracted to 5s3p2d1f pattern {62111/411/11/1}
 Group   4 Type H   : 5s1p contracted to 3s1p pattern {311/1}

Atom   0C    basis set group =>   1
Atom   1C    basis set group =>   1
Atom   2C    basis set group =>   1
Atom   3C    basis set group =>   1
Atom   4C    basis set group =>   1
Atom   5C    basis set group =>   1
Atom   6P    basis set group =>   2
Atom   7O    basis set group =>   3
Atom   8C    basis set group =>   1
Atom   9C    basis set group =>   1
Atom  10C    basis set group =>   1
Atom  11C    basis set group =>   1
Atom  12C    basis set group =>   1
Atom  13C    basis set group =>   1
Atom  14C    basis set group =>   1
Atom  15C    basis set group =>   1
Atom  16C    basis set group =>   1
Atom  17C    basis set group =>   1
Atom  18C    basis set group =>   1
Atom  19C    basis set group =>   1
Atom  20C    basis set group =>   1
Atom  21O    basis set group =>   3
Atom  22O    basis set group =>   3
Atom  23H    basis set group =>   4
Atom  24H    basis set group =>   4
Atom  25H    basis set group =>   4
Atom  26H    basis set group =>   4
Atom  27H    basis set group =>   4
Atom  28H    basis set group =>   4
Atom  29H    basis set group =>   4
Atom  30H    basis set group =>   4
Atom  31H    basis set group =>   4
Atom  32H    basis set group =>   4
Atom  33H    basis set group =>   4
Atom  34H    basis set group =>   4
Atom  35H    basis set group =>   4
Atom  36H    basis set group =>   4
Atom  37H    basis set group =>   4
---------------------------------
AUXILIARY/J BASIS SET INFORMATION
---------------------------------
There are 4 groups of distinct atoms

 Group   1 Type C   : 12s5p4d2f1g contracted to 6s4p3d1f1g pattern {711111/2111/211/2/1}
 Group   2 Type P   : 14s5p5d2f1g contracted to 8s4p3d1f1g pattern {71111111/2111/311/2/1}
 Group   3 Type O   : 12s5p4d2f1g contracted to 6s4p3d1f1g pattern {711111/2111/211/2/1}
 Group   4 Type H   : 5s2p1d contracted to 3s1p1d pattern {311/2/1}

Atom   0C    basis set group =>   1
Atom   1C    basis set group =>   1
Atom   2C    basis set group =>   1
Atom   3C    basis set group =>   1
Atom   4C    basis set group =>   1
Atom   5C    basis set group =>   1
Atom   6P    basis set group =>   2
Atom   7O    basis set group =>   3
Atom   8C    basis set group =>   1
Atom   9C    basis set group =>   1
Atom  10C    basis set group =>   1
Atom  11C    basis set group =>   1
Atom  12C    basis set group =>   1
Atom  13C    basis set group =>   1
Atom  14C    basis set group =>   1
Atom  15C    basis set group =>   1
Atom  16C    basis set group =>   1
Atom  17C    basis set group =>   1
Atom  18C    basis set group =>   1
Atom  19C    basis set group =>   1
Atom  20C    basis set group =>   1
Atom  21O    basis set group =>   3
Atom  22O    basis set group =>   3
Atom  23H    basis set group =>   4
Atom  24H    basis set group =>   4
Atom  25H    basis set group =>   4
Atom  26H    basis set group =>   4
Atom  27H    basis set group =>   4
Atom  28H    basis set group =>   4
Atom  29H    basis set group =>   4
Atom  30H    basis set group =>   4
Atom  31H    basis set group =>   4
Atom  32H    basis set group =>   4
Atom  33H    basis set group =>   4
Atom  34H    basis set group =>   4
Atom  35H    basis set group =>   4
Atom  36H    basis set group =>   4
Atom  37H    basis set group =>   4


           ************************************************************
           *        Program running with 6 parallel MPI-processes     *
           *              working on a common directory               *
           ************************************************************
------------------------------------------------------------------------------
                             ORCA STARTUP CALCULATIONS
                           -- RI-GTO INTEGRALS CHOSEN --
------------------------------------------------------------------------------
------------------------------------------------------------------------------
                   ___                                                        
                  /   \      - P O W E R E D   B Y -                         
                 /     \                                                     
                 |  |  |   _    _      __       _____    __    __             
                 |  |  |  | |  | |    /  \     |  _  \  |  |  /  |          
                  \  \/   | |  | |   /    \    | | | |  |  | /  /          
                 / \  \   | |__| |  /  /\  \   | |_| |  |  |/  /          
                |  |  |   |  __  | /  /__\  \  |    /   |      \           
                |  |  |   | |  | | |   __   |  |    \   |  |\   \          
                \     /   | |  | | |  |  |  |  | |\  \  |  | \   \       
                 \___/    |_|  |_| |__|  |__|  |_| \__\ |__|  \__/        
                                                                              
                      - O R C A' S   B I G   F R I E N D -                    
                                      &                                       
                       - I N T E G R A L  F E E D E R -                       
                                                                              
 v1 FN, 2020, v2 2021, v3 2022-2024                                           
------------------------------------------------------------------------------


----------------------
SHARK INTEGRAL PACKAGE
----------------------

Number of atoms                             ...     38
Number of basis functions                   ...    809
Number of shells                            ...    315
Maximum angular momentum                    ...      3
Integral batch strategy                     ... SHARK/LIBINT Hybrid
RI-J (if used) integral strategy            ... SPLIT-RIJ (Revised 2003 algorithm where possible)
Printlevel                                  ...      1
Contraction scheme used                     ... SEGMENTED contraction
Prescreening option                         ... SCHWARTZ
   Thresh                                   ... 1.000e-10
   Tcut                                     ... 1.000e-11
   Tpresel                                  ... 1.000e-11 
Coulomb Range Separation                    ... NOT USED
Exchange Range Separation                   ... NOT USED
Multipole approximations                    ... NOT USED
Finite Nucleus Model                        ... NOT USED
CABS basis                                  ... NOT available
Auxiliary Coulomb fitting basis             ... AVAILABLE
   # of basis functions in Aux-J            ...   1294
   # of shells in Aux-J                     ...    422
   Maximum angular momentum in Aux-J        ...      4
Auxiliary J/K fitting basis                 ... NOT available
Auxiliary Correlation fitting basis         ... NOT available
Auxiliary 'external' fitting basis          ... NOT available

Checking pre-screening integrals            ... done (  0.0 sec) Dimension = 315
Check shell pair data                       ... done (  0.0 sec)
Shell pair information
Shell pair cut-off parameter TPreSel        ...   1.0e-11
Total number of shell pairs                 ...     49770
Shell pairs after pre-screening             ...     35422
Total number of primitive shell pairs       ...    155968
Primitive shell pairs kept                  ...     72189
          la=0 lb=0:   8721 shell pairs
          la=1 lb=0:  10201 shell pairs
          la=1 lb=1:   3015 shell pairs
          la=2 lb=0:   5035 shell pairs
          la=2 lb=1:   3030 shell pairs
          la=2 lb=2:    782 shell pairs
          la=3 lb=0:   2345 shell pairs
          la=3 lb=1:   1419 shell pairs
          la=3 lb=2:    706 shell pairs
          la=3 lb=3:    168 shell pairs

Calculating one electron integrals          ... done (  0.1 sec)
Calculating RI/J V-Matrix + Cholesky decomp.... done (  0.1 sec)
Calculating Nuclear repulsion               ... done (  0.0 sec) ENN=   2013.986465251960 Eh

Diagonalization of the overlap matrix:
Smallest eigenvalue                        ... 6.567e-06
Time for diagonalization                   ...    0.150 sec
Threshold for overlap eigenvalues          ... 1.000e-07
Number of eigenvalues below threshold      ... 0
Time for construction of square roots      ...    0.079 sec
Total time needed                          ...    0.236 sec

-------------------
DFT GRID GENERATION
-------------------

General Integration Accuracy     IntAcc      ... 4.388
Radial Grid Type                 RadialGrid  ... OptM3 with GC (2021)
Angular Grid (max. ang.)         AngularGrid ... 4 (Lebedev-302)
Angular grid pruning method      GridPruning ... 4 (adaptive)
Weight generation scheme         WeightScheme... mBecke (2022)
Basis function cutoff            BFCut       ... 1.0000e-10
Integration weight cutoff        WCut        ... 1.0000e-14
Partially contracted basis set               ... off
Rotationally invariant grid construction     ... off
Angular grids for H and He will be reduced by one unit

Total number of grid points                  ...   186613
Total number of batches                      ...     2938
Average number of points per batch           ...       63
Average number of grid points per atom       ...     4911

--------------------
COSX GRID GENERATION
--------------------

GRIDX 1
-------
General Integration Accuracy     IntAcc      ... 3.816
Radial Grid Type                 RadialGrid  ... OptM3 with GC (2021)
Angular Grid (max. ang.)         AngularGrid ... 1 (Lebedev-50)
Angular grid pruning method      GridPruning ... 4 (adaptive)
Weight generation scheme         WeightScheme... mBecke (2022)
Basis function cutoff            BFCut       ... 1.0000e-10
Integration weight cutoff        WCut        ... 1.0000e-14
Partially contracted basis set               ... on
Rotationally invariant grid construction     ... off
Angular grids for H and He will be reduced by one unit

Total number of grid points                  ...    24681
Total number of batches                      ...      207
Average number of points per batch           ...      119
Average number of grid points per atom       ...      650
UseSFitting                                  ... on

GRIDX 2
-------
General Integration Accuracy     IntAcc      ... 4.020
Radial Grid Type                 RadialGrid  ... OptM3 with GC (2021)
Angular Grid (max. ang.)         AngularGrid ... 2 (Lebedev-110)
Angular grid pruning method      GridPruning ... 4 (adaptive)
Weight generation scheme         WeightScheme... mBecke (2022)
Basis function cutoff            BFCut       ... 1.0000e-10
Integration weight cutoff        WCut        ... 1.0000e-14
Partially contracted basis set               ... on
Rotationally invariant grid construction     ... off
Angular grids for H and He will be reduced by one unit

Total number of grid points                  ...    51696
Total number of batches                      ...      421
Average number of points per batch           ...      122
Average number of grid points per atom       ...     1360
UseSFitting                                  ... on

GRIDX 3
-------
General Integration Accuracy     IntAcc      ... 4.338
Radial Grid Type                 RadialGrid  ... OptM3 with GC (2021)
Angular Grid (max. ang.)         AngularGrid ... 3 (Lebedev-194)
Angular grid pruning method      GridPruning ... 4 (adaptive)
Weight generation scheme         WeightScheme... mBecke (2022)
Basis function cutoff            BFCut       ... 1.0000e-10
Integration weight cutoff        WCut        ... 1.0000e-14
Partially contracted basis set               ... on
Rotationally invariant grid construction     ... off
Angular grids for H and He will be reduced by one unit

Total number of grid points                  ...   113513
Total number of batches                      ...      906
Average number of points per batch           ...      125
Average number of grid points per atom       ...     2987
UseSFitting                                  ... on
Initializing property integral containers    ... done (  0.0 sec)

SHARK setup successfully completed in   5.6 seconds

Maximum memory used throughout the entire STARTUP-calculation: 80.3 MB


           ************************************************************
           *        Program running with 6 parallel MPI-processes     *
           *              working on a common directory               *
           ************************************************************
-------------------------------------------------------------------------------
                                 ORCA GUESS
                   Start orbitals & Density for SCF / CASSCF
-------------------------------------------------------------------------------

------------
SCF SETTINGS
------------
Hamiltonian:
 Density Functional     Method          .... DFT(GTOs)
 Exchange Functional    Exchange        .... M062X
 Correlation Functional Correlation     .... M062X
 Gradients option       PostSCFGGA      .... off
 Hybrid DFT is turned on
   Fraction HF Exchange ScalHFX         ....  0.540000
   Scaling of DF-GGA-X  ScalDFX         ....  0.460000
   Scaling of DF-GGA-C  ScalDFC         ....  1.000000
   Scaling of DF-LDA-C  ScalLDAC        ....  1.000000
   Perturbative correction              ....  0.000000
 RI-approximation to the Coulomb term is turned on
   Number of AuxJ basis functions       .... 1294
   RIJ-COSX (HFX calculated with COS-X)).... on


General Settings:
 Integral files         IntName         .... data/single_point_PO_M06-2x/87021/87021
 Hartree-Fock type      HFTyp           .... RHF
 Total Charge           Charge          ....    0
 Multiplicity           Mult            ....    1
 Number of Electrons    NEL             ....  168
 Basis Dimension        Dim             ....  809
 Nuclear Repulsion      ENuc            ....   2013.9864652520 Eh

Convergence Acceleration:
 AO-DIIS                CNVDIIS         .... on
   Start iteration      DIISMaxIt       ....    12
   Startup error        DIISStart       ....  0.200000
   # of expansion vecs  DIISMaxEq       ....     5
   Bias factor          DIISBfac        ....   1.050
   Max. coefficient     DIISMaxC        ....  10.000
 MO-DIIS                CNVKDIIS        .... off
 Trust-Rad. Augm. Hess. CNVTRAH         .... auto
   Auto Start mean grad. ratio tolernc. ....  1.125000
   Auto Start start iteration           ....    50
   Auto Start num. interpolation iter.  ....    10
   Max. Number of Micro iterations      ....    24
   Max. Number of Macro iterations      .... Maxiter - #DIIS iter
   Number of Davidson start vectors     ....     2
   Converg. threshold    (grad. norm)   ....   5.000e-05
   Grad. Scal. Fac. for Micro threshold ....   0.100
   Minimum threshold for Micro iter.    ....   1.000e-02
   NR start threshold (gradient norm)   ....   1.000e-04
   Initial trust radius                 ....   0.400
   Minimum AH scaling param. (alpha)    ....   1.000
   Maximum AH scaling param. (alpha)    .... 1000.000
   Quad. conv. algorithm                .... NR
   White noise on init. David. guess    .... on
   Maximum white noise                  ....   0.010
   Pseudo random numbers                .... off
   Inactive MOs                         .... canonical
   Orbital update algorithm             .... Taylor
   Preconditioner                       .... Diag
   Full preconditioner red. dimension   ....   250
 SOSCF                  CNVSOSCF        .... on
   Start iteration      SOSCFMaxIt      ....   150
   Startup grad/error   SOSCFStart      ....  0.003300
   Hessian update       SOSCFHessUp     .... L-BFGS
 Level Shifting         CNVShift        .... on
   Level shift para.    LevelShift      ....    0.2500
   Turn off err/grad.   ShiftErr        ....    0.0010
 Zerner damping         CNVZerner       .... off
 Static damping         CNVDamp         .... on
   Fraction old density DampFac         ....    0.7000
   Max. Damping (<1)    DampMax         ....    0.9800
   Min. Damping (>=0)   DampMin         ....    0.0000
   Turn off err/grad.   DampErr         ....    0.1000

SCF Procedure:
 Maximum # iterations   MaxIter         ....   125
 SCF integral mode      SCFMode         .... Direct
   Integral package                     .... SHARK and LIBINT hybrid scheme
 Reset frequency        DirectResetFreq ....    20
 Integral Threshold     Thresh          ....  1.000e-10 Eh
 Primitive CutOff       TCut            ....  1.000e-11 Eh

Convergence Tolerance:
 Convergence Check Mode ConvCheckMode   .... Total+1el-Energy
 Convergence forced     ConvForced      .... 0
 Energy Change          TolE            ....  1.000e-06 Eh
 1-El. energy change                    ....  1.000e-03 Eh
 Orbital Gradient       TolG            ....  5.000e-05
 Orbital Rotation angle TolX            ....  5.000e-05
 DIIS Error             TolErr          ....  1.000e-05

------------------------------
INITIAL GUESS: MODEL POTENTIAL
------------------------------
Loading Hartree-Fock densities                     ... done
Calculating cut-offs                               ... done
Initializing the effective Hamiltonian             ... done
Setting up the integral package (SHARK)            ... done
Starting the Coulomb interaction                   ... done (   0.7 sec)
Making the grid                                    ... done (   0.7 sec)
Mapping shells                                     ... done
Starting the XC term evaluation                    ... done (   1.1 sec)
  promolecular density results
     # of electrons  =    168.000814801
     EX              =   -148.495285398
     EC              =     -5.694859141
     EX+EC           =   -154.190144539
Transforming the Hamiltonian                       ... done (   0.1 sec)
Diagonalizing the Hamiltonian                      ... done (   0.2 sec)
Back transforming the eigenvectors                 ... done (   0.1 sec)
Now organizing SCF variables                       ... done
                      ------------------
                      INITIAL GUESS DONE (   2.8 sec)
                      ------------------
             **** ENERGY FILE WAS UPDATED (data/single_point_PO_M06-2x/87021/87021.en.tmp) ****
Finished Guess after   3.1 sec
Maximum memory used throughout the entire GUESS-calculation: 63.1 MB


           ************************************************************
           *        Program running with 6 parallel MPI-processes     *
           *              working on a common directory               *
           ************************************************************

-------------------------------------------------------------------------------------------
                                      ORCA LEAN-SCF
                              memory conserving SCF solver
-------------------------------------------------------------------------------------------

----------------------------------------D-I-I-S--------------------------------------------
Iteration    Energy (Eh)           Delta-E    RMSDP     MaxDP     DIISErr   Damp  Time(sec)
-------------------------------------------------------------------------------------------
               ***  Starting incremental Fock matrix formation  ***
    1    -1299.4599413690232268     0.00e+00  1.43e-03  1.18e-01  3.65e-01  0.700  21.4
    2    -1299.7388436840676604    -2.79e-01  1.19e-03  1.07e-01  1.57e-01  0.700  11.5
                               ***Turning on AO-DIIS***
    3    -1299.8606198552854494    -1.22e-01  6.80e-04  2.27e-02  4.98e-02  0.700  11.6
    4    -1299.9348538316332906    -7.42e-02  1.57e-03  7.54e-02  3.20e-02  0.000  11.5
    5    -1300.0966107261363049    -1.62e-01  1.80e-04  2.11e-02  7.72e-03  0.000  10.9
                              *** Initializing SOSCF ***
---------------------------------------S-O-S-C-F--------------------------------------
Iteration    Energy (Eh)           Delta-E    RMSDP     MaxDP     MaxGrad    Time(sec)
--------------------------------------------------------------------------------------
    6    -1300.0971446133528389    -5.34e-04  5.32e-05  4.89e-03  8.57e-04    10.5
               *** Restarting incremental Fock matrix formation ***
    7    -1300.0969458283891527     1.99e-04  9.49e-05  3.31e-03  2.79e-04    23.5
    8    -1300.0969519585539729    -6.13e-06  4.53e-05  1.52e-03  3.43e-04    14.9
    9    -1300.0969567309409740    -4.77e-06  3.98e-05  1.41e-03  6.66e-05    15.4
   10    -1300.0969571828816242    -4.52e-07  9.07e-06  3.20e-04  4.63e-05    14.5
                 **** Energy Check signals convergence ****

               *****************************************************
               *                     SUCCESS                       *
               *           SCF CONVERGED AFTER  10 CYCLES          *
               *****************************************************

Recomputing exchange energy using gridx3       ... done (   30.869 sec)
Old exchange energy                            :    -81.571184166 Eh
New exchange energy                            :    -81.571168282 Eh
Exchange energy change after final integration :      0.000015885 Eh
Total energy after final integration           :  -1300.096941298 Eh
             **** ENERGY FILE WAS UPDATED (data/single_point_PO_M06-2x/87021/87021.en.tmp) ****

----------------
TOTAL SCF ENERGY
----------------

Total Energy       :      -1300.09694129820923 Eh          -35377.43633 eV

Components:
Nuclear Repulsion  :       2013.98646525195977 Eh           54803.35787 eV
Electronic Energy  :      -3314.08342243484140 Eh          -90180.79463 eV
One Electron Energy:      -5778.40571882294626 Eh         -157238.41346 eV
Two Electron Energy:       2464.32229638810486 Eh           67057.61883 eV

Virial components:
Potential Energy   :      -2593.66913483480221 Eh          -70577.32524 eV
Kinetic Energy     :       1293.57219353659320 Eh           35199.88891 eV
Virial Ratio       :          2.00504397651265

DFT components:
N(Alpha)           :       83.999891274938 electrons
N(Beta)            :       83.999891274938 electrons
N(Total)           :      167.999782549876 electrons
E(XC)              :      -75.727223237115 Eh       

---------------
SCF CONVERGENCE
---------------

  Last Energy change         ...    4.5194e-07  Tolerance :   1.0000e-06
  Last MAX-Density change    ...    3.2018e-04  Tolerance :   1.0000e-05
  Last RMS-Density change    ...    9.0748e-06  Tolerance :   1.0000e-06
  Last DIIS Error            ...    8.5729e-04  Tolerance :   1.0000e-05
  Last Orbital Gradient      ...    4.6307e-05  Tolerance :   5.0000e-05
  Last Orbital Rotation      ...    9.3303e-05  Tolerance :   5.0000e-05


----------------
ORBITAL ENERGIES
----------------

  NO   OCC          E(Eh)            E(eV) 
   0   2.0000     -78.103578     -2125.3064 
   1   2.0000     -19.674006      -535.3569 
   2   2.0000     -19.621390      -533.9252 
   3   2.0000     -19.569369      -532.5096 
   4   2.0000     -10.685024      -290.7543 
   5   2.0000     -10.583071      -287.9800 
   6   2.0000     -10.578086      -287.8444 
   7   2.0000     -10.571595      -287.6677 
   8   2.0000     -10.570537      -287.6389 
   9   2.0000     -10.569866      -287.6207 
  10   2.0000     -10.569184      -287.6021 
  11   2.0000     -10.565416      -287.4996 
  12   2.0000     -10.564532      -287.4755 
  13   2.0000     -10.563148      -287.4379 
  14   2.0000     -10.562084      -287.4089 
  15   2.0000     -10.561924      -287.4046 
  16   2.0000     -10.561731      -287.3993 
  17   2.0000     -10.561410      -287.3906 
  18   2.0000     -10.560661      -287.3702 
  19   2.0000     -10.560320      -287.3609 
  20   2.0000     -10.560157      -287.3565 
  21   2.0000     -10.559251      -287.3318 
  22   2.0000     -10.559047      -287.3263 
  23   2.0000      -6.909454      -188.0158 
  24   2.0000      -5.026686      -136.7831 
  25   2.0000      -5.026571      -136.7800 
  26   2.0000      -5.024770      -136.7309 
  27   2.0000      -1.231570       -33.5127 
  28   2.0000      -1.137958       -30.9654 
  29   2.0000      -1.065516       -28.9942 
  30   2.0000      -0.979512       -26.6539 
  31   2.0000      -0.967992       -26.3404 
  32   2.0000      -0.964773       -26.2528 
  33   2.0000      -0.879050       -23.9202 
  34   2.0000      -0.874533       -23.7972 
  35   2.0000      -0.854680       -23.2570 
  36   2.0000      -0.851822       -23.1793 
  37   2.0000      -0.850502       -23.1433 
  38   2.0000      -0.847479       -23.0611 
  39   2.0000      -0.760321       -20.6894 
  40   2.0000      -0.737123       -20.0581 
  41   2.0000      -0.703155       -19.1338 
  42   2.0000      -0.699147       -19.0248 
  43   2.0000      -0.695438       -18.9238 
  44   2.0000      -0.687629       -18.7113 
  45   2.0000      -0.676485       -18.4081 
  46   2.0000      -0.643875       -17.5207 
  47   2.0000      -0.610002       -16.5990 
  48   2.0000      -0.601966       -16.3803 
  49   2.0000      -0.584762       -15.9122 
  50   2.0000      -0.579398       -15.7662 
  51   2.0000      -0.560305       -15.2467 
  52   2.0000      -0.551263       -15.0006 
  53   2.0000      -0.535099       -14.5608 
  54   2.0000      -0.532183       -14.4814 
  55   2.0000      -0.528362       -14.3775 
  56   2.0000      -0.523526       -14.2459 
  57   2.0000      -0.517423       -14.0798 
  58   2.0000      -0.516647       -14.0587 
  59   2.0000      -0.500089       -13.6081 
  60   2.0000      -0.497514       -13.5381 
  61   2.0000      -0.495458       -13.4821 
  62   2.0000      -0.491890       -13.3850 
  63   2.0000      -0.481380       -13.0990 
  64   2.0000      -0.462651       -12.5894 
  65   2.0000      -0.453497       -12.3403 
  66   2.0000      -0.450062       -12.2468 
  67   2.0000      -0.443346       -12.0640 
  68   2.0000      -0.432918       -11.7803 
  69   2.0000      -0.425380       -11.5752 
  70   2.0000      -0.416867       -11.3435 
  71   2.0000      -0.412746       -11.2314 
  72   2.0000      -0.409987       -11.1563 
  73   2.0000      -0.409053       -11.1309 
  74   2.0000      -0.394636       -10.7386 
  75   2.0000      -0.365725        -9.9519 
  76   2.0000      -0.344542        -9.3755 
  77   2.0000      -0.340462        -9.2645 
  78   2.0000      -0.327774        -8.9192 
  79   2.0000      -0.326344        -8.8803 
  80   2.0000      -0.323412        -8.8005 
  81   2.0000      -0.318953        -8.6792 
  82   2.0000      -0.318202        -8.6587 
  83   2.0000      -0.313135        -8.5208 
  84   0.0000      -0.033713        -0.9174 
  85   0.0000      -0.013775        -0.3748 
  86   0.0000      -0.009727        -0.2647 
  87   0.0000      -0.004272        -0.1162 
  88   0.0000       0.004971         0.1353 
  89   0.0000       0.010622         0.2890 
  90   0.0000       0.064605         1.7580 
  91   0.0000       0.069879         1.9015 
  92   0.0000       0.076926         2.0933 
  93   0.0000       0.079149         2.1537 
  94   0.0000       0.080267         2.1842 
*Only the first 10 virtual orbitals were printed.

                    ********************************
                    * MULLIKEN POPULATION ANALYSIS *
                    ********************************

-----------------------
MULLIKEN ATOMIC CHARGES
-----------------------
   0 C :   -0.131312
   1 C :   -0.139828
   2 C :   -0.131654
   3 C :   -0.136704
   4 C :   -0.176899
   5 C :   -0.146488
   6 P :    0.669698
   7 O :   -0.593327
   8 C :   -0.041864
   9 C :   -0.198239
  10 C :   -0.140647
  11 C :   -0.136314
  12 C :   -0.135459
  13 C :   -0.165900
  14 C :   -0.206495
  15 C :   -0.086167
  16 C :   -0.164921
  17 C :   -0.114756
  18 C :   -0.171570
  19 C :    0.097502
  20 C :    0.305224
  21 O :   -0.328719
  22 O :   -0.408799
  23 H :    0.150305
  24 H :    0.151746
  25 H :    0.189564
  26 H :    0.194306
  27 H :    0.149838
  28 H :    0.188745
  29 H :    0.149854
  30 H :    0.149676
  31 H :    0.151213
  32 H :    0.186242
  33 H :    0.188660
  34 H :    0.154027
  35 H :    0.154490
  36 H :    0.173647
  37 H :    0.351326
Sum of atomic charges:   -0.0000000

--------------------------------
MULLIKEN REDUCED ORBITAL CHARGES
--------------------------------
  0 C s       :     3.227146  s :     3.227146
      pz      :     0.926993  p :     2.836690
      px      :     0.953042
      py      :     0.956656
      dz2     :     0.015915  d :     0.061210
      dxz     :     0.008948
      dyz     :     0.013087
      dx2y2   :     0.009415
      dxy     :     0.013845
      f0      :     0.000953  f :     0.006265
      f+1     :     0.000693
      f-1     :     0.000975
      f+2     :     0.001031
      f-2     :     0.001139
      f+3     :     0.000977
      f-3     :     0.000497

  1 C s       :     3.228073  s :     3.228073
      pz      :     0.925274  p :     2.846210
      px      :     0.928235
      py      :     0.992702
      dz2     :     0.016385  d :     0.059287
      dxz     :     0.006912
      dyz     :     0.012570
      dx2y2   :     0.014083
      dxy     :     0.009336
      f0      :     0.000933  f :     0.006257
      f+1     :     0.000891
      f-1     :     0.000790
      f+2     :     0.001177
      f-2     :     0.001008
      f+3     :     0.000482
      f-3     :     0.000977

  2 C s       :     3.200176  s :     3.200176
      pz      :     0.985709  p :     2.860841
      px      :     0.973689
      py      :     0.901443
      dz2     :     0.010337  d :     0.064127
      dxz     :     0.009036
      dyz     :     0.016368
      dx2y2   :     0.013638
      dxy     :     0.014747
      f0      :     0.000281  f :     0.006510
      f+1     :     0.000833
      f-1     :     0.001310
      f+2     :     0.001043
      f-2     :     0.000849
      f+3     :     0.001114
      f-3     :     0.001080

  3 C s       :     3.256231  s :     3.256231
      pz      :     0.921360  p :     2.799917
      px      :     0.951331
      py      :     0.927226
      dz2     :     0.019729  d :     0.073501
      dxz     :     0.008125
      dyz     :     0.016568
      dx2y2   :     0.009177
      dxy     :     0.019903
      f0      :     0.000948  f :     0.007055
      f+1     :     0.000885
      f-1     :     0.001114
      f+2     :     0.001212
      f-2     :     0.001255
      f+3     :     0.000940
      f-3     :     0.000701

  4 C s       :     3.195203  s :     3.195203
      pz      :     0.899321  p :     2.909641
      px      :     0.937104
      py      :     1.073216
      dz2     :     0.016949  d :     0.065590
      dxz     :     0.008787
      dyz     :     0.015260
      dx2y2   :     0.016298
      dxy     :     0.008295
      f0      :     0.000947  f :     0.006465
      f+1     :     0.000913
      f-1     :     0.000808
      f+2     :     0.001168
      f-2     :     0.001115
      f+3     :     0.000500
      f-3     :     0.001015

  5 C s       :     3.226036  s :     3.226036
      pz      :     1.005030  p :     2.854652
      px      :     0.963602
      py      :     0.886020
      dz2     :     0.008325  d :     0.059517
      dxz     :     0.008101
      dyz     :     0.015317
      dx2y2   :     0.011008
      dxy     :     0.016765
      f0      :     0.000274  f :     0.006284
      f+1     :     0.000823
      f-1     :     0.001202
      f+2     :     0.001066
      f-2     :     0.000905
      f+3     :     0.000995
      f-3     :     0.001019

  6 P s       :     5.294744  s :     5.294744
      pz      :     2.620903  p :     8.274259
      px      :     2.825669
      py      :     2.827687
      dz2     :     0.113463  d :     0.696639
      dxz     :     0.215053
      dyz     :     0.182478
      dx2y2   :     0.082817
      dxy     :     0.102829
      f0      :     0.010665  f :     0.064660
      f+1     :     0.014810
      f-1     :     0.015421
      f+2     :     0.007834
      f-2     :     0.007100
      f+3     :     0.003567
      f-3     :     0.005263

  7 O s       :     3.881262  s :     3.881262
      pz      :     1.377824  p :     4.686131
      px      :     1.653077
      py      :     1.655230
      dz2     :     0.009430  d :     0.024663
      dxz     :     0.007006
      dyz     :     0.007220
      dx2y2   :     0.000506
      dxy     :     0.000500
      f0      :     0.000480  f :     0.001271
      f+1     :     0.000324
      f-1     :     0.000355
      f+2     :     0.000054
      f-2     :     0.000054
      f+3     :     0.000003
      f-3     :     0.000002

  8 C s       :     3.216431  s :     3.216431
      pz      :     0.874016  p :     2.743163
      px      :     0.947612
      py      :     0.921535
      dz2     :     0.021907  d :     0.074969
      dxz     :     0.014049
      dyz     :     0.012381
      dx2y2   :     0.012717
      dxy     :     0.013915
      f0      :     0.001249  f :     0.007301
      f+1     :     0.001167
      f-1     :     0.000799
      f+2     :     0.001106
      f-2     :     0.001526
      f+3     :     0.000768
      f-3     :     0.000685

  9 C s       :     3.224592  s :     3.224592
      pz      :     0.919488  p :     2.901130
      px      :     1.010839
      py      :     0.970803
      dz2     :     0.011890  d :     0.065953
      dxz     :     0.016593
      dyz     :     0.012949
      dx2y2   :     0.014513
      dxy     :     0.010008
      f0      :     0.001108  f :     0.006563
      f+1     :     0.000774
      f-1     :     0.000726
      f+2     :     0.000771
      f-2     :     0.001361
      f+3     :     0.000657
      f-3     :     0.001167

 10 C s       :     3.221951  s :     3.221951
      pz      :     0.993838  p :     2.852477
      px      :     0.917030
      py      :     0.941608
      dz2     :     0.010972  d :     0.059917
      dxz     :     0.008380
      dyz     :     0.013935
      dx2y2   :     0.018706
      dxy     :     0.007922
      f0      :     0.000693  f :     0.006303
      f+1     :     0.000870
      f-1     :     0.000825
      f+2     :     0.000777
      f-2     :     0.001192
      f+3     :     0.000775
      f-3     :     0.001170

 11 C s       :     3.228539  s :     3.228539
      pz      :     0.898733  p :     2.840440
      px      :     0.954994
      py      :     0.986713
      dz2     :     0.017780  d :     0.061050
      dxz     :     0.011561
      dyz     :     0.013143
      dx2y2   :     0.007748
      dxy     :     0.010818
      f0      :     0.001121  f :     0.006285
      f+1     :     0.001092
      f-1     :     0.000735
      f+2     :     0.000964
      f-2     :     0.001196
      f+3     :     0.000775
      f-3     :     0.000402

 12 C s       :     3.224634  s :     3.224634
      pz      :     0.955078  p :     2.844942
      px      :     0.969098
      py      :     0.920766
      dz2     :     0.012851  d :     0.059611
      dxz     :     0.013669
      dyz     :     0.009321
      dx2y2   :     0.013307
      dxy     :     0.010464
      f0      :     0.001074  f :     0.006271
      f+1     :     0.000806
      f-1     :     0.000727
      f+2     :     0.000641
      f-2     :     0.001298
      f+3     :     0.000609
      f-3     :     0.001115

 13 C s       :     3.217892  s :     3.217892
      pz      :     0.986661  p :     2.877048
      px      :     0.927584
      py      :     0.962803
      dz2     :     0.011784  d :     0.064401
      dxz     :     0.009108
      dyz     :     0.016688
      dx2y2   :     0.018959
      dxy     :     0.007862
      f0      :     0.000720  f :     0.006559
      f+1     :     0.000863
      f-1     :     0.000858
      f+2     :     0.000819
      f-2     :     0.001177
      f+3     :     0.000868
      f-3     :     0.001255

 14 C s       :     3.286931  s :     3.286931
      pz      :     0.897054  p :     2.832593
      px      :     0.964669
      py      :     0.970869
      dz2     :     0.017901  d :     0.080049
      dxz     :     0.024807
      dyz     :     0.010393
      dx2y2   :     0.015161
      dxy     :     0.011787
      f0      :     0.001020  f :     0.006922
      f+1     :     0.001106
      f-1     :     0.000859
      f+2     :     0.001042
      f-2     :     0.001123
      f+3     :     0.001032
      f-3     :     0.000739

 15 C s       :     3.183457  s :     3.183457
      pz      :     0.888362  p :     2.835311
      px      :     1.010450
      py      :     0.936499
      dz2     :     0.017307  d :     0.060849
      dxz     :     0.011429
      dyz     :     0.010664
      dx2y2   :     0.007428
      dxy     :     0.014021
      f0      :     0.001050  f :     0.006551
      f+1     :     0.001269
      f-1     :     0.000651
      f+2     :     0.000953
      f-2     :     0.001248
      f+3     :     0.000447
      f-3     :     0.000933

 16 C s       :     3.245821  s :     3.245821
      pz      :     1.004279  p :     2.852648
      px      :     0.890112
      py      :     0.958257
      dz2     :     0.010074  d :     0.060201
      dxz     :     0.014889
      dyz     :     0.007711
      dx2y2   :     0.010866
      dxy     :     0.016660
      f0      :     0.000304  f :     0.006252
      f+1     :     0.001303
      f-1     :     0.000763
      f+2     :     0.000954
      f-2     :     0.000946
      f+3     :     0.001032
      f-3     :     0.000949

 17 C s       :     3.221459  s :     3.221459
      pz      :     0.926312  p :     2.826813
      px      :     0.973150
      py      :     0.927352
      dz2     :     0.014171  d :     0.060226
      dxz     :     0.014799
      dyz     :     0.009282
      dx2y2   :     0.013854
      dxy     :     0.008119
      f0      :     0.001025  f :     0.006258
      f+1     :     0.000939
      f-1     :     0.000806
      f+2     :     0.001116
      f-2     :     0.000896
      f+3     :     0.000991
      f-3     :     0.000485

 18 C s       :     3.231945  s :     3.231945
      pz      :     0.943389  p :     2.870840
      px      :     0.975058
      py      :     0.952393
      dz2     :     0.015711  d :     0.062325
      dxz     :     0.014869
      dyz     :     0.010024
      dx2y2   :     0.008807
      dxy     :     0.012913
      f0      :     0.001041  f :     0.006459
      f+1     :     0.001245
      f-1     :     0.000675
      f+2     :     0.000977
      f-2     :     0.001209
      f+3     :     0.000447
      f-3     :     0.000865

 19 C s       :     3.158265  s :     3.158265
      pz      :     0.859037  p :     2.651484
      px      :     0.866058
      py      :     0.926389
      dz2     :     0.019431  d :     0.084141
      dxz     :     0.014420
      dyz     :     0.014294
      dx2y2   :     0.017556
      dxy     :     0.018439
      f0      :     0.000691  f :     0.008608
      f+1     :     0.001758
      f-1     :     0.001265
      f+2     :     0.001187
      f-2     :     0.001380
      f+3     :     0.001251
      f-3     :     0.001075

 20 C s       :     3.055087  s :     3.055087
      pz      :     0.868107  p :     2.330668
      px      :     0.707229
      py      :     0.755332
      dz2     :     0.076519  d :     0.286770
      dxz     :     0.047344
      dyz     :     0.041668
      dx2y2   :     0.060461
      dxy     :     0.060779
      f0      :     0.003036  f :     0.022250
      f+1     :     0.004436
      f-1     :     0.001243
      f+2     :     0.002173
      f-2     :     0.004790
      f+3     :     0.004256
      f-3     :     0.002316

 21 O s       :     3.828100  s :     3.828100
      pz      :     1.480833  p :     4.468114
      px      :     1.444808
      py      :     1.542473
      dz2     :     0.006799  d :     0.030509
      dxz     :     0.008672
      dyz     :     0.004200
      dx2y2   :     0.004999
      dxy     :     0.005839
      f0      :     0.000222  f :     0.001996
      f+1     :     0.000547
      f-1     :     0.000052
      f+2     :     0.000426
      f-2     :     0.000364
      f+3     :     0.000167
      f-3     :     0.000218

 22 O s       :     3.784238  s :     3.784238
      pz      :     1.456795  p :     4.593138
      px      :     1.521115
      py      :     1.615228
      dz2     :     0.009221  d :     0.029692
      dxz     :     0.003773
      dyz     :     0.003439
      dx2y2   :     0.005994
      dxy     :     0.007266
      f0      :     0.000242  f :     0.001731
      f+1     :     0.000065
      f-1     :     0.000409
      f+2     :     0.000110
      f-2     :     0.000191
      f+3     :     0.000298
      f-3     :     0.000416

 23 H s       :     0.830026  s :     0.830026
      pz      :     0.004771  p :     0.019669
      px      :     0.005857
      py      :     0.009040

 24 H s       :     0.828503  s :     0.828503
      pz      :     0.004830  p :     0.019751
      px      :     0.003422
      py      :     0.011499

 25 H s       :     0.789824  s :     0.789824
      pz      :     0.011099  p :     0.020612
      px      :     0.006683
      py      :     0.002831

 26 H s       :     0.785279  s :     0.785279
      pz      :     0.004589  p :     0.020415
      px      :     0.003429
      py      :     0.012397

 27 H s       :     0.830436  s :     0.830436
      pz      :     0.009962  p :     0.019726
      px      :     0.006862
      py      :     0.002902

 28 H s       :     0.791398  s :     0.791398
      pz      :     0.007449  p :     0.019857
      px      :     0.008495
      py      :     0.003914

 29 H s       :     0.830444  s :     0.830444
      pz      :     0.010335  p :     0.019703
      px      :     0.003348
      py      :     0.006020

 30 H s       :     0.830662  s :     0.830662
      pz      :     0.003158  p :     0.019663
      px      :     0.006519
      py      :     0.009985

 31 H s       :     0.829070  s :     0.829070
      pz      :     0.007848  p :     0.019717
      px      :     0.007952
      py      :     0.003918

 32 H s       :     0.793421  s :     0.793421
      pz      :     0.010822  p :     0.020337
      px      :     0.003168
      py      :     0.006348

 33 H s       :     0.790214  s :     0.790214
      pz      :     0.004425  p :     0.021125
      px      :     0.010448
      py      :     0.006253

 34 H s       :     0.826222  s :     0.826222
      pz      :     0.011010  p :     0.019750
      px      :     0.002763
      py      :     0.005978

 35 H s       :     0.825708  s :     0.825708
      pz      :     0.005259  p :     0.019802
      px      :     0.011140
      py      :     0.003402

 36 H s       :     0.805973  s :     0.805973
      pz      :     0.005295  p :     0.020380
      px      :     0.009658
      py      :     0.005427

 37 H s       :     0.605941  s :     0.605941
      pz      :     0.019452  p :     0.042733
      px      :     0.009711
      py      :     0.013570



                     *******************************
                     * LOEWDIN POPULATION ANALYSIS *
                     *******************************

----------------------
LOEWDIN ATOMIC CHARGES
----------------------
   0 C :   -0.131257
   1 C :   -0.135042
   2 C :   -0.114643
   3 C :   -0.233340
   4 C :   -0.137508
   5 C :   -0.141598
   6 P :    0.692118
   7 O :   -0.302974
   8 C :   -0.235377
   9 C :   -0.138418
  10 C :   -0.139697
  11 C :   -0.132811
  12 C :   -0.135767
  13 C :   -0.119415
  14 C :   -0.180737
  15 C :   -0.126717
  16 C :   -0.125869
  17 C :   -0.123883
  18 C :   -0.076343
  19 C :   -0.099238
  20 C :   -0.441364
  21 O :    0.096128
  22 O :    0.111392
  23 H :    0.149014
  24 H :    0.150154
  25 H :    0.161808
  26 H :    0.156605
  27 H :    0.149079
  28 H :    0.155275
  29 H :    0.148964
  30 H :    0.148751
  31 H :    0.149627
  32 H :    0.160462
  33 H :    0.161858
  34 H :    0.151497
  35 H :    0.151902
  36 H :    0.163581
  37 H :    0.213781

-------------------------------
LOEWDIN REDUCED ORBITAL CHARGES
-------------------------------
  0 C s       :     2.779659  s :     2.779659
      pz      :     0.991260  p :     2.936967
      px      :     0.928094
      py      :     1.017613
      dz2     :     0.077648  d :     0.374205
      dxz     :     0.050393
      dyz     :     0.109285
      dx2y2   :     0.054013
      dxy     :     0.082867
      f0      :     0.005554  f :     0.040426
      f+1     :     0.004652
      f-1     :     0.007864
      f+2     :     0.005559
      f-2     :     0.006624
      f+3     :     0.005891
      f-3     :     0.004282

  1 C s       :     2.778089  s :     2.778089
      pz      :     0.993605  p :     2.944481
      px      :     0.950862
      py      :     1.000014
      dz2     :     0.077378  d :     0.372043
      dxz     :     0.061459
      dyz     :     0.098588
      dx2y2   :     0.082342
      dxy     :     0.052276
      f0      :     0.005439  f :     0.040429
      f+1     :     0.005480
      f-1     :     0.007170
      f+2     :     0.005010
      f-2     :     0.007317
      f+3     :     0.004094
      f-3     :     0.005920

  2 C s       :     2.776397  s :     2.776397
      pz      :     0.958377  p :     2.917474
      px      :     0.913666
      py      :     1.045431
      dz2     :     0.065219  d :     0.379720
      dxz     :     0.048288
      dyz     :     0.089593
      dx2y2   :     0.090421
      dxy     :     0.086200
      f0      :     0.002259  f :     0.041051
      f+1     :     0.002982
      f-1     :     0.010253
      f+2     :     0.005293
      f-2     :     0.006837
      f+3     :     0.006549
      f-3     :     0.006878

  3 C s       :     2.771237  s :     2.771237
      pz      :     1.005072  p :     2.986038
      px      :     0.944661
      py      :     1.036306
      dz2     :     0.087024  d :     0.432298
      dxz     :     0.061044
      dyz     :     0.120877
      dx2y2   :     0.068160
      dxy     :     0.095193
      f0      :     0.005605  f :     0.043767
      f+1     :     0.005045
      f-1     :     0.008568
      f+2     :     0.006247
      f-2     :     0.007170
      f+3     :     0.005960
      f-3     :     0.005172

  4 C s       :     2.776241  s :     2.776241
      pz      :     0.984140  p :     2.937793
      px      :     0.947256
      py      :     1.006397
      dz2     :     0.080323  d :     0.382569
      dxz     :     0.061562
      dyz     :     0.099356
      dx2y2   :     0.086692
      dxy     :     0.054635
      f0      :     0.005669  f :     0.040905
      f+1     :     0.005393
      f-1     :     0.007083
      f+2     :     0.005011
      f-2     :     0.007325
      f+3     :     0.004204
      f-3     :     0.006221

  5 C s       :     2.778088  s :     2.778088
      pz      :     0.958078  p :     2.949468
      px      :     0.932289
      py      :     1.059102
      dz2     :     0.060701  d :     0.373555
      dxz     :     0.048876
      dyz     :     0.088891
      dx2y2   :     0.090512
      dxy     :     0.084574
      f0      :     0.002291  f :     0.040486
      f+1     :     0.002925
      f-1     :     0.009851
      f+2     :     0.005277
      f-2     :     0.006796
      f+3     :     0.006382
      f-3     :     0.006964

  6 P s       :     4.645297  s :     4.645297
      pz      :     2.725436  p :     8.263027
      px      :     2.762307
      py      :     2.775285
      dz2     :     0.250921  d :     1.179482
      dxz     :     0.321776
      dyz     :     0.279773
      dx2y2   :     0.141800
      dxy     :     0.185212
      f0      :     0.043562  f :     0.220075
      f+1     :     0.047475
      f-1     :     0.048901
      f+2     :     0.025050
      f-2     :     0.024019
      f+3     :     0.012995
      f-3     :     0.018075

  7 O s       :     3.539364  s :     3.539364
      pz      :     1.526773  p :     4.719691
      px      :     1.593691
      py      :     1.599227
      dz2     :     0.022397  d :     0.041797
      dxz     :     0.008517
      dyz     :     0.009539
      dx2y2   :     0.000662
      dxy     :     0.000682
      f0      :     0.000949  f :     0.002123
      f+1     :     0.000458
      f-1     :     0.000547
      f+2     :     0.000063
      f-2     :     0.000093
      f+3     :     0.000008
      f-3     :     0.000003

  8 C s       :     2.770718  s :     2.770718
      pz      :     1.033952  p :     2.984892
      px      :     0.969105
      py      :     0.981834
      dz2     :     0.121009  d :     0.435569
      dxz     :     0.090980
      dyz     :     0.086011
      dx2y2   :     0.056343
      dxy     :     0.081227
      f0      :     0.006976  f :     0.044198
      f+1     :     0.008507
      f-1     :     0.006143
      f+2     :     0.007337
      f-2     :     0.007547
      f+3     :     0.003797
      f-3     :     0.003891

  9 C s       :     2.775450  s :     2.775450
      pz      :     0.991580  p :     2.939905
      px      :     0.948899
      py      :     0.999426
      dz2     :     0.068402  d :     0.382035
      dxz     :     0.088398
      dyz     :     0.094414
      dx2y2   :     0.071195
      dxy     :     0.059626
      f0      :     0.007897  f :     0.041028
      f+1     :     0.005614
      f-1     :     0.005690
      f+2     :     0.004532
      f-2     :     0.006509
      f+3     :     0.004605
      f-3     :     0.006180

 10 C s       :     2.778045  s :     2.778045
      pz      :     0.979226  p :     2.947130
      px      :     0.980664
      py      :     0.987241
      dz2     :     0.073691  d :     0.373976
      dxz     :     0.055354
      dyz     :     0.094178
      dx2y2   :     0.077941
      dxy     :     0.072811
      f0      :     0.005455  f :     0.040546
      f+1     :     0.006536
      f-1     :     0.004681
      f+2     :     0.005573
      f-2     :     0.006778
      f+3     :     0.004790
      f-3     :     0.006733

 11 C s       :     2.779382  s :     2.779382
      pz      :     1.029302  p :     2.939405
      px      :     0.952756
      py      :     0.957347
      dz2     :     0.112918  d :     0.373617
      dxz     :     0.083407
      dyz     :     0.074104
      dx2y2   :     0.037019
      dxy     :     0.066169
      f0      :     0.006579  f :     0.040407
      f+1     :     0.008127
      f-1     :     0.005720
      f+2     :     0.007047
      f-2     :     0.006619
      f+3     :     0.003650
      f-3     :     0.002666

 12 C s       :     2.778109  s :     2.778109
      pz      :     0.997469  p :     2.944081
      px      :     0.944853
      py      :     1.001758
      dz2     :     0.067644  d :     0.373089
      dxz     :     0.085810
      dyz     :     0.095171
      dx2y2   :     0.066475
      dxy     :     0.057990
      f0      :     0.007757  f :     0.040489
      f+1     :     0.005651
      f-1     :     0.005660
      f+2     :     0.004393
      f-2     :     0.006546
      f+3     :     0.004528
      f-3     :     0.005954

 13 C s       :     2.775339  s :     2.775339
      pz      :     0.979975  p :     2.923655
      px      :     0.963506
      py      :     0.980174
      dz2     :     0.075740  d :     0.379308
      dxz     :     0.055938
      dyz     :     0.095798
      dx2y2   :     0.077906
      dxy     :     0.073927
      f0      :     0.005620  f :     0.041113
      f+1     :     0.006457
      f-1     :     0.004772
      f+2     :     0.005802
      f-2     :     0.006935
      f+3     :     0.004858
      f-3     :     0.006669

 14 C s       :     2.771043  s :     2.771043
      pz      :     1.009749  p :     2.948865
      px      :     1.011121
      py      :     0.927996
      dz2     :     0.087587  d :     0.418133
      dxz     :     0.127167
      dyz     :     0.064786
      dx2y2   :     0.080535
      dxy     :     0.058058
      f0      :     0.006003  f :     0.042697
      f+1     :     0.009133
      f-1     :     0.005579
      f+2     :     0.004673
      f-2     :     0.006924
      f+3     :     0.005601
      f-3     :     0.004782

 15 C s       :     2.774499  s :     2.774499
      pz      :     0.997158  p :     2.930731
      px      :     1.014842
      py      :     0.918731
      dz2     :     0.090072  d :     0.380778
      dxz     :     0.114612
      dyz     :     0.056264
      dx2y2   :     0.046640
      dxy     :     0.073190
      f0      :     0.005817  f :     0.040709
      f+1     :     0.009759
      f-1     :     0.004746
      f+2     :     0.005315
      f-2     :     0.006415
      f+3     :     0.003557
      f-3     :     0.005100

 16 C s       :     2.778278  s :     2.778278
      pz      :     0.966272  p :     2.932957
      px      :     1.055733
      py      :     0.910953
      dz2     :     0.076047  d :     0.373993
      dxz     :     0.089230
      dyz     :     0.045533
      dx2y2   :     0.083619
      dxy     :     0.079563
      f0      :     0.002362  f :     0.040640
      f+1     :     0.010905
      f-1     :     0.002981
      f+2     :     0.005289
      f-2     :     0.007079
      f+3     :     0.006278
      f-3     :     0.005747

 17 C s       :     2.777148  s :     2.777148
      pz      :     1.005594  p :     2.934028
      px      :     1.002050
      py      :     0.926384
      dz2     :     0.079432  d :     0.371951
      dxz     :     0.113859
[...]
      dxz     :     0.196113
      dyz     :     0.121882
      dx2y2   :     0.197709
      dxy     :     0.197688
      f0      :     0.020461  f :     0.147643
      f+1     :     0.031298
      f-1     :     0.008604
      f+2     :     0.015308
      f-2     :     0.029565
      f+3     :     0.023686
      f-3     :     0.018722

 21 O s       :     3.409683  s :     3.409683
      pz      :     1.486407  p :     4.422869
      px      :     1.497251
      py      :     1.439211
      dz2     :     0.012071  d :     0.065488
      dxz     :     0.024962
      dyz     :     0.006560
      dx2y2   :     0.012636
      dxy     :     0.009259
      f0      :     0.000651  f :     0.005831
      f+1     :     0.001594
      f-1     :     0.000112
      f+2     :     0.001544
      f-2     :     0.000852
      f+3     :     0.000581
      f-3     :     0.000497

 22 O s       :     3.336315  s :     3.336315
      pz      :     1.410059  p :     4.481327
      px      :     1.531350
      py      :     1.539918
      dz2     :     0.018019  d :     0.066203
      dxz     :     0.009204
      dyz     :     0.009639
      dx2y2   :     0.012526
      dxy     :     0.016814
      f0      :     0.000974  f :     0.004763
      f+1     :     0.000446
      f-1     :     0.000692
      f+2     :     0.000236
      f-2     :     0.000628
      f+3     :     0.000780
      f-3     :     0.001008

 23 H s       :     0.795198  s :     0.795198
      pz      :     0.014523  p :     0.055788
      px      :     0.016808
      py      :     0.024457

 24 H s       :     0.793909  s :     0.793909
      pz      :     0.014640  p :     0.055936
      px      :     0.011208
      py      :     0.030089

 25 H s       :     0.779938  s :     0.779938
      pz      :     0.029400  p :     0.058254
      px      :     0.019032
      py      :     0.009822

 26 H s       :     0.785337  s :     0.785337
      pz      :     0.014235  p :     0.058057
      px      :     0.011555
      py      :     0.032267

 27 H s       :     0.794951  s :     0.794951
      pz      :     0.026423  p :     0.055971
      px      :     0.019161
      py      :     0.010387

 28 H s       :     0.787300  s :     0.787300
      pz      :     0.021315  p :     0.057426
      px      :     0.023385
      py      :     0.012725

 29 H s       :     0.795113  s :     0.795113
      pz      :     0.027391  p :     0.055923
      px      :     0.011202
      py      :     0.017331

 30 H s       :     0.795430  s :     0.795430
      pz      :     0.010881  p :     0.055820
      px      :     0.018410
      py      :     0.026529

 31 H s       :     0.794484  s :     0.794484
      pz      :     0.021657  p :     0.055890
      px      :     0.021707
      py      :     0.012525

 32 H s       :     0.781798  s :     0.781798
      pz      :     0.029016  p :     0.057741
      px      :     0.010601
      py      :     0.018124

 33 H s       :     0.778670  s :     0.778670
      pz      :     0.013673  p :     0.059472
      px      :     0.027930
      py      :     0.017869

 34 H s       :     0.792544  s :     0.792544
      pz      :     0.028837  p :     0.055959
      px      :     0.010029
      py      :     0.017093

 35 H s       :     0.792154  s :     0.792154
      pz      :     0.015594  p :     0.055943
      px      :     0.029283
      py      :     0.011067

 36 H s       :     0.779047  s :     0.779047
      pz      :     0.015524  p :     0.057372
      px      :     0.025876
      py      :     0.015971

 37 H s       :     0.642738  s :     0.642738
      pz      :     0.076018  p :     0.143481
      px      :     0.028995
      py      :     0.038468



                      *****************************
                      * MAYER POPULATION ANALYSIS *
                      *****************************

  NA   - Mulliken gross atomic population
  ZA   - Total nuclear charge
  QA   - Mulliken gross atomic charge
  VA   - Mayer's total valence
  BVA  - Mayer's bonded valence
  FA   - Mayer's free valence

  ATOM       NA         ZA         QA         VA         BVA        FA
  0 C      6.1313     6.0000    -0.1313     3.9267     3.9267     0.0000
  1 C      6.1398     6.0000    -0.1398     3.9251     3.9251    -0.0000
  2 C      6.1317     6.0000    -0.1317     3.9474     3.9474    -0.0000
  3 C      6.1367     6.0000    -0.1367     3.7740     3.7740    -0.0000
  4 C      6.1769     6.0000    -0.1769     3.8642     3.8642    -0.0000
  5 C      6.1465     6.0000    -0.1465     3.9872     3.9872    -0.0000
  6 P     14.3303    15.0000     0.6697     4.9001     4.9001    -0.0000
  7 O      8.5933     8.0000    -0.5933     1.9784     1.9784    -0.0000
  8 C      6.0419     6.0000    -0.0419     3.7027     3.7027     0.0000
  9 C      6.1982     6.0000    -0.1982     3.8876     3.8876     0.0000
 10 C      6.1406     6.0000    -0.1406     3.9792     3.9792     0.0000
 11 C      6.1363     6.0000    -0.1363     3.9348     3.9348     0.0000
 12 C      6.1355     6.0000    -0.1355     3.9259     3.9259     0.0000
 13 C      6.1659     6.0000    -0.1659     3.9679     3.9679     0.0000
 14 C      6.2065     6.0000    -0.2065     3.8216     3.8216     0.0000
 15 C      6.0862     6.0000    -0.0862     3.8019     3.8019     0.0000
 16 C      6.1649     6.0000    -0.1649     3.9920     3.9920    -0.0000
 17 C      6.1148     6.0000    -0.1148     3.8983     3.8983    -0.0000
 18 C      6.1716     6.0000    -0.1716     3.9965     3.9965    -0.0000
 19 C      5.9025     6.0000     0.0975     3.7269     3.7269    -0.0000
 20 C      5.6948     6.0000     0.3052     4.2760     4.2760    -0.0000
 21 O      8.3287     8.0000    -0.3287     2.1427     2.1427    -0.0000
 22 O      8.4088     8.0000    -0.4088     2.0235     2.0235    -0.0000
 23 H      0.8497     1.0000     0.1503     0.9629     0.9629     0.0000
 24 H      0.8483     1.0000     0.1517     0.9650     0.9650     0.0000
 25 H      0.8104     1.0000     0.1896     0.9745     0.9745    -0.0000
 26 H      0.8057     1.0000     0.1943     0.9426     0.9426    -0.0000
 27 H      0.8502     1.0000     0.1498     0.9650     0.9650    -0.0000
 28 H      0.8113     1.0000     0.1887     0.9488     0.9488     0.0000
 29 H      0.8501     1.0000     0.1499     0.9643     0.9643     0.0000
 30 H      0.8503     1.0000     0.1497     0.9630     0.9630     0.0000
 31 H      0.8488     1.0000     0.1512     0.9646     0.9646     0.0000
 32 H      0.8138     1.0000     0.1862     0.9711     0.9711     0.0000
 33 H      0.8113     1.0000     0.1887     0.9453     0.9453     0.0000
 34 H      0.8460     1.0000     0.1540     0.9647     0.9647     0.0000
 35 H      0.8455     1.0000     0.1545     0.9638     0.9638     0.0000
 36 H      0.8264     1.0000     0.1736     0.9692     0.9692    -0.0000
 37 H      0.6487     1.0000     0.3513     0.9060     0.9060    -0.0000

  Mayer bond orders larger than 0.100000
B(  0-C ,  1-C ) :   1.4301 B(  0-C ,  5-C ) :   1.4375 B(  0-C , 23-H ) :   0.9470 
B(  1-C ,  2-C ) :   1.4398 B(  1-C , 24-H ) :   0.9472 B(  2-C ,  3-C ) :   1.4397 
B(  2-C , 25-H ) :   0.9083 B(  3-C ,  4-C ) :   1.3325 B(  3-C ,  6-P ) :   0.9019 
B(  4-C ,  5-C ) :   1.4805 B(  4-C , 26-H ) :   0.9162 B(  5-C , 27-H ) :   0.9445 
B(  6-P ,  7-O ) :   1.9212 B(  6-P ,  8-C ) :   0.9187 B(  6-P , 14-C ) :   0.9134 
B(  8-C ,  9-C ) :   1.3237 B(  8-C , 13-C ) :   1.4199 B(  9-C , 10-C ) :   1.4698 
B(  9-C , 28-H ) :   0.9289 B( 10-C , 11-C ) :   1.4423 B( 10-C , 29-H ) :   0.9423 
B( 11-C , 12-C ) :   1.4311 B( 11-C , 30-H ) :   0.9462 B( 12-C , 13-C ) :   1.4426 
B( 12-C , 31-H ) :   0.9463 B( 13-C , 32-H ) :   0.9126 B( 14-C , 15-C ) :   1.3369 
B( 14-C , 19-C ) :   1.3423 B( 15-C , 16-C ) :   1.4461 B( 15-C , 33-H ) :   0.9242 
B( 16-C , 17-C ) :   1.4401 B( 16-C , 34-H ) :   0.9403 B( 17-C , 18-C ) :   1.4285 
B( 17-C , 35-H ) :   0.9477 B( 18-C , 19-C ) :   1.4523 B( 18-C , 36-H ) :   0.9158 
B( 19-C , 20-C ) :   0.9326 B( 20-C , 21-O ) :   2.0624 B( 20-C , 22-O ) :   1.1957 
B( 22-O , 37-H ) :   0.8488 

-------
TIMINGS
-------

Total SCF time: 0 days 0 hours 2 min 57 sec 

Total time                  ....     177.619 sec
Sum of individual times     ....     177.686 sec  (100.0%)

SCF preparation             ....       0.437 sec  (  0.2%)
Fock matrix formation       ....     171.977 sec  ( 96.8%)
  Startup                   ....       0.170 sec  (  0.1% of F)
  Split-RI-J                ....      14.551 sec  (  8.5% of F)
  Chain of spheres X        ....     121.275 sec  ( 70.5% of F)
  XC integration            ....      35.507 sec  ( 20.6% of F)
    Basis function eval.    ....       5.308 sec  ( 14.9% of XC)
    Density eval.           ....      15.190 sec  ( 42.8% of XC)
    XC-Functional eval.     ....       0.502 sec  (  1.4% of XC)
    XC-Potential eval.      ....      12.665 sec  ( 35.7% of XC)
Diagonalization             ....       0.000 sec  (  0.0%)
Density matrix formation    ....       0.451 sec  (  0.3%)
Total Energy calculation    ....       0.178 sec  (  0.1%)
Population analysis         ....       0.250 sec  (  0.1%)
Orbital Transformation      ....       0.610 sec  (  0.3%)
Orbital Orthonormalization  ....       0.000 sec  (  0.0%)
DIIS solution               ....       2.571 sec  (  1.4%)
SOSCF solution              ....       1.212 sec  (  0.7%)
Finished LeanSCF after 177.7 sec

Maximum memory used throughout the entire LEANSCF-calculation: 120.5 MB


-------------------------------------------------------------------------------
                          DFT DISPERSION CORRECTION                            
                                                                               
                              DFTD3 V3.1  Rev 1                                
                              USING zero damping                               
-------------------------------------------------------------------------------
The M062X functional is recognized
Active option DFTDOPT                   ...         3   

molecular C6(AA) [au] = 20718.031261 


            DFT-D V3
 parameters
 s6 scaling factor         :     1.0000 
 rs6 scaling factor        :     1.6190 
 s8 scaling factor         :     0.0000 
 rs8 scaling factor        :     1.0000 
 Damping factor alpha6     :    14.0000 
 Damping factor alpha8     :    16.0000 
 ad hoc parameters k1-k3   :    16.0000     1.3333    -4.0000 

 Edisp/kcal,au: -1.776874066525  -0.002831628765 
 E6   /kcal   :  -1.776874067 
 E8   /kcal   :  -0.000000000 
 % E8         :   0.000000000 

-------------------------   ----------------
Dispersion correction           -0.002831629
-------------------------   ----------------


-------------------------   --------------------
FINAL SINGLE POINT ENERGY     -1300.099772926974
-------------------------   --------------------



           ************************************************************
           *        Program running with 6 parallel MPI-processes     *
           *              working on a common directory               *
           ************************************************************

------------------------------------------------------------------------------
                              ORCA PROPERTY CALCULATIONS
------------------------------------------------------------------------------

GBWName                                 ... data/single_point_PO_M06-2x/87021/87021.gbw
Number of atoms                         ...     38
Number of basis functions               ...    809
Max core memory                         ...   1024 MB

Electric properties:
Dipole moment                           ... YES
Quadrupole moment                       ...  NO
Static polarizability (Dipole/Dipole)   ...  NO
Static polarizability (Dipole/Quad.)    ...  NO
Static polarizability (Quad./Quad.)     ...  NO
Static polarizability (Velocity)        ...  NO

Atomic electric properties:
Dipole moment                           ...  NO
Quadrupole moment                       ...  NO
Static polarizability                   ...  NO

Choice of electric origin               ... Center of mass
Position of electric origin             ...     0.408189     0.100640    -0.594641

General magnetic properties:
Magnetizability                         ...  NO

EPR properties:
g-Tensor (aka g-matrix)                 ...  NO
Zero-Field splitting spin-orbit         ...  NO
Zero-field splitting spin-spin          ...  NO
Hyperfine couplings                     ...  NO (   0 nuclei)
Quadrupole couplings                    ...  NO (   0 nuclei)
Contact density                         ...  NO (   0 nuclei)

NMR properties:
Chemical shifts                         ...  NO (   0 nuclei)
Spin-rotation constants                 ...  NO (   0 nuclei)
Spin-spin couplings                     ...  NO (   0 nuclei,    0 pairs)

Choice of magnetic origin               ... GIAO
Position of magnetic origin             ...     0.000000     0.000000     0.000000

Properties with geometric perturbations:
SCF Hessian                             ...  NO
IR spectrum                             ...  NO
VCD spectrum                            ...  NO
X-ray spectroscopy properties:
SCF XES/XAS/RIXS spectra                ...  NO


-------------
DIPOLE MOMENT
-------------

Method             : SCF
Type of density    : Electron Density
Multiplicity       :   1
Irrep              :   0
Energy             : -1300.0969412982092308 Eh
Relativity type    : 
Basis              : AO
                                X                 Y                 Z
Electronic contribution:      6.073758271       1.545057252      -7.579414001
Nuclear contribution   :     -6.914467284      -1.379551383       9.634443195
                        -----------------------------------------
Total Dipole Moment    :     -0.840709013       0.165505869       2.055029194
                        -----------------------------------------
Magnitude (a.u.)       :      2.226505968
Magnitude (Debye)      :      5.659328416



--------------------
Rotational spectrum 
--------------------
 
Rotational constants in cm-1:             0.009512             0.007951             0.005693 
Rotational constants in MHz :           285.168150           238.357034           170.674646 

Dipole components along the rotational axes: 
x,y,z [a.u.] :     1.063131    -0.094373     1.954015 
x,y,z [Debye]:     2.702264    -0.239878     4.966712 

 

Dipole moment calculation done in   0.1 sec 

Maximum memory used throughout the entire PROP-calculation: 66.1 MB

--------------------------------
SUGGESTED CITATIONS FOR THIS RUN
--------------------------------

Below you find a list of papers that are relevant to this ORCA run
We neither can nor want to force you to cite these papers, but we appreciate if you do
You receive ORCA, which is the product of decades of hard work by many enthusiastic individuals, for free
The only thing we kindly ask in return is that you cite our papers,
We deeply appreciate it, if you show your appreciation for ORCA by not just citing the generic ORCA reference.

Please note that relegating all ORCA citations to the supporting information does *not* help us.
SI sections are not indexed - citations you put there will not count into any citation statistics
But we need these citations in order to attract the funding resources that allow us to do what we are doing

Therefore, if you are a happy ORCA user, please consider citing a few of the papers listed below in the main body of your paper

In addition to the list printed below, the program has created the file data/single_point_PO_M06-2x/87021/87021.bibtex that contains the list in bibtex format
You can import this file easily into all common literature databanks and citation aid programs


List of essential papers. We consider these as the minimum necessary citations

  1. Neese,F.
     Software update: the ORCA program system, version 5.0
     WIRES Comput. Molec. Sci., 2022 12(1)e1606
     doi.org/10.1002/wcms.1606

List of papers to cite with high priority. The work reported in these papers was absolutely
necessary for this run to complete.
Our perspective: the developers of density functionals and basis sets usually get cited in chemistry papers
Good! But without the algorithms to do something with them, the functionals or basis sets would not do anything.
Hence, in our opinion, the algorithm design and method developments papers are equally worthy of getting cited

  1. Neese,F.
     An improvement of the resolution of the identity approximation for the formation of the Coulomb matrix
     J. Comp. Chem., 2003 24(14)1740-1747
     doi.org/10.1002/jcc.10318
  2. Neese,F.; Wennmohs,F.; Hansen,A.; Becker,U.
     Efficient, approximate and parallel Hartree-Fock and hybrid DFT calculations. A 'chain-of-spheres' algorithm for the Hartree-Fock exchange
     Chem. Phys., 2009 356(1-3)98-109
     doi.org/10.1016/j.chemphys.2008.10.036
  3. Helmich-Paris,B.; de Souza,B.; Neese,F.; Izsák,R.
     An improved chain of spheres for exchange algorithm
     J. Chem. Phys., 2021 155 104109
     doi.org/doi: 10.1063/5.0058766.
  4. Neese,F.
     The SHARK Integral Generation and Digestion System
     J. Comp. Chem., 2022  1-16
     doi.org/10.1002/jcc.26942
  5. Grimme,S.; Antony,J.; Ehrlich,S.; Krieg,H.
     A consistent and accurate ab initio parametrization of density functional dispersion correction (DFT-D) for the 94 elements H-Pu
     J. Chem. Phys., 2010 132 154104-XXXX
     doi.org/10.1063/1.3382344

List of suggested additional citations. These are papers that are important in the 'surrounding' of 
of this run, or papers that preceded the highly important papers. If you like your results we are grateful for a citation.

  1. Izsak,R.; Neese,F.
     An overlap fitted chain of spheres exchange method
     J. Chem. Phys., 2011 135 144105
     doi.org/10.1063/1.3646921
  2. Izsak,R.; Hansen,A.; Neese,F.
     The resolution of identity and chain of spheres approximations for the LPNO-CCSD singles Fock term
     Molec. Phys., 2012 110 2413-2417
     doi.org/10.1080/00268976.2012.687466
  3. Neese,F.
     The ORCA program system
     WIRES Comput. Molec. Sci., 2012 2(1)73-78
     doi.org/10.1002/wcms.81
  4. Izsak,R.; Neese,F.; Klopper,W.
     Robust fitting techniques in the chain of spheres approximation to the Fock exchange: The role of the complementary space
     J. Chem. Phys., 2013 139 
     doi.org/10.1063/1.4819264
  5. Neese,F.
     Software update: the ORCA program system, version 4.0
     WIRES Comput. Molec. Sci., 2018 8(1)1-6
     doi.org/10.1002/wcms.1327
  6. Neese,F.; Wennmohs,F.; Becker,U.; Riplinger,C.
     The ORCA quantum chemistry program package
     J. Chem. Phys., 2020 152 Art. No. L224108
     doi.org/10.1063/5.0004608

List of optional additional citations

  1. Neese,F.
     Approximate second-order SCF convergence for spin unrestricted wavefunctions
     Chem. Phys. Lett., 2000 325(1-3)93-98
     doi.org/10.1016/s0009-2614(00)00662-x

Timings for individual modules:

Sum of individual times          ...      187.110 sec (=   3.118 min)
Startup calculation              ...        5.714 sec (=   0.095 min)   3.1 %
SCF iterations                   ...      181.024 sec (=   3.017 min)  96.7 %
Property calculations            ...        0.372 sec (=   0.006 min)   0.2 %
                             ****ORCA TERMINATED NORMALLY****
TOTAL RUN TIME: 0 days 0 hours 3 minutes 7 seconds 401 msec
