
                                 *****************
                                 * O   R   C   A *
                                 *****************

                                            #,                                       
                                            ###                                      
                                            ####                                     
                                            #####                                    
                                            ######                                   
                                           ########,                                 
                                     ,,################,,,,,                         
                               ,,#################################,,                 
                          ,,##########################################,,             
                       ,#########################################, ''#####,          
                    ,#############################################,,   '####,        
                  ,##################################################,,,,####,       
                ,###########''''           ''''###############################       
              ,#####''   ,,,,##########,,,,          '''####'''          '####       
            ,##' ,,,,###########################,,,                        '##       
           ' ,,###''''                  '''############,,,                           
         ,,##''                                '''############,,,,        ,,,,,,###''
      ,#''                                            '''#######################'''  
     '                                                          ''''####''''         
             ,#######,   #######,   ,#######,      ##                                
            ,#'     '#,  ##    ##  ,#'     '#,    #''#        ,####,   ,####,        
            ##       ##  ##   ,#'  ##            #'  '#       #'       #'  '#        
            ##       ##  #######   ##           ,######,      #####,   #    #        
            '#,     ,#'  ##    ##  '#,     ,#' ,#      #,     #,   #   #,  ,#        
             '#######'   ##     ##  '#######'  #'      '#     '####' # '####'        



                #########################################################
                #                        -***-                          #
                #          Department of theory and spectroscopy        #
                #                                                       #
                #                      Frank Neese                      #
                #                                                       #
                #     Directorship, Architecture, Infrastructure        #
                #                    SHARK, DRIVERS                     #
                #        Core code/Algorithms in most modules           #
                #                                                       #
                #        Max Planck Institute fuer Kohlenforschung      #
                #                Kaiser Wilhelm Platz 1                 #
                #                 D-45470 Muelheim/Ruhr                 #
                #                      Germany                          #
                #                                                       #
                #                  All rights reserved                  #
                #                        -***-                          #
                #########################################################


                         Program Version 6.0.0  -   RELEASE   -


 With contributions from (in alphabetic order):
   Daniel Aravena         : Magnetic Suceptibility
   Michael Atanasov       : Ab Initio Ligand Field Theory (pilot matlab implementation)
   Alexander A. Auer      : GIAO ZORA, VPT2 properties, NMR spectrum
   Ute Becker             : All parallelization in ORCA, NUMFREQ, NUMCALC
   Giovanni Bistoni       : ED, misc. LED, open-shell LED, HFLD
   Martin Brehm           : Molecular dynamics
   Dmytro Bykov           : pre 5.0 version of the SCF Hessian
   Marcos Casanova-Páez   : Triplet and SCS-CIS(D). UHF-(DLPNO)-IP/EA/STEOM-CCSD. UHF-CVS-IP/STEOM-CCSD
   Vijay G. Chilkuri      : MRCI spin determinant printing, contributions to CSF-ICE
   Pauline Colinet        : FMM embedding
   Dipayan Datta          : RHF DLPNO-CCSD density
   Achintya Kumar Dutta   : EOM-CC, STEOM-CC
   Nicolas Foglia         : Exact transition moments, OPA infrastructure, MCD improvements
   Dmitry Ganyushin       : Spin-Orbit,Spin-Spin,Magnetic field MRCI
   Miquel Garcia          : C-PCM and meta-GGA Hessian, CCSD/C-PCM, Gaussian charge scheme
   Tiago L. C. Gouveia    : GS-ROHF, GS-ROCIS
   Yang Guo               : DLPNO-NEVPT2, F12-NEVPT2, CIM, IAO-localization
   Andreas Hansen         : Spin unrestricted coupled pair/coupled cluster methods
   Ingolf Harden          : AUTO-CI MPn and infrastructure 
   Benjamin Helmich-Paris : MC-RPA, TRAH-(SCF,CASSCF), AVAS, COSX integrals, SCF dyn. polar.
   Lee Huntington         : MR-EOM, pCC
   Robert Izsak           : Overlap fitted RIJCOSX, COSX-SCS-MP3, EOM
   Riya Kayal             : Wick's Theorem for AUTO-CI, AUTO-CI UHF-CCSDT
   Emily Kempfer          : AUTO-CI, RHF CISDT and CCSDT
   Christian Kollmar      : KDIIS, OOCD, Brueckner-CCSD(T), CCSD density, CASPT2, CASPT2-K, improved NEVPT2
   Axel Koslowski         : Symmetry handling
   Simone Kossmann        : Meta GGA functionals, TD-DFT gradient, OOMP2, (MP2 Hessian; deprecated post 5.0)
   Lucas Lang             : DCDCAS
   Marvin Lechner         : AUTO-CI (C++ implementation), FIC-MRCC
   Spencer Leger          : CASSCF response
   Dagmar Lenk            : GEPOL surface, SMD, ORCA-2-JSON
   Dimitrios Liakos       : Extrapolation schemes; Compound Job, initial MDCI parallelization
   Dimitrios Manganas     : Further ROCIS development; embedding schemes. LFT, Crystal Embedding
   Dimitrios Pantazis     : SARC Basis sets
   Anastasios Papadopoulos: AUTO-CI, single reference methods and gradients
   Taras Petrenko         : pre 6.0 DFT Hessian and TD-DFT gradient, (ASA, deprecated), ECA, 1-Electron XAS/XES, NRVS
   Peter Pinski           : DLPNO-MP2, DLPNO-MP2 Gradient
   Christoph Reimann      : Effective Core Potentials
   Marius Retegan         : Local ZFS, SOC
   Christoph Riplinger    : Optimizer, TS searches, QM/MM, DLPNO-CCSD(T), (RO)-DLPNO pert. Triples
   Michael Roemelt        : Original ROCIS implementation
   Masaaki Saitow         : Open-shell DLPNO-CCSD energy and density
   Barbara Sandhoefer     : DKH picture change effects
   Kantharuban Sivalingam : CASSCF convergence/infrastructure, NEVPT2 and variants, FIC-MRCI
   Bernardo de Souza      : ESD, SOC TD-DFT
   Georgi Stoychev        : AutoAux, RI-MP2 NMR, DLPNO-MP2 response, X2C
   Van Anh Tran           : RI-MP2 g-tensors
   Willem Van den Heuvel  : Paramagnetic NMR
   Zikuan Wang            : NOTCH, Electric field optimization 
   Frank Wennmohs         : Technical directorship and infrastructure
   Hang Xu                : AUTO-CI-Response properties 


 We gratefully acknowledge several colleagues who have allowed us to
 interface, adapt or use parts of their codes:
   Stefan Grimme, W. Hujo, H. Kruse, P. Pracht,  : VdW corrections, initial TS optimization,
                  C. Bannwarth, S. Ehlert,         DFT functionals, gCP, sTDA/sTD-DF
                  L. Wittmann, M. Mueller
   Ed Valeev, F. Pavosevic, A. Kumar             : LibInt (2-el integral package), F12 methods
   Garnet Chan, S. Sharma, J. Yang, R. Olivares  : DMRG
   Ulf Ekstrom                                   : XCFun DFT Library
   Mihaly Kallay                                 : mrcc  (arbitrary order and MRCC methods)
   Frank Weinhold                                : gennbo (NPA and NBO analysis)
   Simon Mueller                                 : openCOSMO-RS
   Christopher J. Cramer and Donald G. Truhlar   : smd solvation model
   Lars Goerigk                                  : TD-DFT with DH, B97 family of functionals
   V. Asgeirsson, H. Jonsson                     : NEB implementation
   FAccTs GmbH                                   : IRC, NEB, NEB-TS, DLPNO-Multilevel, CI-OPT
                                                   MM, QMMM, 2- and 3-layer-ONIOM, Crystal-QMMM,
                                                   LR-CPCM, SF, NACMEs, symmetry and pop. for TD-DFT,
                                                   nearIR, NL-DFT gradient (VV10), updates on ESD,
                                                   ML-optimized integration grids, MBIS, APM,
                                                   GOAT, DOCKER, SOLVATOR, interface openCOSMO-RS
   S Lehtola, MJT Oliveira, MAL Marques          : LibXC Library
   Liviu Ungur et al                             : ANISO software


 Your calculation uses the libint2 library for the computation of 2-el integrals
 For citations please refer to: http://libint.valeyev.net

 Your ORCA version has been built with support for libXC version: 6.2.2
 For citations please refer to: https://libxc.gitlab.io

 This ORCA versions uses:
   CBLAS   interface :  Fast vector & matrix operations
   LAPACKE interface :  Fast linear algebra routines
   Shared memory     :  Shared parallel matrices


Your calculation utilizes the atom-pairwise dispersion correction
with the Becke-Johnson damping scheme (D3BJ)


Warning: RI is on but no J-basis has been assigned. Assigning Def2/J (nothing to worry about!)
================================================================================

----- Orbital basis set information -----
Your calculation utilizes the basis: def2-SVP
   F. Weigend and R. Ahlrichs, Phys. Chem. Chem. Phys. 7, 3297 (2005).

----- AuxJ basis set information -----
Your calculation utilizes the auxiliary basis: def2/J
   F. Weigend, Phys. Chem. Chem. Phys. 8, 1057 (2006).

================================================================================
                                        WARNINGS
                       Please study these warnings very carefully!
================================================================================


WARNING: Geometry Optimization
  ===> : Switching off AutoStart
         For restart on a previous wavefunction, please use MOREAD

================================================================================
                                       INPUT FILE
================================================================================
NAME = data/geom_opt/70071/70071.inp
|  1> ! RIJONX B3LYP def2-SVP D3BJ TIGHTSCF Opt
|  2> %pal
|  3> nprocs 6
|  4> end
|  5> 
|  6> * xyz 0 1
|  7> C      4.892537   -3.607543   -0.995109
|  8> O      3.976134   -3.931013    0.042970
|  9> C      3.093354   -2.955299    0.413077
| 10> C      2.237990   -3.304647    1.456809
| 11> C      1.285429   -2.397799    1.933079
| 12> C      1.161046   -1.116490    1.371974
| 13> C      2.028661   -0.778122    0.324110
| 14> C      2.984952   -1.687151   -0.152143
| 15> P     -0.108401   -0.003061    2.056364
| 16> C     -1.642613   -0.508507    1.213556
| 17> C     -1.691982   -1.373650    0.111577
| 18> C     -2.911772   -1.721291   -0.487504
| 19> C     -4.109372   -1.210139    0.006361
| 20> C     -4.075218   -0.349894    1.102661
| 21> C     -2.859161   -0.004386    1.701335
| 22> O     -5.359306   -1.466358   -0.483858
| 23> C     -5.446538   -2.366793   -1.580964
| 24> C      0.284673    1.619420    1.326530
| 25> C      1.282319    2.393860    1.940537
| 26> C      1.635722    3.648761    1.433671
| 27> C      1.000279    4.164988    0.305494
| 28> C      0.006452    3.410755   -0.313267
| 29> C     -0.346991    2.151541    0.193783
| 30> O      1.438601    5.398940   -0.086342
| 31> C      0.794787    5.981163   -1.212648
| 32> H      4.367848   -3.398418   -1.933199
| 33> H      5.537325   -2.770687   -0.706855
| 34> H      5.532818   -4.479597   -1.159441
| 35> H      2.312400   -4.291229    1.907719
| 36> H      0.637075   -2.709573    2.750260
| 37> H      1.980330    0.198096   -0.152017
| 38> H      3.626490   -1.366249   -0.966060
| 39> H     -0.784028   -1.795376   -0.312458
| 40> H     -2.883863   -2.394328   -1.337948
| 41> H     -5.002937    0.055767    1.498864
| 42> H     -2.876071    0.669811    2.556041
| 43> H     -6.503962   -2.475838   -1.840588
| 44> H     -5.066210   -3.357483   -1.310683
| 45> H     -4.927460   -1.969385   -2.459405
| 46> H      1.802331    2.027275    2.824026
| 47> H      2.412839    4.227473    1.927010
| 48> H     -0.518368    3.767038   -1.193403
| 49> H     -1.125898    1.599393   -0.326290
| 50> H     -0.272844    6.133770   -1.022781
| 51> H      0.954822    5.379042   -2.113136
| 52> H      1.245783    6.963214   -1.384756
| 53> **                         ****END OF INPUT****
================================================================================

                       *****************************
                       * Geometry Optimization Run *
                       *****************************

Geometry optimization settings:
Update method            Update   .... BFGS
Choice of coordinates    CoordSys .... (2022) Redundant Internals
Initial Hessian          InHess   .... Almloef's Model
Max. no of cycles        MaxIter  .... 138

Convergence Tolerances:
Energy Change            TolE     ....  5.0000e-06 Eh
Max. Gradient            TolMAXG  ....  3.0000e-04 Eh/bohr
RMS Gradient             TolRMSG  ....  1.0000e-04 Eh/bohr
Max. Displacement        TolMAXD  ....  4.0000e-03 bohr
RMS Displacement         TolRMSD  ....  2.0000e-03 bohr
Strict Convergence                .... False

------------------------------------------------------------------------------
                        ORCA OPTIMIZATION COORDINATE SETUP
------------------------------------------------------------------------------

The optimization will be done in redundant internal coordinates (2022)
Making redundant internal coordinates   ...  (2022 redundants) done
Evaluating the initial hessian          ...  (Almloef) done
Evaluating the coordinates              ...  done
Calculating the B-matrix                .... done
Calculating the G-matrix                .... done
Diagonalizing the G-matrix              .... done
Small eigenvalue found = 1.975e-03
Small eigenvalue found = 1.975e-03
Small eigenvalue found = 3.593e-03
Small eigenvalue found = 1.579e-02
Small eigenvalue found = 1.579e-02
Small eigenvalue found = 1.948e-02
Small eigenvalue found = 2.505e-02
Small eigenvalue found = 2.506e-02
Small eigenvalue found = 2.739e-02
The first mode is                       ....   93
The number of degrees of freedom        ....  132

    -----------------------------------------------------------------
                    Redundant Internal Coordinates


    -----------------------------------------------------------------
         Definition                    Initial Value    Approx d2E/dq
    -----------------------------------------------------------------
      1. B(O   1,C   0)                  1.4220         0.497564   
      2. B(C   2,O   1)                  1.3669         0.609255   
      3. B(C   3,C   2)                  1.3939         0.615819   
      4. B(C   4,C   3)                  1.3988         0.604971   
      5. B(C   5,C   4)                  1.4043         0.592818   
      6. B(C   6,C   5)                  1.4019         0.598115   
      7. B(C   7,C   2)                  1.3926         0.618784   
      8. B(C   7,C   6)                  1.4027         0.596257   
      9. B(P   8,C   5)                  1.8220         0.429573   
     10. B(C   9,P   8)                  1.8220         0.429574   
     11. B(C  10,C   9)                  1.4019         0.598115   
     12. B(C  11,C  10)                  1.4027         0.596259   
     13. B(C  12,C  11)                  1.3926         0.618784   
     14. B(C  13,C  12)                  1.3939         0.615824   
     15. B(C  14,C   9)                  1.4043         0.592824   
     16. B(C  14,C  13)                  1.3988         0.604969   
     17. B(O  15,C  12)                  1.3669         0.609255   
     18. B(C  16,O  15)                  1.4220         0.497565   
     19. B(C  17,P   8)                  1.8220         0.429573   
     20. B(C  18,C  17)                  1.4043         0.592821   
     21. B(C  19,C  18)                  1.3988         0.604967   
     22. B(C  20,C  19)                  1.3939         0.615824   
     23. B(C  21,C  20)                  1.3926         0.618784   
     24. B(C  22,C  21)                  1.4027         0.596258   
     25. B(C  22,C  17)                  1.4019         0.598115   
     26. B(O  23,C  20)                  1.3669         0.609253   
     27. B(C  24,O  23)                  1.4220         0.497557   
     28. B(H  25,C   0)                  1.0950         0.353534   
     29. B(H  26,C   0)                  1.0951         0.353460   
     30. B(H  27,C   0)                  1.0943         0.354486   
     31. B(H  28,C   3)                  1.0873         0.363702   
     32. B(H  29,C   4)                  1.0887         0.361773   
     33. B(H  30,C   6)                  1.0872         0.363804   
     34. B(H  31,C   7)                  1.0849         0.366909   
     35. B(H  32,C  10)                  1.0872         0.363802   
     36. B(H  33,C  11)                  1.0849         0.366907   
     37. B(H  34,C  13)                  1.0873         0.363702   
     38. B(H  35,C  14)                  1.0887         0.361774   
     39. B(H  36,C  16)                  1.0943         0.354487   
     40. B(H  37,C  16)                  1.0951         0.353461   
     41. B(H  38,C  16)                  1.0950         0.353541   
     42. B(H  39,C  18)                  1.0887         0.361774   
     43. B(H  40,C  19)                  1.0873         0.363702   
     44. B(H  41,C  21)                  1.0849         0.366907   
     45. B(H  42,C  22)                  1.0872         0.363801   
     46. B(H  43,C  24)                  1.0951         0.353457   
     47. B(H  44,C  24)                  1.0950         0.353537   
     48. B(H  45,C  24)                  1.0943         0.354486   
     49. A(H  25,C   0,H  27)          107.6926         0.289287   
     50. A(O   1,C   0,H  26)          111.1702         0.336977   
     51. A(O   1,C   0,H  27)          107.7840         0.337140   
     52. A(O   1,C   0,H  25)          111.1034         0.336989   
     53. A(H  25,C   0,H  26)          111.2045         0.289156   
     54. A(H  26,C   0,H  27)          107.6991         0.289277   
     55. A(C   0,O   1,C   2)          116.8404         0.410649   
     56. A(C   3,C   2,C   7)          118.9698         0.433385   
     57. A(O   1,C   2,C   3)          114.8443         0.429353   
     58. A(O   1,C   2,C   7)          126.1858         0.429724   
     59. A(C   4,C   3,H  28)          119.5818         0.352039   
     60. A(C   2,C   3,C   4)          120.6869         0.431630   
     61. A(C   2,C   3,H  28)          119.7312         0.353099   
     62. A(C   5,C   4,H  29)          120.5598         0.350519   
     63. A(C   3,C   4,C   5)          121.0512         0.428690   
     64. A(C   3,C   4,H  29)          118.3886         0.351723   
     65. A(C   4,C   5,C   6)          117.6501         0.427815   
     66. A(C   4,C   5,P   8)          117.9832         0.430069   
     67. A(C   6,C   5,P   8)          124.3661         0.430756   
     68. A(C   5,C   6,H  30)          121.1015         0.351378   
     69. A(C   7,C   6,H  30)          117.6134         0.351193   
     70. A(C   5,C   6,C   7)          121.2844         0.428259   
     71. A(C   2,C   7,H  31)          121.8575         0.353913   
     72. A(C   6,C   7,H  31)          117.7856         0.351698   
     73. A(C   2,C   7,C   6)          120.3569         0.430878   
     74. A(C   9,P   8,C  17)          104.0879         0.433030   
     75. A(C   5,P   8,C   9)          104.0877         0.433030   
     76. A(C   5,P   8,C  17)          104.0881         0.433030   
     77. A(P   8,C   9,C  10)          124.3659         0.430756   
     78. A(C  10,C   9,C  14)          117.6502         0.427816   
     79. A(P   8,C   9,C  14)          117.9833         0.430070   
     80. A(C  11,C  10,H  32)          117.6134         0.351193   
     81. A(C   9,C  10,H  32)          121.1015         0.351378   
     82. A(C   9,C  10,C  11)          121.2844         0.428259   
     83. A(C  12,C  11,H  33)          121.8576         0.353912   
     84. A(C  10,C  11,H  33)          117.7855         0.351698   
     85. A(C  10,C  11,C  12)          120.3568         0.430878   
     86. A(C  13,C  12,O  15)          114.8444         0.429354   
     87. A(C  11,C  12,O  15)          126.1857         0.429724   
     88. A(C  11,C  12,C  13)          118.9698         0.433385   
     89. A(C  14,C  13,H  34)          119.5817         0.352039   
     90. A(C  12,C  13,H  34)          119.7311         0.353100   
     91. A(C  12,C  13,C  14)          120.6870         0.431630   
     92. A(C  13,C  14,H  35)          118.3888         0.351723   
     93. A(C   9,C  14,H  35)          120.5598         0.350519   
     94. A(C   9,C  14,C  13)          121.0511         0.428691   
     95. A(C  12,O  15,C  16)          116.8402         0.410649   
     96. A(O  15,C  16,H  38)          111.1032         0.336990   
     97. A(O  15,C  16,H  37)          111.1700         0.336977   
     98. A(O  15,C  16,H  36)          107.7841         0.337140   
     99. A(H  36,C  16,H  37)          107.6993         0.289278   
    100. A(H  37,C  16,H  38)          111.2046         0.289157   
    101. A(H  36,C  16,H  38)          107.6926         0.289288   
    102. A(C  18,C  17,C  22)          117.6500         0.427816   
    103. A(P   8,C  17,C  22)          124.3659         0.430756   
    104. A(P   8,C  17,C  18)          117.9834         0.430069   
    105. A(C  17,C  18,C  19)          121.0512         0.428690   
    106. A(C  19,C  18,H  39)          118.3887         0.351722   
    107. A(C  17,C  18,H  39)          120.5598         0.350519   
    108. A(C  18,C  19,C  20)          120.6870         0.431630   
    109. A(C  20,C  19,H  40)          119.7311         0.353100   
    110. A(C  18,C  19,H  40)          119.5817         0.352039   
    111. A(C  19,C  20,C  21)          118.9698         0.433386   
    112. A(C  21,C  20,O  23)          126.1857         0.429723   
    113. A(C  19,C  20,O  23)          114.8445         0.429354   
    114. A(C  22,C  21,H  41)          117.7855         0.351698   
    115. A(C  20,C  21,H  41)          121.8577         0.353912   
    116. A(C  20,C  21,C  22)          120.3569         0.430878   
    117. A(C  21,C  22,H  42)          117.6132         0.351193   
    118. A(C  17,C  22,H  42)          121.1016         0.351378   
    119. A(C  17,C  22,C  21)          121.2845         0.428259   
    120. A(C  20,O  23,C  24)          116.8401         0.410648   
    121. A(H  44,C  24,H  45)          107.6926         0.289287   
    122. A(H  43,C  24,H  45)          107.6991         0.289277   
    123. A(O  23,C  24,H  45)          107.7840         0.337139   
    124. A(H  43,C  24,H  44)          111.2047         0.289156   
    125. A(O  23,C  24,H  44)          111.1031         0.336989   
    126. A(O  23,C  24,H  43)          111.1703         0.336976   
    127. D(C   2,O   1,C   0,H  25)    -63.1175         0.019566   
    128. D(C   2,O   1,C   0,H  26)     61.3001         0.019566   
    129. D(C   2,O   1,C   0,H  27)    179.1142         0.019566   
    130. D(C   7,C   2,O   1,C   0)      1.6919         0.027166   
    131. D(C   3,C   2,O   1,C   0)   -178.4102         0.027166   
    132. D(C   4,C   3,C   2,O   1)   -179.9891         0.026221   
    133. D(H  28,C   3,C   2,O   1)      0.1435         0.026221   
    134. D(H  28,C   3,C   2,C   7)   -179.9506         0.026221   
    135. D(C   4,C   3,C   2,C   7)     -0.0833         0.026221   
    136. D(H  29,C   4,C   3,C   2)   -179.9534         0.025253   
    137. D(C   5,C   4,C   3,H  28)   -179.8919         0.025253   
    138. D(H  29,C   4,C   3,H  28)     -0.0859         0.025253   
    139. D(C   5,C   4,C   3,C   2)      0.2406         0.025253   
    140. D(C   6,C   5,C   4,C   3)     -0.3039         0.024196   
    141. D(C   6,C   5,C   4,H  29)    179.8943         0.024196   
    142. D(P   8,C   5,C   4,C   3)    179.9697         0.024196   
    143. D(P   8,C   5,C   4,H  29)      0.1680         0.024196   
    144. D(H  30,C   6,C   5,P   8)     -0.3836         0.024654   
    145. D(C   7,C   6,C   5,C   4)      0.2223         0.024654   
    146. D(C   7,C   6,C   5,P   8)    179.9295         0.024654   
    147. D(H  30,C   6,C   5,C   4)    179.9092         0.024654   
    148. D(H  31,C   7,C   6,H  30)      0.2368         0.024493   
    149. D(H  31,C   7,C   6,C   5)    179.9342         0.024493   
    150. D(C   2,C   7,C   6,H  30)   -179.7723         0.024493   
    151. D(C   2,C   7,C   6,C   5)     -0.0749         0.024493   
    152. D(H  31,C   7,C   2,C   3)    179.9920         0.026489   
    153. D(H  31,C   7,C   2,O   1)     -0.1139         0.026489   
    154. D(C   6,C   7,C   2,C   3)      0.0015         0.026489   
    155. D(C   6,C   7,C   2,O   1)    179.8956         0.026489   
    156. D(C   9,P   8,C   5,C   6)     97.5318         0.003798   
    157. D(C   9,P   8,C   5,C   4)    -82.7619         0.003798   
    158. D(C  17,P   8,C   5,C   6)    -11.2352         0.003798   
    159. D(C  17,P   8,C   5,C   4)    168.4711         0.003798   
    160. D(C  14,C   9,P   8,C  17)    -82.7660         0.003798   
    161. D(C  14,C   9,P   8,C   5)    168.4668         0.003798   
    162. D(C  10,C   9,P   8,C  17)     97.5271         0.003798   
    163. D(C  10,C   9,P   8,C   5)    -11.2401         0.003798   
    164. D(H  32,C  10,C   9,C  14)    179.9096         0.024654   
    165. D(H  32,C  10,C   9,P   8)     -0.3826         0.024654   
    166. D(C  11,C  10,C   9,C  14)      0.2229         0.024654   
    167. D(C  11,C  10,C   9,P   8)    179.9306         0.024654   
    168. D(H  33,C  11,C  10,H  32)      0.2364         0.024493   
    169. D(H  33,C  11,C  10,C   9)    179.9337         0.024493   
    170. D(C  12,C  11,C  10,H  32)   -179.7724         0.024493   
    171. D(C  12,C  11,C  10,C   9)     -0.0750         0.024493   
    172. D(O  15,C  12,C  11,H  33)     -0.1142         0.026489   
    173. D(O  15,C  12,C  11,C  10)    179.8949         0.026489   
    174. D(C  13,C  12,C  11,C  10)      0.0011         0.026489   
    175. D(C  13,C  12,C  11,H  33)    179.9919         0.026489   
    176. D(H  34,C  13,C  12,O  15)      0.1439         0.026221   
    177. D(H  34,C  13,C  12,C  11)   -179.9505         0.026221   
    178. D(C  14,C  13,C  12,O  15)   -179.9884         0.026221   
    179. D(C  14,C  13,C  12,C  11)     -0.0829         0.026221   
    180. D(H  35,C  14,C  13,H  34)     -0.0857         0.025253   
    181. D(H  35,C  14,C  13,C  12)   -179.9535         0.025253   
    182. D(C   9,C  14,C  13,H  34)   -179.8916         0.025253   
    183. D(C   9,C  14,C  13,C  12)      0.2406         0.025253   
    184. D(H  35,C  14,C   9,C  10)    179.8939         0.024197   
    185. D(H  35,C  14,C   9,P   8)      0.1671         0.024197   
    186. D(C  13,C  14,C   9,C  10)     -0.3044         0.024197   
    187. D(C  13,C  14,C   9,P   8)    179.9688         0.024197   
    188. D(C  16,O  15,C  12,C  13)   -178.4062         0.027166   
    189. D(C  16,O  15,C  12,C  11)      1.6962         0.027166   
    190. D(H  38,C  16,O  15,C  12)    -63.1192         0.019566   
    191. D(H  37,C  16,O  15,C  12)     61.2984         0.019566   
    192. D(H  36,C  16,O  15,C  12)    179.1126         0.019566   
    193. D(C  22,C  17,P   8,C   9)    -11.2320         0.003798   
    194. D(C  22,C  17,P   8,C   5)     97.5348         0.003798   
    195. D(C  18,C  17,P   8,C   9)    168.4731         0.003798   
    196. D(C  18,C  17,P   8,C   5)    -82.7601         0.003798   
    197. D(H  39,C  18,C  17,C  22)    179.8936         0.024197   
    198. D(H  39,C  18,C  17,P   8)      0.1685         0.024197   
    199. D(C  19,C  18,C  17,C  22)     -0.3040         0.024197   
    200. D(C  19,C  18,C  17,P   8)    179.9709         0.024197   
    201. D(H  40,C  19,C  18,H  39)     -0.0853         0.025253   
    202. D(H  40,C  19,C  18,C  17)   -179.8919         0.025253   
    203. D(C  20,C  19,C  18,H  39)   -179.9529         0.025253   
    204. D(C  20,C  19,C  18,C  17)      0.2405         0.025253   
    205. D(O  23,C  20,C  19,H  40)      0.1433         0.026221   
    206. D(O  23,C  20,C  19,C  18)   -179.9892         0.026221   
    207. D(C  21,C  20,C  19,H  40)   -179.9507         0.026221   
    208. D(C  21,C  20,C  19,C  18)     -0.0832         0.026221   
    209. D(H  41,C  21,C  20,O  23)     -0.1140         0.026489   
    210. D(H  41,C  21,C  20,C  19)    179.9917         0.026489   
    211. D(C  22,C  21,C  20,O  23)    179.8959         0.026489   
    212. D(C  22,C  21,C  20,C  19)      0.0016         0.026489   
    213. D(H  42,C  22,C  21,H  41)      0.2361         0.024493   
    214. D(H  42,C  22,C  21,C  20)   -179.7733         0.024493   
    215. D(C  17,C  22,C  21,H  41)    179.9342         0.024493   
    216. D(C  17,C  22,C  21,C  20)     -0.0752         0.024493   
    217. D(H  42,C  22,C  17,C  18)    179.9102         0.024654   
    218. D(H  42,C  22,C  17,P   8)     -0.3838         0.024654   
    219. D(C  21,C  22,C  17,C  18)      0.2226         0.024654   
    220. D(C  21,C  22,C  17,P   8)    179.9286         0.024654   
    221. D(C  24,O  23,C  20,C  21)      1.6932         0.027166   
    222. D(C  24,O  23,C  20,C  19)   -178.4087         0.027166   
    223. D(H  45,C  24,O  23,C  20)    179.1120         0.019566   
    224. D(H  44,C  24,O  23,C  20)    -63.1199         0.019566   
    225. D(H  43,C  24,O  23,C  20)     61.2980         0.019566   
    -----------------------------------------------------------------

Number of atoms                         .... 46
Number of degrees of freedom            .... 225


         *************************************************************
         *                GEOMETRY OPTIMIZATION CYCLE   1            *
         *************************************************************
---------------------------------
CARTESIAN COORDINATES (ANGSTROEM)
---------------------------------
  C      4.892537   -3.607543   -0.995109
  O      3.976134   -3.931013    0.042970
  C      3.093354   -2.955299    0.413077
  C      2.237990   -3.304647    1.456809
  C      1.285429   -2.397799    1.933079
  C      1.161046   -1.116490    1.371974
  C      2.028661   -0.778122    0.324110
  C      2.984952   -1.687151   -0.152143
  P     -0.108401   -0.003061    2.056364
  C     -1.642613   -0.508507    1.213556
  C     -1.691982   -1.373650    0.111577
  C     -2.911772   -1.721291   -0.487504
  C     -4.109372   -1.210139    0.006361
  C     -4.075218   -0.349894    1.102661
  C     -2.859161   -0.004386    1.701335
  O     -5.359306   -1.466358   -0.483858
  C     -5.446538   -2.366793   -1.580964
  C      0.284673    1.619420    1.326530
  C      1.282319    2.393860    1.940537
  C      1.635722    3.648761    1.433671
  C      1.000279    4.164988    0.305494
  C      0.006452    3.410755   -0.313267
  C     -0.346991    2.151541    0.193783
  O      1.438601    5.398940   -0.086342
  C      0.794787    5.981163   -1.212648
  H      4.367848   -3.398418   -1.933199
  H      5.537325   -2.770687   -0.706855
  H      5.532818   -4.479597   -1.159441
  H      2.312400   -4.291229    1.907719
  H      0.637075   -2.709573    2.750260
  H      1.980330    0.198096   -0.152017
  H      3.626490   -1.366249   -0.966060
  H     -0.784028   -1.795376   -0.312458
  H     -2.883863   -2.394328   -1.337948
  H     -5.002937    0.055767    1.498864
  H     -2.876071    0.669811    2.556041
  H     -6.503962   -2.475838   -1.840588
  H     -5.066210   -3.357483   -1.310683
  H     -4.927460   -1.969385   -2.459405
  H      1.802331    2.027275    2.824026
  H      2.412839    4.227473    1.927010
  H     -0.518368    3.767038   -1.193403
  H     -1.125898    1.599393   -0.326290
  H     -0.272844    6.133770   -1.022781
  H      0.954822    5.379042   -2.113136
  H      1.245783    6.963214   -1.384756

----------------------------
CARTESIAN COORDINATES (A.U.)
----------------------------
  NO LB      ZA    FRAG     MASS         X           Y           Z
   0 C     6.0000    0    12.011    9.245555   -6.817268   -1.880483
   1 O     8.0000    0    15.999    7.513804   -7.428538    0.081202
   2 C     6.0000    0    12.011    5.845592   -5.584706    0.780602
   3 C     6.0000    0    12.011    4.229188   -6.244878    2.752970
   4 C     6.0000    0    12.011    2.429109   -4.531183    3.652990
   5 C     6.0000    0    12.011    2.194059   -2.109860    2.592655
   6 C     6.0000    0    12.011    3.833614   -1.470437    0.612479
   7 C     6.0000    0    12.011    5.640742   -3.188253   -0.287509
   8 P    15.0000    0    30.974   -0.204848   -0.005784    3.885965
   9 C     6.0000    0    12.011   -3.104089   -0.960939    2.293288
  10 C     6.0000    0    12.011   -3.197383   -2.595822    0.210850
  11 C     6.0000    0    12.011   -5.502452   -3.252769   -0.921249
  12 C     6.0000    0    12.011   -7.765588   -2.286831    0.012021
  13 C     6.0000    0    12.011   -7.701046   -0.661204    2.083727
  14 C     6.0000    0    12.011   -5.403031   -0.008288    3.215057
  15 O     8.0000    0    15.999  -10.127621   -2.771015   -0.914359
  16 C     6.0000    0    12.011  -10.292465   -4.472591   -2.987589
  17 C     6.0000    0    12.011    0.537954    3.060260    2.506778
  18 C     6.0000    0    12.011    2.423232    4.523740    3.667083
  19 C     6.0000    0    12.011    3.091067    6.895159    2.709246
  20 C     6.0000    0    12.011    1.890253    7.870687    0.577300
  21 C     6.0000    0    12.011    0.012193    6.445393   -0.591989
  22 C     6.0000    0    12.011   -0.655718    4.065823    0.366197
  23 O     8.0000    0    15.999    2.718562   10.202518   -0.163163
  24 C     6.0000    0    12.011    1.501930   11.302760   -2.291573
  25 H     1.0000    0     1.008    8.254037   -6.422079   -3.653217
  26 H     1.0000    0     1.008   10.464028   -5.235840   -1.335762
  27 H     1.0000    0     1.008   10.455511   -8.465212   -2.191026
  28 H     1.0000    0     1.008    4.369803   -8.109248    3.605066
  29 H     1.0000    0     1.008    1.203897   -5.120351    5.197238
  30 H     1.0000    0     1.008    3.742281    0.374347   -0.287270
  31 H     1.0000    0     1.008    6.853073   -2.581836   -1.825589
  32 H     1.0000    0     1.008   -1.481598   -3.392769   -0.590460
  33 H     1.0000    0     1.008   -5.449711   -4.524624   -2.528355
  34 H     1.0000    0     1.008   -9.454181    0.105384    2.832442
  35 H     1.0000    0     1.008   -5.434987    1.265759    4.830217
  36 H     1.0000    0     1.008  -12.290707   -4.678656   -3.478207
  37 H     1.0000    0     1.008   -9.573749   -6.344723   -2.476832
  38 H     1.0000    0     1.008   -9.311550   -3.721598   -4.647602
  39 H     1.0000    0     1.008    3.405912    3.830995    5.336636
  40 H     1.0000    0     1.008    4.559605    7.988766    3.641521
  41 H     1.0000    0     1.008   -0.979574    7.118670   -2.255205
  42 H     1.0000    0     1.008   -2.127639    3.022415   -0.616599
  43 H     1.0000    0     1.008   -0.515600   11.591145   -1.932776
  44 H     1.0000    0     1.008    1.804352   10.164916   -3.993248
  45 H     1.0000    0     1.008    2.354189   13.158567   -2.616810

--------------------------------
INTERNAL COORDINATES (ANGSTROEM)
--------------------------------
 C      0   0   0     0.000000000000     0.00000000     0.00000000
 O      1   0   0     1.421982879486     0.00000000     0.00000000
 C      2   1   0     1.366856806562   116.84035062     0.00000000
 C      3   2   1     1.393939771089   114.84433874   181.58983889
 C      4   3   2     1.398777633051   120.68689483   180.01085512
 C      5   4   3     1.404301500816   121.05123688     0.24060821
 C      6   5   4     1.401880042709   117.65011791   359.69606836
 C      3   2   1     1.392632037513   126.18576117     1.69192285
 P      6   5   4     1.821979554207   117.98315042   179.96974865
 C      9   6   5     1.821978991296   104.08766351   277.23809116
 C     10   9   6     1.401879960999   124.36591304   348.75994476
 C     11  10   9     1.402725901073   121.28443770   179.93063875
 C     12  11  10     1.392632315196   120.35683694   359.92496135
 C     13  12  11     1.393937461202   118.96977982     0.00000000
 C     14  13  12     1.398778382586   120.68699975   359.91714195
 O     13  12  11     1.366856923119   126.18571571   179.89488732
 C     16  13  12     1.421982484521   116.84024608     1.69615523
 C      9   6   5     1.821979536766   104.08813036   168.47112995
 C     18   9   6     1.404300342151   117.98343272   277.23991379
 C     19  18   9     1.398779232819   121.05122341   179.97085252
 C     20  19  18     1.393937396409   120.68697495     0.24047701
 C     21  20  19     1.392632291504   118.96976763   359.91677347
 C     18   9   6     1.401880142361   124.36590964    97.53484337
 O     21  20  19     1.366857404737   114.84450616   180.01078502
 C     24  21  20     1.421986390217   116.84014397   181.59127126
 H      1   2   3     1.095008977336   111.10336605   296.88247941
 H      1   2   3     1.095066161561   111.17015894    61.30014001
 H      1   2   3     1.094277361596   107.78400856   179.11417805
 H      4   3   2     1.087290540253   119.73117307     0.14353165
 H      5   4   3     1.088738133415   118.38864857   180.04660280
 H      7   6   5     1.087214049401   121.10147367   179.90916367
 H      8   3   2     1.084900908810   121.85752763   359.88609951
 H     11  10   9     1.087216154413   121.10147930   359.61740456
 H     12  11  10     1.084902167380   117.78554219   179.93373013
 H     14  13  12     1.087290304882   119.73114173   180.04949005
 H     15  14  13     1.088737750491   118.38878365   180.04645732
 H     17  16  13     1.094276450070   107.78412461   179.11256174
 H     17  16  13     1.095065241273   111.16999544    61.29837945
 H     17  16  13     1.095003963020   111.10315744   296.88081594
 H     19  18   9     1.088737734944   120.55983574     0.16845132
 H     20  19  18     1.087291027993   119.58174447   180.10811850
 H     22  21  20     1.084902293750   121.85766891   179.99174383
 H     23  18   9     1.087216378594   121.10159567   359.61615940
 H     25  24  21     1.095068183402   111.17028829    61.29801652
 H     25  24  21     1.095006638341   111.10308061   296.88010887
 H     25  24  21     1.094277260241   107.78395304   179.11203156

---------------------------
INTERNAL COORDINATES (A.U.)
---------------------------
 C      0   0   0     0.000000000000     0.00000000     0.00000000
 O      1   0   0     2.687158209352     0.00000000     0.00000000
 C      2   1   0     2.582985028688   116.84035062     0.00000000
 C      3   2   1     2.634164414539   114.84433874   181.58983889
 C      4   3   2     2.643306648722   120.68689483   180.01085512
 C      5   4   3     2.653745245997   121.05123688     0.24060821
 C      6   5   4     2.649169353329   117.65011791   359.69606836
 C      3   2   1     2.631693156225   126.18576117     1.69192285
 P      6   5   4     3.443042379056   117.98315042   179.96974865
 C      9   6   5     3.443041315308   104.08766351   277.23809116
 C     10   9   6     2.649169198921   124.36591304   348.75994476
 C     11  10   9     2.650767793987   121.28443770   179.93063875
 C     12  11  10     2.631693680970   120.35683694   359.92496135
 C     13  12  11     2.634160049484   118.96977982     0.00000000
 C     14  13  12     2.643308065136   120.68699975   359.91714195
 O     13  12  11     2.582985248949   126.18571571   179.89488732
 C     16  13  12     2.687157462978   116.84024608     1.69615523
 C      9   6   5     3.443042346096   104.08813036   168.47112995
 C     18   9   6     2.653743056437   117.98343272   277.23991379
 C     19  18   9     2.643309671845   121.05122341   179.97085252
 C     20  19  18     2.634159927044   120.68697495     0.24047701
 C     21  20  19     2.631693636197   118.96976763   359.91677347
 C     18   9   6     2.649169541645   124.36590964    97.53484337
 O     21  20  19     2.582986159075   114.84450616   180.01078502
 C     24  21  20     2.687164843672   116.84014397   181.59127126
 H      1   2   3     2.069267081350   111.10336605   296.88247941
 H      1   2   3     2.069375143875   111.17015894    61.30014001
 H      1   2   3     2.067884527966   107.78400856   179.11417805
 H      4   3   2     2.054681349082   119.73117307     0.14353165
 H      5   4   3     2.057416903712   118.38864857   180.04660280
 H      7   6   5     2.054536802319   121.10147367   179.90916367
 H      8   3   2     2.050165600093   121.85752763   359.88609951
 H     11  10   9     2.054540780216   121.10147930   359.61740456
 H     12  11  10     2.050167978446   117.78554219   179.93373013
 H     14  13  12     2.054680904295   119.73114173   180.04949005
 H     15  14  13     2.057416180090   118.38878365   180.04645732
 H     17  16  13     2.067882805431   107.78412461   179.11256174
 H     17  16  13     2.069373404783   111.16999544    61.29837945
 H     17  16  13     2.069257605666   111.10315744   296.88081594
 H     19  18   9     2.057416150709   120.55983574     0.16845132
 H     20  19  18     2.054682270776   119.58174447   180.10811850
 H     22  21  20     2.050168217251   121.85766891   179.99174383
 H     23  18   9     2.054541203855   121.10159567   359.61615940
 H     25  24  21     2.069378964600   111.17028829    61.29801652
 H     25  24  21     2.069262661290   111.10308061   296.88010887
 H     25  24  21     2.067884336434   107.78395304   179.11203156

---------------------
BASIS SET INFORMATION
---------------------
There are 4 groups of distinct atoms

 Group   1 Type C   : 7s4p1d contracted to 3s2p1d pattern {511/31/1}
 Group   2 Type O   : 7s4p1d contracted to 3s2p1d pattern {511/31/1}
 Group   3 Type P   : 10s7p1d contracted to 4s3p1d pattern {5311/511/1}
 Group   4 Type H   : 4s1p contracted to 2s1p pattern {31/1}

Atom   0C    basis set group =>   1
Atom   1O    basis set group =>   2
Atom   2C    basis set group =>   1
Atom   3C    basis set group =>   1
Atom   4C    basis set group =>   1
Atom   5C    basis set group =>   1
Atom   6C    basis set group =>   1
Atom   7C    basis set group =>   1
Atom   8P    basis set group =>   3
Atom   9C    basis set group =>   1
Atom  10C    basis set group =>   1
Atom  11C    basis set group =>   1
Atom  12C    basis set group =>   1
Atom  13C    basis set group =>   1
Atom  14C    basis set group =>   1
Atom  15O    basis set group =>   2
Atom  16C    basis set group =>   1
Atom  17C    basis set group =>   1
Atom  18C    basis set group =>   1
Atom  19C    basis set group =>   1
Atom  20C    basis set group =>   1
Atom  21C    basis set group =>   1
Atom  22C    basis set group =>   1
Atom  23O    basis set group =>   2
Atom  24C    basis set group =>   1
Atom  25H    basis set group =>   4
Atom  26H    basis set group =>   4
Atom  27H    basis set group =>   4
Atom  28H    basis set group =>   4
Atom  29H    basis set group =>   4
Atom  30H    basis set group =>   4
Atom  31H    basis set group =>   4
Atom  32H    basis set group =>   4
Atom  33H    basis set group =>   4
Atom  34H    basis set group =>   4
Atom  35H    basis set group =>   4
Atom  36H    basis set group =>   4
Atom  37H    basis set group =>   4
Atom  38H    basis set group =>   4
Atom  39H    basis set group =>   4
Atom  40H    basis set group =>   4
Atom  41H    basis set group =>   4
Atom  42H    basis set group =>   4
Atom  43H    basis set group =>   4
Atom  44H    basis set group =>   4
Atom  45H    basis set group =>   4
---------------------------------
AUXILIARY/J BASIS SET INFORMATION
---------------------------------
There are 4 groups of distinct atoms

 Group   1 Type C   : 12s5p4d2f1g contracted to 6s4p3d1f1g pattern {711111/2111/211/2/1}
 Group   2 Type O   : 12s5p4d2f1g contracted to 6s4p3d1f1g pattern {711111/2111/211/2/1}
 Group   3 Type P   : 14s5p5d2f1g contracted to 8s4p3d1f1g pattern {71111111/2111/311/2/1}
 Group   4 Type H   : 5s2p1d contracted to 3s1p1d pattern {311/2/1}

Atom   0C    basis set group =>   1
Atom   1O    basis set group =>   2
Atom   2C    basis set group =>   1
Atom   3C    basis set group =>   1
Atom   4C    basis set group =>   1
Atom   5C    basis set group =>   1
Atom   6C    basis set group =>   1
Atom   7C    basis set group =>   1
Atom   8P    basis set group =>   3
Atom   9C    basis set group =>   1
Atom  10C    basis set group =>   1
Atom  11C    basis set group =>   1
Atom  12C    basis set group =>   1
Atom  13C    basis set group =>   1
Atom  14C    basis set group =>   1
Atom  15O    basis set group =>   2
Atom  16C    basis set group =>   1
Atom  17C    basis set group =>   1
Atom  18C    basis set group =>   1
Atom  19C    basis set group =>   1
Atom  20C    basis set group =>   1
Atom  21C    basis set group =>   1
Atom  22C    basis set group =>   1
Atom  23O    basis set group =>   2
Atom  24C    basis set group =>   1
Atom  25H    basis set group =>   4
Atom  26H    basis set group =>   4
Atom  27H    basis set group =>   4
Atom  28H    basis set group =>   4
Atom  29H    basis set group =>   4
Atom  30H    basis set group =>   4
Atom  31H    basis set group =>   4
Atom  32H    basis set group =>   4
Atom  33H    basis set group =>   4
Atom  34H    basis set group =>   4
Atom  35H    basis set group =>   4
Atom  36H    basis set group =>   4
Atom  37H    basis set group =>   4
Atom  38H    basis set group =>   4
Atom  39H    basis set group =>   4
Atom  40H    basis set group =>   4
Atom  41H    basis set group =>   4
Atom  42H    basis set group =>   4
Atom  43H    basis set group =>   4
Atom  44H    basis set group =>   4
Atom  45H    basis set group =>   4


           ************************************************************
           *        Program running with 6 parallel MPI-processes     *
           *              working on a common directory               *
           ************************************************************
------------------------------------------------------------------------------
                             ORCA STARTUP CALCULATIONS
                           -- RI-GTO INTEGRALS CHOSEN --
------------------------------------------------------------------------------
------------------------------------------------------------------------------
                   ___                                                        
                  /   \      - P O W E R E D   B Y -                         
                 /     \                                                     
                 |  |  |   _    _      __       _____    __    __             
                 |  |  |  | |  | |    /  \     |  _  \  |  |  /  |          
                  \  \/   | |  | |   /    \    | | | |  |  | /  /          
                 / \  \   | |__| |  /  /\  \   | |_| |  |  |/  /          
                |  |  |   |  __  | /  /__\  \  |    /   |      \           
                |  |  |   | |  | | |   __   |  |    \   |  |\   \          
                \     /   | |  | | |  |  |  |  | |\  \  |  | \   \       
                 \___/    |_|  |_| |__|  |__|  |_| \__\ |__|  \__/        
                                                                              
                      - O R C A' S   B I G   F R I E N D -                    
                                      &                                       
                       - I N T E G R A L  F E E D E R -                       
                                                                              
 v1 FN, 2020, v2 2021, v3 2022-2024                                           
------------------------------------------------------------------------------


----------------------
SHARK INTEGRAL PACKAGE
----------------------

Number of atoms                             ...     46
Number of basis functions                   ...    459
Number of shells                            ...    215
Maximum angular momentum                    ...      2
Integral batch strategy                     ... SHARK/LIBINT Hybrid
RI-J (if used) integral strategy            ... SPLIT-RIJ (Revised 2003 algorithm where possible)
Printlevel                                  ...      1
Contraction scheme used                     ... SEGMENTED contraction
Prescreening option                         ... SCHWARTZ
   Thresh                                   ... 2.500e-11
   Tcut                                     ... 2.500e-12
   Tpresel                                  ... 2.500e-12 
Coulomb Range Separation                    ... NOT USED
Exchange Range Separation                   ... NOT USED
Multipole approximations                    ... NOT USED
Finite Nucleus Model                        ... NOT USED
CABS basis                                  ... NOT available
Auxiliary Coulomb fitting basis             ... AVAILABLE
   # of basis functions in Aux-J            ...   1458
   # of shells in Aux-J                     ...    482
   Maximum angular momentum in Aux-J        ...      4
Auxiliary J/K fitting basis                 ... NOT available
Auxiliary Correlation fitting basis         ... NOT available
Auxiliary 'external' fitting basis          ... NOT available

Checking pre-screening integrals            ... done (  0.0 sec) Dimension = 215
Check shell pair data                       ... done (  0.0 sec)
Shell pair information
Shell pair cut-off parameter TPreSel        ...   2.5e-12
Total number of shell pairs                 ...     23220
Shell pairs after pre-screening             ...     14801
Total number of primitive shell pairs       ...     85064
Primitive shell pairs kept                  ...     33886
          la=0 lb=0:   4633 shell pairs
          la=1 lb=0:   5533 shell pairs
          la=1 lb=1:   1719 shell pairs
          la=2 lb=0:   1718 shell pairs
          la=2 lb=1:   1038 shell pairs
          la=2 lb=2:    160 shell pairs

Calculating one electron integrals          ... done (  0.0 sec)
Calculating RI/J V-Matrix + Cholesky decomp.... done (  0.1 sec)
Calculating Nuclear repulsion               ... done (  0.0 sec) ENN=   2184.285925492964 Eh

Diagonalization of the overlap matrix:
Smallest eigenvalue                        ... 2.376e-04
Time for diagonalization                   ...    0.030 sec
Threshold for overlap eigenvalues          ... 1.000e-07
Number of eigenvalues below threshold      ... 0
Time for construction of square roots      ...    0.018 sec
Total time needed                          ...    0.050 sec

-------------------
DFT GRID GENERATION
-------------------

General Integration Accuracy     IntAcc      ... 4.388
Radial Grid Type                 RadialGrid  ... OptM3 with GC (2021)
Angular Grid (max. ang.)         AngularGrid ... 4 (Lebedev-302)
Angular grid pruning method      GridPruning ... 4 (adaptive)
Weight generation scheme         WeightScheme... mBecke (2022)
Basis function cutoff            BFCut       ... 1.0000e-11
Integration weight cutoff        WCut        ... 1.0000e-14
Partially contracted basis set               ... off
Rotationally invariant grid construction     ... off
Angular grids for H and He will be reduced by one unit

Total number of grid points                  ...   217905
Total number of batches                      ...     3429
Average number of points per batch           ...       63
Average number of grid points per atom       ...     4737
Initializing property integral containers    ... done (  0.0 sec)

SHARK setup successfully completed in   1.7 seconds

Maximum memory used throughout the entire STARTUP-calculation: 59.0 MB


           ************************************************************
           *        Program running with 6 parallel MPI-processes     *
           *              working on a common directory               *
           ************************************************************
-------------------------------------------------------------------------------
                                 ORCA GUESS
                   Start orbitals & Density for SCF / CASSCF
-------------------------------------------------------------------------------

------------
SCF SETTINGS
------------
Hamiltonian:
 Density Functional     Method          .... DFT(GTOs)
 Exchange Functional    Exchange        .... B88
   X-Alpha parameter    XAlpha          ....  0.666667
   Becke's b parameter  XBeta           ....  0.004200
 Correlation Functional Correlation     .... LYP
 LDA part of GGA corr.  LDAOpt          .... VWN-5
 Gradients option       PostSCFGGA      .... off
 Hybrid DFT is turned on
   Fraction HF Exchange ScalHFX         ....  0.200000
   Scaling of DF-GGA-X  ScalDFX         ....  0.720000
   Scaling of DF-GGA-C  ScalDFC         ....  0.810000
   Scaling of DF-LDA-C  ScalLDAC        ....  1.000000
   Perturbative correction              ....  0.000000
   NL short-range parameter             ....  4.800000
 RI-approximation to the Coulomb term is turned on
   Number of AuxJ basis functions       .... 1458
   RIJ-ON(X) (HFX calculated with O(N)) .... on


General Settings:
 Integral files         IntName         .... data/geom_opt/70071/70071
 Hartree-Fock type      HFTyp           .... RHF
 Total Charge           Charge          ....    0
 Multiplicity           Mult            ....    1
 Number of Electrons    NEL             ....  186
 Basis Dimension        Dim             ....  459
 Nuclear Repulsion      ENuc            ....   2184.2859254930 Eh

Convergence Acceleration:
 AO-DIIS                CNVDIIS         .... on
   Start iteration      DIISMaxIt       ....    12
   Startup error        DIISStart       ....  0.200000
   # of expansion vecs  DIISMaxEq       ....     5
   Bias factor          DIISBfac        ....   1.050
   Max. coefficient     DIISMaxC        ....  10.000
 MO-DIIS                CNVKDIIS        .... off
 Trust-Rad. Augm. Hess. CNVTRAH         .... auto
   Auto Start mean grad. ratio tolernc. ....  1.125000
   Auto Start start iteration           ....    50
   Auto Start num. interpolation iter.  ....    10
   Max. Number of Micro iterations      ....    24
   Max. Number of Macro iterations      .... Maxiter - #DIIS iter
   Number of Davidson start vectors     ....     2
   Converg. threshold    (grad. norm)   ....   1.000e-05
   Grad. Scal. Fac. for Micro threshold ....   0.100
   Minimum threshold for Micro iter.    ....   1.000e-02
   NR start threshold (gradient norm)   ....   1.000e-04
   Initial trust radius                 ....   0.400
   Minimum AH scaling param. (alpha)    ....   1.000
   Maximum AH scaling param. (alpha)    .... 1000.000
   Quad. conv. algorithm                .... NR
   White noise on init. David. guess    .... on
   Maximum white noise                  ....   0.010
   Pseudo random numbers                .... off
   Inactive MOs                         .... canonical
   Orbital update algorithm             .... Taylor
   Preconditioner                       .... Diag
   Full preconditioner red. dimension   ....   250
   COSX micro iterations for RIJONX calc.... off
 SOSCF                  CNVSOSCF        .... on
   Start iteration      SOSCFMaxIt      ....   150
   Startup grad/error   SOSCFStart      ....  0.003300
   Hessian update       SOSCFHessUp     .... L-BFGS
 Level Shifting         CNVShift        .... on
   Level shift para.    LevelShift      ....    0.2500
   Turn off err/grad.   ShiftErr        ....    0.0010
 Zerner damping         CNVZerner       .... off
 Static damping         CNVDamp         .... on
   Fraction old density DampFac         ....    0.7000
   Max. Damping (<1)    DampMax         ....    0.9800
   Min. Damping (>=0)   DampMin         ....    0.0000
   Turn off err/grad.   DampErr         ....    0.1000

SCF Procedure:
 Maximum # iterations   MaxIter         ....   125
 SCF integral mode      SCFMode         .... Direct
   Integral package                     .... SHARK and LIBINT hybrid scheme
 Reset frequency        DirectResetFreq ....    20
 Integral Threshold     Thresh          ....  2.500e-11 Eh
 Primitive CutOff       TCut            ....  2.500e-12 Eh

Convergence Tolerance:
 Convergence Check Mode ConvCheckMode   .... Total+1el-Energy
 Convergence forced     ConvForced      .... 0
 Energy Change          TolE            ....  1.000e-08 Eh
 1-El. energy change                    ....  1.000e-05 Eh
 Orbital Gradient       TolG            ....  1.000e-05
 Orbital Rotation angle TolX            ....  1.000e-05
 DIIS Error             TolErr          ....  5.000e-07

------------------------------
INITIAL GUESS: MODEL POTENTIAL
------------------------------
Loading Hartree-Fock densities                     ... done
Calculating cut-offs                               ... done
Initializing the effective Hamiltonian             ... done
Setting up the integral package (SHARK)            ... done
Starting the Coulomb interaction                   ... done (   0.2 sec)
Making the grid                                    ... done (   0.3 sec)
Mapping shells                                     ... done
Starting the XC term evaluation                    ... done (   0.2 sec)
  promolecular density results
     # of electrons  =    185.998547594
     EX              =   -161.474276550
     EC              =     -6.398368736
     EX+EC           =   -167.872645286
Transforming the Hamiltonian                       ... done (   0.0 sec)
Diagonalizing the Hamiltonian                      ... done (   0.0 sec)
Back transforming the eigenvectors                 ... done (   0.0 sec)
Now organizing SCF variables                       ... done
                      ------------------
                      INITIAL GUESS DONE (   0.8 sec)
                      ------------------
             **** ENERGY FILE WAS UPDATED (data/geom_opt/70071/70071.en.tmp) ****
Finished Guess after   0.9 sec
Maximum memory used throughout the entire GUESS-calculation: 33.2 MB


           ************************************************************
           *        Program running with 6 parallel MPI-processes     *
           *              working on a common directory               *
           ************************************************************

-------------------------------------------------------------------------------------------
                                      ORCA LEAN-SCF
                              memory conserving SCF solver
-------------------------------------------------------------------------------------------

----------------------------------------D-I-I-S--------------------------------------------
Iteration    Energy (Eh)           Delta-E    RMSDP     MaxDP     DIISErr   Damp  Time(sec)
-------------------------------------------------------------------------------------------
               ***  Starting incremental Fock matrix formation  ***
    1    -1377.8567785813770570     0.00e+00  2.09e-03  5.74e-02  1.41e-01  0.700   7.1
    2    -1378.0699636822141656    -2.13e-01  1.49e-03  5.44e-02  6.80e-02  0.700   6.2
                               ***Turning on AO-DIIS***
    3    -1378.1644782939106335    -9.45e-02  6.96e-04  3.37e-02  3.11e-02  0.700   6.0
    4    -1378.2193178353550138    -5.48e-02  1.33e-03  7.54e-02  1.72e-02  0.000   5.8
    5    -1378.3362685420711387    -1.17e-01  1.86e-04  1.17e-02  4.19e-03  0.000   6.0
                              *** Initializing SOSCF ***
---------------------------------------S-O-S-C-F--------------------------------------
Iteration    Energy (Eh)           Delta-E    RMSDP     MaxDP     MaxGrad    Time(sec)
--------------------------------------------------------------------------------------
    6    -1378.3368071317772774    -5.39e-04  6.47e-05  4.00e-03  1.22e-03     5.3
               *** Restarting incremental Fock matrix formation ***
    7    -1378.3368511783364738    -4.40e-05  5.45e-05  1.75e-03  2.55e-04     6.9
    8    -1378.3368370373532343     1.41e-05  2.74e-05  1.00e-03  5.66e-04     4.7
    9    -1378.3368598152105733    -2.28e-05  1.23e-05  5.00e-04  7.98e-05     4.8
   10    -1378.3368588999637723     9.15e-07  6.91e-06  2.36e-04  1.31e-04     4.1
   11    -1378.3368604200709342    -1.52e-06  2.42e-06  1.03e-04  2.01e-05     4.0
   12    -1378.3368604288539245    -8.78e-09  1.45e-06  6.12e-05  2.77e-05     3.5
                 **** Energy Check signals convergence ****

               *****************************************************
               *                     SUCCESS                       *
               *           SCF CONVERGED AFTER  12 CYCLES          *
               *****************************************************

             **** ENERGY FILE WAS UPDATED (data/geom_opt/70071/70071.en.tmp) ****

----------------
TOTAL SCF ENERGY
----------------

Total Energy       :      -1378.33686042885392 Eh          -37506.45276 eV

Components:
Nuclear Repulsion  :       2184.28592549296400 Eh           59437.44177 eV
Electronic Energy  :      -3562.62278592181792 Eh          -96943.89454 eV
One Electron Energy:      -6223.33764595955381 Eh         -169345.62671 eV
Two Electron Energy:       2660.71486003773589 Eh           72401.73217 eV

Virial components:
Potential Energy   :      -2745.57951046189100 Eh          -74711.01671 eV
Kinetic Energy     :       1367.24265003303685 Eh           37204.56395 eV
Virial Ratio       :          2.00811429514399

DFT components:
N(Alpha)           :       93.000098821328 electrons
N(Beta)            :       93.000098821328 electrons
N(Total)           :      186.000197642655 electrons
E(X)               :     -129.854167796692 Eh       
E(C)               :       -7.530952951354 Eh       
E(XC)              :     -137.385120748045 Eh       

---------------
SCF CONVERGENCE
---------------

  Last Energy change         ...    8.7830e-09  Tolerance :   1.0000e-08
  Last MAX-Density change    ...    6.1232e-05  Tolerance :   1.0000e-07
  Last RMS-Density change    ...    1.4511e-06  Tolerance :   5.0000e-09
  Last DIIS Error            ...    1.2207e-03  Tolerance :   5.0000e-07
  Last Orbital Gradient      ...    2.7709e-05  Tolerance :   1.0000e-05
  Last Orbital Rotation      ...    3.2777e-05  Tolerance :   1.0000e-05


----------------
ORBITAL ENERGIES
----------------

  NO   OCC          E(Eh)            E(eV) 
   0   2.0000     -77.037119     -2096.2866 
   1   2.0000     -19.160522      -521.3843 
   2   2.0000     -19.160522      -521.3843 
   3   2.0000     -19.160520      -521.3843 
   4   2.0000     -10.242462      -278.7116 
   5   2.0000     -10.242456      -278.7114 
   6   2.0000     -10.242454      -278.7113 
   7   2.0000     -10.240856      -278.6678 
   8   2.0000     -10.240855      -278.6678 
   9   2.0000     -10.240854      -278.6678 
  10   2.0000     -10.187019      -277.2029 
  11   2.0000     -10.186999      -277.2023 
  12   2.0000     -10.186992      -277.2021 
  13   2.0000     -10.186673      -277.1935 
  14   2.0000     -10.186661      -277.1931 
  15   2.0000     -10.186656      -277.1930 
  16   2.0000     -10.183333      -277.1026 
  17   2.0000     -10.183327      -277.1024 
  18   2.0000     -10.183323      -277.1023 
  19   2.0000     -10.179151      -276.9888 
  20   2.0000     -10.179142      -276.9885 
  21   2.0000     -10.179066      -276.9865 
  22   2.0000     -10.178854      -276.9807 
  23   2.0000     -10.178849      -276.9806 
  24   2.0000     -10.178847      -276.9805 
  25   2.0000      -6.533501      -177.7856 
  26   2.0000      -4.698960      -127.8652 
  27   2.0000      -4.698957      -127.8651 
  28   2.0000      -4.695981      -127.7841 
  29   2.0000      -1.050998       -28.5991 
  30   2.0000      -1.050995       -28.5990 
  31   2.0000      -1.050995       -28.5990 
  32   2.0000      -0.846884       -23.0449 
  33   2.0000      -0.839328       -22.8393 
  34   2.0000      -0.839327       -22.8392 
  35   2.0000      -0.765118       -20.8199 
  36   2.0000      -0.745425       -20.2841 
  37   2.0000      -0.745423       -20.2840 
  38   2.0000      -0.736492       -20.0410 
  39   2.0000      -0.734369       -19.9832 
  40   2.0000      -0.734363       -19.9830 
  41   2.0000      -0.700804       -19.0698 
  42   2.0000      -0.683844       -18.6083 
  43   2.0000      -0.683841       -18.6083 
  44   2.0000      -0.623705       -16.9719 
  45   2.0000      -0.604011       -16.4360 
  46   2.0000      -0.604005       -16.4358 
  47   2.0000      -0.600587       -16.3428 
  48   2.0000      -0.579235       -15.7618 
  49   2.0000      -0.579232       -15.7617 
  50   2.0000      -0.550498       -14.9798 
  51   2.0000      -0.532197       -14.4818 
  52   2.0000      -0.532196       -14.4818 
  53   2.0000      -0.525092       -14.2885 
  54   2.0000      -0.481861       -13.1121 
  55   2.0000      -0.481857       -13.1120 
  56   2.0000      -0.481174       -13.0934 
  57   2.0000      -0.470673       -12.8077 
  58   2.0000      -0.470673       -12.8077 
  59   2.0000      -0.470637       -12.8067 
  60   2.0000      -0.459015       -12.4904 
  61   2.0000      -0.459013       -12.4904 
  62   2.0000      -0.441663       -12.0183 
  63   2.0000      -0.440422       -11.9845 
  64   2.0000      -0.440416       -11.9843 
  65   2.0000      -0.421877       -11.4799 
  66   2.0000      -0.420817       -11.4510 
  67   2.0000      -0.420813       -11.4509 
  68   2.0000      -0.413451       -11.2506 
  69   2.0000      -0.409872       -11.1532 
  70   2.0000      -0.409867       -11.1531 
  71   2.0000      -0.398692       -10.8490 
  72   2.0000      -0.379446       -10.3253 
  73   2.0000      -0.379443       -10.3252 
  74   2.0000      -0.378274       -10.2934 
  75   2.0000      -0.359155        -9.7731 
  76   2.0000      -0.359153        -9.7730 
  77   2.0000      -0.358846        -9.7647 
  78   2.0000      -0.336662        -9.1610 
  79   2.0000      -0.336660        -9.1610 
  80   2.0000      -0.327108        -8.9011 
  81   2.0000      -0.325108        -8.8466 
  82   2.0000      -0.325107        -8.8466 
  83   2.0000      -0.322691        -8.7809 
  84   2.0000      -0.315144        -8.5755 
  85   2.0000      -0.315142        -8.5754 
  86   2.0000      -0.256008        -6.9663 
  87   2.0000      -0.250223        -6.8089 
  88   2.0000      -0.250218        -6.8088 
  89   2.0000      -0.247435        -6.7331 
  90   2.0000      -0.225687        -6.1412 
  91   2.0000      -0.225683        -6.1412 
  92   2.0000      -0.189437        -5.1548 
  93   0.0000      -0.016566        -0.4508 
  94   0.0000      -0.008581        -0.2335 
  95   0.0000      -0.008575        -0.2333 
  96   0.0000       0.000483         0.0132 
  97   0.0000       0.000488         0.0133 
  98   0.0000       0.011206         0.3049 
  99   0.0000       0.064786         1.7629 
 100   0.0000       0.064795         1.7632 
 101   0.0000       0.064798         1.7633 
 102   0.0000       0.080248         2.1837 
 103   0.0000       0.080259         2.1840 
*Only the first 10 virtual orbitals were printed.

                    ********************************
                    * MULLIKEN POPULATION ANALYSIS *
                    ********************************

-----------------------
MULLIKEN ATOMIC CHARGES
-----------------------
   0 C :    0.193570
   1 O :   -0.322419
   2 C :    0.247375
   3 C :   -0.017879
   4 C :    0.018219
   5 C :   -0.134940
   6 C :    0.011191
   7 C :   -0.080867
   8 P :    0.333621
   9 C :   -0.134686
  10 C :    0.011180
  11 C :   -0.080968
  12 C :    0.247343
  13 C :   -0.017815
  14 C :    0.018106
  15 O :   -0.322421
  16 C :    0.193610
  17 C :   -0.134862
  18 C :    0.018178
  19 C :   -0.017843
  20 C :    0.247388
  21 C :   -0.081062
  22 C :    0.011211
  23 O :   -0.322416
  24 C :    0.193665
  25 H :    0.017567
  26 H :    0.019461
  27 H :    0.027876
  28 H :   -0.025424
  29 H :   -0.018492
  30 H :   -0.008251
  31 H :   -0.038216
  32 H :   -0.008282
  33 H :   -0.038183
  34 H :   -0.025423
  35 H :   -0.018476
  36 H :    0.027870
  37 H :    0.019440
  38 H :    0.017551
  39 H :   -0.018497
  40 H :   -0.025405
  41 H :   -0.038187
  42 H :   -0.008223
  43 H :    0.019418
  44 H :    0.017524
  45 H :    0.027873
Sum of atomic charges:   -0.0000000

--------------------------------
MULLIKEN REDUCED ORBITAL CHARGES
--------------------------------
  0 C s       :     2.996631  s :     2.996631
      pz      :     0.850738  p :     2.756834
      px      :     0.889096
      py      :     1.017000
      dz2     :     0.013856  d :     0.052965
      dxz     :     0.015865
      dyz     :     0.005865
      dx2y2   :     0.004599
      dxy     :     0.012779

  1 O s       :     3.743675  s :     3.743675
      pz      :     1.542886  p :     4.562052
      px      :     1.438029
      py      :     1.581137
      dz2     :     0.003090  d :     0.016692
      dxz     :     0.002841
      dyz     :     0.003159
      dx2y2   :     0.002835
      dxy     :     0.004766

  2 C s       :     2.936237  s :     2.936237
      pz      :     0.962836  p :     2.742303
      px      :     0.890267
      py      :     0.889200
      dz2     :     0.012299  d :     0.074085
      dxz     :     0.010148
      dyz     :     0.015434
      dx2y2   :     0.017079
      dxy     :     0.019125

  3 C s       :     3.246019  s :     3.246019
      pz      :     0.964979  p :     2.739259
      px      :     0.969631
      py      :     0.804649
      dz2     :     0.006405  d :     0.032602
      dxz     :     0.006229
      dyz     :     0.006115
      dx2y2   :     0.007773
      dxy     :     0.006080

  4 C s       :     3.221118  s :     3.221118
      pz      :     0.896937  p :     2.725032
      px      :     0.897240
      py      :     0.930854
      dz2     :     0.004863  d :     0.035631
      dxz     :     0.005599
      dyz     :     0.008164
      dx2y2   :     0.008451
      dxy     :     0.008554

  5 C s       :     3.066223  s :     3.066223
      pz      :     0.996096  p :     3.032335
      px      :     1.021559
      py      :     1.014679
      dz2     :     0.007352  d :     0.036383
      dxz     :     0.006195
      dyz     :     0.008319
      dx2y2   :     0.006611
      dxy     :     0.007906

  6 C s       :     3.230361  s :     3.230361
      pz      :     0.936190  p :     2.722728
      px      :     0.944889
      py      :     0.841648
      dz2     :     0.006691  d :     0.035720
      dxz     :     0.006027
      dyz     :     0.007829
      dx2y2   :     0.008605
      dxy     :     0.006568

  7 C s       :     3.245797  s :     3.245797
      pz      :     0.904738  p :     2.802081
      px      :     0.947106
      py      :     0.950237
      dz2     :     0.004617  d :     0.032989
      dxz     :     0.005505
      dyz     :     0.007189
      dx2y2   :     0.008609
      dxy     :     0.007069

  8 P s       :     5.646407  s :     5.646407
      pz      :     3.341250  p :     8.837029
      px      :     2.748854
      py      :     2.746925
      dz2     :     0.015310  d :     0.182942
      dxz     :     0.038390
      dyz     :     0.035105
      dx2y2   :     0.045412
      dxy     :     0.048726

  9 C s       :     3.066103  s :     3.066103
      pz      :     0.992036  p :     3.032200
      px      :     1.004137
      py      :     1.036027
      dz2     :     0.007770  d :     0.036383
      dxz     :     0.009622
      dyz     :     0.005036
      dx2y2   :     0.007247
      dxy     :     0.006708

 10 C s       :     3.230285  s :     3.230285
      pz      :     0.935738  p :     2.722814
      px      :     0.824149
      py      :     0.962928
      dz2     :     0.007421  d :     0.035720
      dxz     :     0.009242
      dyz     :     0.005000
      dx2y2   :     0.006606
      dxy     :     0.007451

 11 C s       :     3.245772  s :     3.245772
      pz      :     0.889334  p :     2.802206
      px      :     0.950052
      py      :     0.962820
      dz2     :     0.005167  d :     0.032990
      dxz     :     0.008272
      dyz     :     0.004346
      dx2y2   :     0.007403
      dxy     :     0.007803

 12 C s       :     2.936213  s :     2.936213
      pz      :     0.951637  p :     2.742358
      px      :     0.817615
      py      :     0.973105
      dz2     :     0.013009  d :     0.074087
      dxz     :     0.019754
      dyz     :     0.006954
      dx2y2   :     0.017131
      dxy     :     0.017238

 13 C s       :     3.245938  s :     3.245938
      pz      :     0.964477  p :     2.739275
      px      :     0.789656
      py      :     0.985142
      dz2     :     0.007193  d :     0.032601
      dxz     :     0.007160
      dyz     :     0.005304
      dx2y2   :     0.006938
      dxy     :     0.006006

 14 C s       :     3.221143  s :     3.221143
      pz      :     0.886987  p :     2.725119
      px      :     0.919647
      py      :     0.918486
      dz2     :     0.005348  d :     0.035632
      dxz     :     0.009217
      dyz     :     0.004656
      dx2y2   :     0.008019
      dxy     :     0.008392

 15 O s       :     3.743689  s :     3.743689
      pz      :     1.490902  p :     4.562040
      px      :     1.456724
      py      :     1.614414
      dz2     :     0.003152  d :     0.016692
      dxz     :     0.003077
      dyz     :     0.003219
      dx2y2   :     0.004631
      dxy     :     0.002614

 16 C s       :     2.996614  s :     2.996614
      pz      :     0.831229  p :     2.756811
      px      :     1.033099
      py      :     0.892483
      dz2     :     0.013450  d :     0.052965
      dxz     :     0.008217
      dyz     :     0.015173
      dx2y2   :     0.010907
      dxy     :     0.005218

 17 C s       :     3.066188  s :     3.066188
      pz      :     0.991753  p :     3.032291
      px      :     1.032680
      py      :     1.007858
      dz2     :     0.007995  d :     0.036383
      dxz     :     0.006440
      dyz     :     0.008804
      dx2y2   :     0.006912
      dxy     :     0.006231

 18 C s       :     3.221154  s :     3.221154
      pz      :     0.885501  p :     2.725037
      px      :     0.935889
      py      :     0.903647
      dz2     :     0.005718  d :     0.035631
      dxz     :     0.005893
      dyz     :     0.007988
      dx2y2   :     0.008263
      dxy     :     0.007769

 19 C s       :     3.245916  s :     3.245916
      pz      :     0.954339  p :     2.739326
      px      :     0.908053
      py      :     0.876935
      dz2     :     0.007065  d :     0.032601
      dxz     :     0.005325
      dyz     :     0.007633
      dx2y2   :     0.005152
      dxy     :     0.007425

 20 C s       :     2.936190  s :     2.936190
      pz      :     0.962630  p :     2.742335
      px      :     0.967410
      py      :     0.812295
      dz2     :     0.013213  d :     0.074087
      dxz     :     0.009596
      dyz     :     0.016596
      dx2y2   :     0.018131
      dxy     :     0.016551

 21 C s       :     3.245795  s :     3.245795
      pz      :     0.877249  p :     2.802278
      px      :     0.970153
      py      :     0.954876
      dz2     :     0.005335  d :     0.032989
      dxz     :     0.005088
      dyz     :     0.007835
      dx2y2   :     0.007022
      dxy     :     0.007708

 22 C s       :     3.230009  s :     3.230009
      pz      :     0.934072  p :     2.723060
      px      :     0.912310
      py      :     0.876678
      dz2     :     0.007211  d :     0.035720
      dxz     :     0.006172
      dyz     :     0.008644
      dx2y2   :     0.006280
      dxy     :     0.007413

 23 O s       :     3.743698  s :     3.743698
      pz      :     1.499721  p :     4.562025
      px      :     1.681491
      py      :     1.380814
      dz2     :     0.003478  d :     0.016692
      dxz     :     0.003409
      dyz     :     0.002558
      dx2y2   :     0.003376
      dxy     :     0.003871

 24 C s       :     2.996603  s :     2.996603
      pz      :     0.821723  p :     2.756768
      px      :     0.960549
      py      :     0.974496
      dz2     :     0.014893  d :     0.052964
      dxz     :     0.009408
      dyz     :     0.012670
      dx2y2   :     0.009370
      dxy     :     0.006621

 25 H s       :     0.959707  s :     0.959707
      pz      :     0.011431  p :     0.022725
      px      :     0.005745
      py      :     0.005550

 26 H s       :     0.957797  s :     0.957797
      pz      :     0.004067  p :     0.022742
      px      :     0.007891
      py      :     0.010784

 27 H s       :     0.950223  s :     0.950223
      pz      :     0.003692  p :     0.021901
      px      :     0.007238
      py      :     0.010972

 28 H s       :     1.002299  s :     1.002299
      pz      :     0.005927  p :     0.023125
      px      :     0.004063
      py      :     0.013134

 29 H s       :     0.995461  s :     0.995461
      pz      :     0.010494  p :     0.023032
      px      :     0.008111
      py      :     0.004426

 30 H s       :     0.984553  s :     0.984553
      pz      :     0.006078  p :     0.023697
      px      :     0.004111
      py      :     0.013509

 31 H s       :     1.014589  s :     1.014589
[...]
      dxz     :     0.005957
      dyz     :     0.006262
      dx2y2   :     0.006190
      dxy     :     0.006449

 24 C s       :     2.846345  s :     2.846345
      pz      :     0.886137  p :     2.951067
      px      :     1.032338
      py      :     1.032593
      dz2     :     0.036557  d :     0.123747
      dxz     :     0.020419
      dyz     :     0.029712
      dx2y2   :     0.022725
      dxy     :     0.014334

 25 H s       :     0.923745  s :     0.923745
      pz      :     0.032857  p :     0.063957
      px      :     0.017854
      py      :     0.013246

 26 H s       :     0.922624  s :     0.922624
      pz      :     0.010214  p :     0.064069
      px      :     0.022690
      py      :     0.031165

 27 H s       :     0.911435  s :     0.911435
      pz      :     0.009964  p :     0.062145
      px      :     0.020350
      py      :     0.031831

 28 H s       :     0.900767  s :     0.900767
      pz      :     0.017298  p :     0.068389
      px      :     0.013198
      py      :     0.037892

 29 H s       :     0.907245  s :     0.907245
      pz      :     0.031398  p :     0.066907
      px      :     0.022203
      py      :     0.013306

 30 H s       :     0.901215  s :     0.901215
      pz      :     0.017221  p :     0.069435
      px      :     0.013039
      py      :     0.039175

 31 H s       :     0.904762  s :     0.904762
      pz      :     0.032090  p :     0.070396
      px      :     0.023590
      py      :     0.014716

 32 H s       :     0.901199  s :     0.901199
      pz      :     0.015658  p :     0.069477
      px      :     0.037118
      py      :     0.016701

 33 H s       :     0.904763  s :     0.904763
      pz      :     0.033164  p :     0.070391
      px      :     0.011432
      py      :     0.025795

 34 H s       :     0.900775  s :     0.900775
      pz      :     0.015679  p :     0.068389
      px      :     0.035531
      py      :     0.017179

 35 H s       :     0.907226  s :     0.907226
      pz      :     0.032774  p :     0.066909
      px      :     0.010705
      py      :     0.023430

 36 H s       :     0.911431  s :     0.911431
      pz      :     0.010816  p :     0.062144
      px      :     0.040745
      py      :     0.010583

 37 H s       :     0.922647  s :     0.922647
      pz      :     0.009781  p :     0.064061
      px      :     0.016011
      py      :     0.038269

 38 H s       :     0.923737  s :     0.923737
      pz      :     0.029594  p :     0.063960
      px      :     0.019812
      py      :     0.014554

 39 H s       :     0.907252  s :     0.907252
      pz      :     0.033753  p :     0.066902
      px      :     0.018610
      py      :     0.014539

 40 H s       :     0.900785  s :     0.900785
      pz      :     0.017627  p :     0.068389
      px      :     0.028769
      py      :     0.021993

 41 H s       :     0.904788  s :     0.904788
      pz      :     0.034122  p :     0.070393
      px      :     0.020970
      py      :     0.015301

 42 H s       :     0.901160  s :     0.901160
      pz      :     0.017738  p :     0.069490
      px      :     0.028991
      py      :     0.022761

 43 H s       :     0.922672  s :     0.922672
      pz      :     0.009219  p :     0.064059
      px      :     0.042554
      py      :     0.012287

 44 H s       :     0.923776  s :     0.923776
      pz      :     0.030841  p :     0.063957
      px      :     0.011719
      py      :     0.021397

 45 H s       :     0.911452  s :     0.911452
      pz      :     0.009643  p :     0.062140
      px      :     0.016917
      py      :     0.035581



                      *****************************
                      * MAYER POPULATION ANALYSIS *
                      *****************************

  NA   - Mulliken gross atomic population
  ZA   - Total nuclear charge
  QA   - Mulliken gross atomic charge
  VA   - Mayer's total valence
  BVA  - Mayer's bonded valence
  FA   - Mayer's free valence

  ATOM       NA         ZA         QA         VA         BVA        FA
  0 C      5.8153     6.0000     0.1847     3.9326     3.9326    -0.0000
  1 O      8.3103     8.0000    -0.3103     2.2161     2.2161    -0.0000
  2 C      5.7743     6.0000     0.2257     3.8844     3.8844    -0.0000
  3 C      6.0128     6.0000    -0.0128     3.8353     3.8353    -0.0000
  4 C      5.9775     6.0000     0.0225     3.8529     3.8529    -0.0000
  5 C      6.1570     6.0000    -0.1570     3.7720     3.7720    -0.0000
  6 C      5.9853     6.0000     0.0147     3.8846     3.8846    -0.0000
  7 C      6.0761     6.0000    -0.0761     3.7902     3.7902    -0.0000
  8 P     14.6412    15.0000     0.3588     2.9234     2.9234    -0.0000
  9 C      6.1570     6.0000    -0.1570     3.7717     3.7717    -0.0000
 10 C      5.9851     6.0000     0.0149     3.8848     3.8848    -0.0000
 11 C      6.0761     6.0000    -0.0761     3.7902     3.7902    -0.0000
 12 C      5.7743     6.0000     0.2257     3.8844     3.8844    -0.0000
 13 C      6.0128     6.0000    -0.0128     3.8351     3.8351    -0.0000
 14 C      5.9780     6.0000     0.0220     3.8533     3.8533    -0.0000
 15 O      8.3103     8.0000    -0.3103     2.2161     2.2161    -0.0000
 16 C      5.8154     6.0000     0.1846     3.9326     3.9326    -0.0000
 17 C      6.1567     6.0000    -0.1567     3.7718     3.7718    -0.0000
 18 C      5.9777     6.0000     0.0223     3.8533     3.8533    -0.0000
 19 C      6.0128     6.0000    -0.0128     3.8355     3.8355    -0.0000
 20 C      5.7743     6.0000     0.2257     3.8845     3.8845    -0.0000
 21 C      6.0762     6.0000    -0.0762     3.7904     3.7904    -0.0000
 22 C      5.9857     6.0000     0.0143     3.8854     3.8854    -0.0000
 23 O      8.3104     8.0000    -0.3104     2.2160     2.2160    -0.0000
 24 C      5.8153     6.0000     0.1847     3.9326     3.9326    -0.0000
 25 H      0.9826     1.0000     0.0174     0.9849     0.9849    -0.0000
 26 H      0.9803     1.0000     0.0197     0.9856     0.9856    -0.0000
 27 H      0.9680     1.0000     0.0320     0.9873     0.9873    -0.0000
 28 H      1.0234     1.0000    -0.0234     0.9948     0.9948    -0.0000
 29 H      1.0166     1.0000    -0.0166     0.9900     0.9900    -0.0000
 30 H      1.0041     1.0000    -0.0041     0.9913     0.9913    -0.0000
 31 H      1.0357     1.0000    -0.0357     0.9954     0.9954    -0.0000
 32 H      1.0044     1.0000    -0.0044     0.9915     0.9915    -0.0000
 33 H      1.0357     1.0000    -0.0357     0.9954     0.9954    -0.0000
 34 H      1.0234     1.0000    -0.0234     0.9948     0.9948    -0.0000
 35 H      1.0166     1.0000    -0.0166     0.9900     0.9900    -0.0000
 36 H      0.9680     1.0000     0.0320     0.9873     0.9873    -0.0000
 37 H      0.9803     1.0000     0.0197     0.9855     0.9855    -0.0000
 38 H      0.9826     1.0000     0.0174     0.9850     0.9850    -0.0000
 39 H      1.0167     1.0000    -0.0167     0.9900     0.9900    -0.0000
 40 H      1.0234     1.0000    -0.0234     0.9949     0.9949    -0.0000
 41 H      1.0358     1.0000    -0.0358     0.9954     0.9954    -0.0000
 42 H      1.0039     1.0000    -0.0039     0.9912     0.9912    -0.0000
 43 H      0.9804     1.0000     0.0196     0.9855     0.9855    -0.0000
 44 H      0.9826     1.0000     0.0174     0.9849     0.9849    -0.0000
 45 H      0.9680     1.0000     0.0320     0.9873     0.9873    -0.0000

  Mayer bond orders larger than 0.100000
B(  0-C ,  1-O ) :   0.9722 B(  0-C , 25-H ) :   0.9646 B(  0-C , 26-H ) :   0.9646 
B(  0-C , 27-H ) :   0.9766 B(  1-O ,  2-C ) :   1.1293 B(  2-C ,  3-C ) :   1.3402 
B(  2-C ,  7-C ) :   1.3090 B(  3-C ,  4-C ) :   1.4155 B(  3-C , 28-H ) :   0.9901 
B(  4-C ,  5-C ) :   1.3338 B(  4-C , 29-H ) :   0.9814 B(  5-C ,  6-C ) :   1.3953 
B(  5-C ,  8-P ) :   0.9280 B(  6-C ,  7-C ) :   1.3479 B(  6-C , 30-H ) :   0.9764 
B(  7-C , 31-H ) :   0.9892 B(  8-P ,  9-C ) :   0.9279 B(  8-P , 17-C ) :   0.9273 
B(  9-C , 10-C ) :   1.3955 B(  9-C , 14-C ) :   1.3337 B( 10-C , 11-C ) :   1.3480 
B( 10-C , 32-H ) :   0.9764 B( 11-C , 12-C ) :   1.3091 B( 11-C , 33-H ) :   0.9891 
B( 12-C , 13-C ) :   1.3401 B( 12-C , 15-O ) :   1.1292 B( 13-C , 14-C ) :   1.4155 
B( 13-C , 34-H ) :   0.9900 B( 14-C , 35-H ) :   0.9815 B( 15-O , 16-C ) :   0.9722 
B( 16-C , 36-H ) :   0.9766 B( 16-C , 37-H ) :   0.9646 B( 16-C , 38-H ) :   0.9646 
B( 17-C , 18-C ) :   1.3333 B( 17-C , 22-C ) :   1.3964 B( 18-C , 19-C ) :   1.4161 
B( 18-C , 39-H ) :   0.9814 B( 19-C , 20-C ) :   1.3399 B( 19-C , 40-H ) :   0.9900 
B( 20-C , 21-C ) :   1.3096 B( 20-C , 23-O ) :   1.1290 B( 21-C , 22-C ) :   1.3476 
B( 21-C , 41-H ) :   0.9891 B( 22-C , 42-H ) :   0.9762 B( 23-O , 24-C ) :   0.9723 
B( 24-C , 43-H ) :   0.9646 B( 24-C , 44-H ) :   0.9646 B( 24-C , 45-H ) :   0.9766 


-------
TIMINGS
-------

Total SCF time: 0 days 0 hours 0 min 32 sec 

Total time                  ....      32.092 sec
Sum of individual times     ....      31.970 sec  ( 99.6%)

SCF preparation             ....       0.136 sec  (  0.4%)
Fock matrix formation       ....      31.053 sec  ( 96.8%)
  Startup                   ....       0.037 sec  (  0.1% of F)
  Exchange formation        ....      24.462 sec  ( 78.8% of F)
  Split-RI-J                ....       2.591 sec  (  8.3% of F)
  XC integration            ....       3.834 sec  ( 12.3% of F)
    Basis function eval.    ....       1.229 sec  ( 32.1% of XC)
    Density eval.           ....       1.195 sec  ( 31.2% of XC)
    XC-Functional eval.     ....       0.089 sec  (  2.3% of XC)
    XC-Potential eval.      ....       0.800 sec  ( 20.9% of XC)
Diagonalization             ....       0.000 sec  (  0.0%)
Density matrix formation    ....       0.094 sec  (  0.3%)
Total Energy calculation    ....       0.029 sec  (  0.1%)
Population analysis         ....       0.111 sec  (  0.3%)
Orbital Transformation      ....       0.072 sec  (  0.2%)
Orbital Orthonormalization  ....       0.000 sec  (  0.0%)
DIIS solution               ....       0.081 sec  (  0.3%)
SOSCF solution              ....       0.394 sec  (  1.2%)
Finished LeanSCF after  32.1 sec

Maximum memory used throughout the entire LEANSCF-calculation: 49.0 MB


-------------------------------------------------------------------------------
                          DFT DISPERSION CORRECTION                            
                                                                               
                              DFTD3 V3.1  Rev 1                                
                          USING Becke-Johnson damping                          
-------------------------------------------------------------------------------
The B3LYP functional is recognized
Active option DFTDOPT                   ...         4   

molecular C6(AA) [au] = 26019.423719 


            DFT-D V3
 parameters
 s6 scaling factor         :     1.0000 
 a1 scaling factor         :     0.3981 
 s8 scaling factor         :     1.9889 
 a2 scaling factor         :     4.4211 
 ad hoc parameters k1-k3   :    16.0000     1.3333    -4.0000 

 Edisp/kcal,au: -66.660846200028  -0.106230809007 
 E6   /kcal   : -30.668204647 
 E8   /kcal   : -35.992641553 
 % E8         :  53.993676355 

-------------------------   ----------------
Dispersion correction           -0.106230809
-------------------------   ----------------


-------------------------   --------------------
FINAL SINGLE POINT ENERGY     -1378.448070260142
-------------------------   --------------------

                                *** OPTIMIZATION RUN DONE ***



           ************************************************************
           *        Program running with 6 parallel MPI-processes     *
           *              working on a common directory               *
           ************************************************************

------------------------------------------------------------------------------
                              ORCA PROPERTY CALCULATIONS
------------------------------------------------------------------------------

GBWName                                 ... data/geom_opt/70071/70071.gbw
Number of atoms                         ...     46
Number of basis functions               ...    459
Max core memory                         ...   1024 MB

Electric properties:
Dipole moment                           ... YES
Quadrupole moment                       ...  NO
Static polarizability (Dipole/Dipole)   ...  NO
Static polarizability (Dipole/Quad.)    ...  NO
Static polarizability (Quad./Quad.)     ...  NO
Static polarizability (Velocity)        ...  NO

Atomic electric properties:
Dipole moment                           ...  NO
Quadrupole moment                       ...  NO
Static polarizability                   ...  NO

Choice of electric origin               ... Center of mass
Position of electric origin             ...    -0.037865    -0.001520     0.964708

General magnetic properties:
Magnetizability                         ...  NO

EPR properties:
g-Tensor (aka g-matrix)                 ...  NO
Zero-Field splitting spin-orbit         ...  NO
Zero-field splitting spin-spin          ...  NO
Hyperfine couplings                     ...  NO (   0 nuclei)
Quadrupole couplings                    ...  NO (   0 nuclei)
Contact density                         ...  NO (   0 nuclei)

NMR properties:
Chemical shifts                         ...  NO (   0 nuclei)
Spin-rotation constants                 ...  NO (   0 nuclei)
Spin-spin couplings                     ...  NO (   0 nuclei,    0 pairs)

Choice of magnetic origin               ... GIAO
Position of magnetic origin             ...     0.000000     0.000000     0.000000

Properties with geometric perturbations:
SCF Hessian                             ...  NO
IR spectrum                             ...  NO
VCD spectrum                            ...  NO
X-ray spectroscopy properties:
SCF XES/XAS/RIXS spectra                ...  NO


-------------
DIPOLE MOMENT
-------------

Method             : SCF
Type of density    : Electron Density
Multiplicity       :   1
Irrep              :   0
Energy             : -1378.3418394511350016 Eh
Relativity type    : 
Basis              : AO
                                X                 Y                 Z
Electronic contribution:     -0.821368921      -0.035612474      14.777799209
Nuclear contribution   :      0.919913891       0.036743236     -16.579916230
                        -----------------------------------------
Total Dipole Moment    :      0.098544970       0.001130761      -1.802117021
                        -----------------------------------------
Magnitude (a.u.)       :      1.804809726
Magnitude (Debye)      :      4.587461752



--------------------
Rotational spectrum 
--------------------
 
Rotational constants in cm-1:             0.005356             0.005348             0.003162 
Rotational constants in MHz :           160.555281           160.327799            94.803607 

Dipole components along the rotational axes: 
x,y,z [a.u.] :    -0.002426    -0.005401    -1.804800 
x,y,z [Debye]:    -0.006167    -0.013728    -4.587437 

 

Dipole moment calculation done in   0.0 sec 

Maximum memory used throughout the entire PROP-calculation: 25.5 MB

--------------------------------
SUGGESTED CITATIONS FOR THIS RUN
--------------------------------

Below you find a list of papers that are relevant to this ORCA run
We neither can nor want to force you to cite these papers, but we appreciate if you do
You receive ORCA, which is the product of decades of hard work by many enthusiastic individuals, for free
The only thing we kindly ask in return is that you cite our papers,
We deeply appreciate it, if you show your appreciation for ORCA by not just citing the generic ORCA reference.

Please note that relegating all ORCA citations to the supporting information does *not* help us.
SI sections are not indexed - citations you put there will not count into any citation statistics
But we need these citations in order to attract the funding resources that allow us to do what we are doing

Therefore, if you are a happy ORCA user, please consider citing a few of the papers listed below in the main body of your paper

In addition to the list printed below, the program has created the file data/geom_opt/70071/70071.bibtex that contains the list in bibtex format
You can import this file easily into all common literature databanks and citation aid programs


List of essential papers. We consider these as the minimum necessary citations

  1. Neese,F.
     Software update: the ORCA program system, version 5.0
     WIRES Comput. Molec. Sci., 2022 12(1)e1606
     doi.org/10.1002/wcms.1606

List of papers to cite with high priority. The work reported in these papers was absolutely
necessary for this run to complete.
Our perspective: the developers of density functionals and basis sets usually get cited in chemistry papers
Good! But without the algorithms to do something with them, the functionals or basis sets would not do anything.
Hence, in our opinion, the algorithm design and method developments papers are equally worthy of getting cited

  1. Neese,F.
     An improvement of the resolution of the identity approximation for the formation of the Coulomb matrix
     J. Comp. Chem., 2003 24(14)1740-1747
     doi.org/10.1002/jcc.10318
  2. Neese,F.
     The SHARK Integral Generation and Digestion System
     J. Comp. Chem., 2022  1-16
     doi.org/10.1002/jcc.26942
  3. Grimme,S.; Antony,J.; Ehrlich,S.; Krieg,H.
     A consistent and accurate ab initio parametrization of density functional dispersion correction (DFT-D) for the 94 elements H-Pu
     J. Chem. Phys., 2010 132 154104-XXXX
     doi.org/10.1063/1.3382344
  4. Grimme,S.; Ehrlich,S.; Goerigk,L.
     Effect of the damping function in dispersion corrected density functional theory
     J. Comput. Chem., 2011 32(7)1456-1465
     doi.org/10.1002/jcc.21759

List of suggested additional citations. These are papers that are important in the 'surrounding' of 
of this run, or papers that preceded the highly important papers. If you like your results we are grateful for a citation.

  1. Neese,F.
     The ORCA program system
     WIRES Comput. Molec. Sci., 2012 2(1)73-78
     doi.org/10.1002/wcms.81
  2. Neese,F.
     Software update: the ORCA program system, version 4.0
     WIRES Comput. Molec. Sci., 2018 8(1)1-6
     doi.org/10.1002/wcms.1327
  3. Neese,F.; Wennmohs,F.; Becker,U.; Riplinger,C.
     The ORCA quantum chemistry program package
     J. Chem. Phys., 2020 152 Art. No. L224108
     doi.org/10.1063/5.0004608

List of optional additional citations

  1. Neese,F.
     Approximate second-order SCF convergence for spin unrestricted wavefunctions
     Chem. Phys. Lett., 2000 325(1-3)93-98
     doi.org/10.1016/s0009-2614(00)00662-x

Timings for individual modules:

Sum of individual times          ...      510.075 sec (=   8.501 min)
Startup calculation              ...       12.258 sec (=   0.204 min)   2.4 %
SCF iterations                   ...      358.001 sec (=   5.967 min)  70.2 %
Property calculations            ...        0.194 sec (=   0.003 min)   0.0 %
SCF Gradient evaluation          ...      139.471 sec (=   2.325 min)  27.3 %
Geometry relaxation              ...        0.151 sec (=   0.003 min)   0.0 %
                             ****ORCA TERMINATED NORMALLY****
TOTAL RUN TIME: 0 days 0 hours 8 minutes 31 seconds 402 msec
