
                                 *****************
                                 * O   R   C   A *
                                 *****************

                                            #,                                       
                                            ###                                      
                                            ####                                     
                                            #####                                    
                                            ######                                   
                                           ########,                                 
                                     ,,################,,,,,                         
                               ,,#################################,,                 
                          ,,##########################################,,             
                       ,#########################################, ''#####,          
                    ,#############################################,,   '####,        
                  ,##################################################,,,,####,       
                ,###########''''           ''''###############################       
              ,#####''   ,,,,##########,,,,          '''####'''          '####       
            ,##' ,,,,###########################,,,                        '##       
           ' ,,###''''                  '''############,,,                           
         ,,##''                                '''############,,,,        ,,,,,,###''
      ,#''                                            '''#######################'''  
     '                                                          ''''####''''         
             ,#######,   #######,   ,#######,      ##                                
            ,#'     '#,  ##    ##  ,#'     '#,    #''#        ,####,   ,####,        
            ##       ##  ##   ,#'  ##            #'  '#       #'       #'  '#        
            ##       ##  #######   ##           ,######,      #####,   #    #        
            '#,     ,#'  ##    ##  '#,     ,#' ,#      #,     #,   #   #,  ,#        
             '#######'   ##     ##  '#######'  #'      '#     '####' # '####'        



                #########################################################
                #                        -***-                          #
                #          Department of theory and spectroscopy        #
                #                                                       #
                #                      Frank Neese                      #
                #                                                       #
                #     Directorship, Architecture, Infrastructure        #
                #                    SHARK, DRIVERS                     #
                #        Core code/Algorithms in most modules           #
                #                                                       #
                #        Max Planck Institute fuer Kohlenforschung      #
                #                Kaiser Wilhelm Platz 1                 #
                #                 D-45470 Muelheim/Ruhr                 #
                #                      Germany                          #
                #                                                       #
                #                  All rights reserved                  #
                #                        -***-                          #
                #########################################################


                         Program Version 6.0.0  -   RELEASE   -


 With contributions from (in alphabetic order):
   Daniel Aravena         : Magnetic Suceptibility
   Michael Atanasov       : Ab Initio Ligand Field Theory (pilot matlab implementation)
   Alexander A. Auer      : GIAO ZORA, VPT2 properties, NMR spectrum
   Ute Becker             : All parallelization in ORCA, NUMFREQ, NUMCALC
   Giovanni Bistoni       : ED, misc. LED, open-shell LED, HFLD
   Martin Brehm           : Molecular dynamics
   Dmytro Bykov           : pre 5.0 version of the SCF Hessian
   Marcos Casanova-Páez   : Triplet and SCS-CIS(D). UHF-(DLPNO)-IP/EA/STEOM-CCSD. UHF-CVS-IP/STEOM-CCSD
   Vijay G. Chilkuri      : MRCI spin determinant printing, contributions to CSF-ICE
   Pauline Colinet        : FMM embedding
   Dipayan Datta          : RHF DLPNO-CCSD density
   Achintya Kumar Dutta   : EOM-CC, STEOM-CC
   Nicolas Foglia         : Exact transition moments, OPA infrastructure, MCD improvements
   Dmitry Ganyushin       : Spin-Orbit,Spin-Spin,Magnetic field MRCI
   Miquel Garcia          : C-PCM and meta-GGA Hessian, CCSD/C-PCM, Gaussian charge scheme
   Tiago L. C. Gouveia    : GS-ROHF, GS-ROCIS
   Yang Guo               : DLPNO-NEVPT2, F12-NEVPT2, CIM, IAO-localization
   Andreas Hansen         : Spin unrestricted coupled pair/coupled cluster methods
   Ingolf Harden          : AUTO-CI MPn and infrastructure 
   Benjamin Helmich-Paris : MC-RPA, TRAH-(SCF,CASSCF), AVAS, COSX integrals, SCF dyn. polar.
   Lee Huntington         : MR-EOM, pCC
   Robert Izsak           : Overlap fitted RIJCOSX, COSX-SCS-MP3, EOM
   Riya Kayal             : Wick's Theorem for AUTO-CI, AUTO-CI UHF-CCSDT
   Emily Kempfer          : AUTO-CI, RHF CISDT and CCSDT
   Christian Kollmar      : KDIIS, OOCD, Brueckner-CCSD(T), CCSD density, CASPT2, CASPT2-K, improved NEVPT2
   Axel Koslowski         : Symmetry handling
   Simone Kossmann        : Meta GGA functionals, TD-DFT gradient, OOMP2, (MP2 Hessian; deprecated post 5.0)
   Lucas Lang             : DCDCAS
   Marvin Lechner         : AUTO-CI (C++ implementation), FIC-MRCC
   Spencer Leger          : CASSCF response
   Dagmar Lenk            : GEPOL surface, SMD, ORCA-2-JSON
   Dimitrios Liakos       : Extrapolation schemes; Compound Job, initial MDCI parallelization
   Dimitrios Manganas     : Further ROCIS development; embedding schemes. LFT, Crystal Embedding
   Dimitrios Pantazis     : SARC Basis sets
   Anastasios Papadopoulos: AUTO-CI, single reference methods and gradients
   Taras Petrenko         : pre 6.0 DFT Hessian and TD-DFT gradient, (ASA, deprecated), ECA, 1-Electron XAS/XES, NRVS
   Peter Pinski           : DLPNO-MP2, DLPNO-MP2 Gradient
   Christoph Reimann      : Effective Core Potentials
   Marius Retegan         : Local ZFS, SOC
   Christoph Riplinger    : Optimizer, TS searches, QM/MM, DLPNO-CCSD(T), (RO)-DLPNO pert. Triples
   Michael Roemelt        : Original ROCIS implementation
   Masaaki Saitow         : Open-shell DLPNO-CCSD energy and density
   Barbara Sandhoefer     : DKH picture change effects
   Kantharuban Sivalingam : CASSCF convergence/infrastructure, NEVPT2 and variants, FIC-MRCI
   Bernardo de Souza      : ESD, SOC TD-DFT
   Georgi Stoychev        : AutoAux, RI-MP2 NMR, DLPNO-MP2 response, X2C
   Van Anh Tran           : RI-MP2 g-tensors
   Willem Van den Heuvel  : Paramagnetic NMR
   Zikuan Wang            : NOTCH, Electric field optimization 
   Frank Wennmohs         : Technical directorship and infrastructure
   Hang Xu                : AUTO-CI-Response properties 


 We gratefully acknowledge several colleagues who have allowed us to
 interface, adapt or use parts of their codes:
   Stefan Grimme, W. Hujo, H. Kruse, P. Pracht,  : VdW corrections, initial TS optimization,
                  C. Bannwarth, S. Ehlert,         DFT functionals, gCP, sTDA/sTD-DF
                  L. Wittmann, M. Mueller
   Ed Valeev, F. Pavosevic, A. Kumar             : LibInt (2-el integral package), F12 methods
   Garnet Chan, S. Sharma, J. Yang, R. Olivares  : DMRG
   Ulf Ekstrom                                   : XCFun DFT Library
   Mihaly Kallay                                 : mrcc  (arbitrary order and MRCC methods)
   Frank Weinhold                                : gennbo (NPA and NBO analysis)
   Simon Mueller                                 : openCOSMO-RS
   Christopher J. Cramer and Donald G. Truhlar   : smd solvation model
   Lars Goerigk                                  : TD-DFT with DH, B97 family of functionals
   V. Asgeirsson, H. Jonsson                     : NEB implementation
   FAccTs GmbH                                   : IRC, NEB, NEB-TS, DLPNO-Multilevel, CI-OPT
                                                   MM, QMMM, 2- and 3-layer-ONIOM, Crystal-QMMM,
                                                   LR-CPCM, SF, NACMEs, symmetry and pop. for TD-DFT,
                                                   nearIR, NL-DFT gradient (VV10), updates on ESD,
                                                   ML-optimized integration grids, MBIS, APM,
                                                   GOAT, DOCKER, SOLVATOR, interface openCOSMO-RS
   S Lehtola, MJT Oliveira, MAL Marques          : LibXC Library
   Liviu Ungur et al                             : ANISO software


 Your calculation uses the libint2 library for the computation of 2-el integrals
 For citations please refer to: http://libint.valeyev.net

 Your ORCA version has been built with support for libXC version: 6.2.2
 For citations please refer to: https://libxc.gitlab.io

 This ORCA versions uses:
   CBLAS   interface :  Fast vector & matrix operations
   LAPACKE interface :  Fast linear algebra routines
   Shared memory     :  Shared parallel matrices


Your calculation utilizes the atom-pairwise dispersion correction
with the Becke-Johnson damping scheme (D3BJ)


Warning: RI is on but no J-basis has been assigned. Assigning Def2/J (nothing to worry about!)
================================================================================

----- Orbital basis set information -----
Your calculation utilizes the basis: def2-SVP
   F. Weigend and R. Ahlrichs, Phys. Chem. Chem. Phys. 7, 3297 (2005).

----- AuxJ basis set information -----
Your calculation utilizes the auxiliary basis: def2/J
   F. Weigend, Phys. Chem. Chem. Phys. 8, 1057 (2006).

================================================================================
                                        WARNINGS
                       Please study these warnings very carefully!
================================================================================


WARNING: Geometry Optimization
  ===> : Switching off AutoStart
         For restart on a previous wavefunction, please use MOREAD

================================================================================
                                       INPUT FILE
================================================================================
NAME = data/geom_opt_P_BP86/83681/83681.inp
|  1> ! RI BP86 def2-SVP D3BJ TIGHTSCF Opt
|  2> %pal
|  3> nprocs 6
|  4> end
|  5> 
|  6> * xyz 0 1
|  7> C     -0.728450   -1.706077    1.580154
|  8> C     -1.252068   -1.260757    0.209030
|  9> C     -2.704228   -0.770032    0.397222
| 10> C     -1.392408   -2.511102   -0.699513
| 11> P     -0.191138    0.016725   -0.659923
| 12> C     -0.466731    1.726197    0.057269
| 13> C     -1.823027    2.281406   -0.453330
| 14> C     -0.455432    1.789898    1.589679
| 15> C      0.573315    2.742347   -0.463058
| 16> C      1.621324   -0.456911   -0.602837
| 17> C      2.315479   -0.182835    0.737126
| 18> C      2.382873    0.302546   -1.721665
| 19> C      1.837273   -1.946622   -0.947980
| 20> H      0.217805   -2.246806    1.513208
| 21> H     -1.435975   -2.392467    2.062078
| 22> H     -0.582301   -0.869635    2.267413
| 23> H     -2.785972    0.011389    1.155293
| 24> H     -3.137110   -0.402535   -0.540337
| 25> H     -3.354029   -1.582696    0.747274
| 26> H     -0.471390   -3.086556   -0.791276
| 27> H     -1.721078   -2.243628   -1.711249
| 28> H     -2.134358   -3.210502   -0.293323
| 29> H     -2.688069    1.774480   -0.026046
| 30> H     -1.903730    2.216338   -1.545316
| 31> H     -1.941372    3.338614   -0.183243
| 32> H      0.465329    1.390840    2.021269
| 33> H     -1.291174    1.249499    2.038872
| 34> H     -0.544375    2.827220    1.936125
| 35> H      0.646062    2.730350   -1.556687
| 36> H      1.566248    2.577146   -0.040248
| 37> H      0.302880    3.766966   -0.176312
| 38> H      3.347812   -0.554406    0.723103
| 39> H      1.816117   -0.669879    1.577806
| 40> H      2.381891    0.882811    0.965722
| 41> H      2.478792    1.371637   -1.532766
| 42> H      1.899959    0.178212   -2.698659
| 43> H      3.410633   -0.069919   -1.819763
| 44> H      1.498607   -2.612944   -0.152182
| 45> H      2.903684   -2.171366   -1.080107
| 46> H      1.338330   -2.226948   -1.882822
| 47> **                         ****END OF INPUT****
================================================================================

                       *****************************
                       * Geometry Optimization Run *
                       *****************************

Geometry optimization settings:
Update method            Update   .... BFGS
Choice of coordinates    CoordSys .... (2022) Redundant Internals
Initial Hessian          InHess   .... Almloef's Model
Max. no of cycles        MaxIter  .... 120

Convergence Tolerances:
Energy Change            TolE     ....  5.0000e-06 Eh
Max. Gradient            TolMAXG  ....  3.0000e-04 Eh/bohr
RMS Gradient             TolRMSG  ....  1.0000e-04 Eh/bohr
Max. Displacement        TolMAXD  ....  4.0000e-03 bohr
RMS Displacement         TolRMSD  ....  2.0000e-03 bohr
Strict Convergence                .... False

------------------------------------------------------------------------------
                        ORCA OPTIMIZATION COORDINATE SETUP
------------------------------------------------------------------------------

The optimization will be done in redundant internal coordinates (2022)
Making redundant internal coordinates   ...  (2022 redundants) done
Evaluating the initial hessian          ...  (Almloef) done
Evaluating the coordinates              ...  done
Calculating the B-matrix                .... done
Calculating the G-matrix                .... done
Diagonalizing the G-matrix              .... done
Small eigenvalue found = 9.501e-03
Small eigenvalue found = 1.011e-02
Small eigenvalue found = 2.330e-02
Small eigenvalue found = 2.949e-02
The first mode is                       ....   69
The number of degrees of freedom        ....  114

    -----------------------------------------------------------------
                    Redundant Internal Coordinates


    -----------------------------------------------------------------
         Definition                    Initial Value    Approx d2E/dq
    -----------------------------------------------------------------
      1. B(C   1,C   0)                  1.5338         0.368429   
      2. B(C   2,C   1)                  1.5443         0.354400   
      3. B(C   3,C   1)                  1.5519         0.344650   
      4. B(P   4,C   1)                  1.8742         0.354591   
      5. B(C   5,P   4)                  1.8742         0.354592   
      6. B(C   6,C   5)                  1.5519         0.344651   
      7. B(C   7,C   5)                  1.5338         0.368430   
      8. B(C   8,C   5)                  1.5443         0.354400   
      9. B(C   9,P   4)                  1.8742         0.354593   
     10. B(C  10,C   9)                  1.5338         0.368428   
     11. B(C  11,C   9)                  1.5519         0.344650   
     12. B(C  12,C   9)                  1.5443         0.354400   
     13. B(H  13,C   0)                  1.0919         0.357582   
     14. B(H  14,C   0)                  1.0973         0.350626   
     15. B(H  15,C   0)                  1.0924         0.356950   
     16. B(H  16,C   2)                  1.0918         0.357760   
     17. B(H  17,C   2)                  1.0961         0.352107   
     18. B(H  18,C   2)                  1.0978         0.349907   
     19. B(H  19,C   3)                  1.0899         0.360257   
     20. B(H  20,C   3)                  1.0969         0.351095   
     21. B(H  21,C   3)                  1.0976         0.350235   
     22. B(H  22,C   6)                  1.0899         0.360256   
     23. B(H  23,C   6)                  1.0969         0.351092   
     24. B(H  24,C   6)                  1.0976         0.350235   
     25. B(H  25,C   7)                  1.0924         0.356951   
     26. B(H  26,C   7)                  1.0919         0.357581   
     27. B(H  27,C   7)                  1.0973         0.350627   
     28. B(H  28,C   8)                  1.0961         0.352105   
     29. B(H  29,C   8)                  1.0918         0.357758   
     30. B(H  30,C   8)                  1.0978         0.349906   
     31. B(H  31,C  10)                  1.0973         0.350627   
     32. B(H  32,C  10)                  1.0924         0.356951   
     33. B(H  33,C  10)                  1.0919         0.357582   
     34. B(H  34,C  11)                  1.0899         0.360259   
     35. B(H  35,C  11)                  1.0969         0.351091   
     36. B(H  36,C  11)                  1.0976         0.350233   
     37. B(H  37,C  12)                  1.0918         0.357759   
     38. B(H  38,C  12)                  1.0978         0.349908   
     39. B(H  39,C  12)                  1.0961         0.352108   
     40. A(C   1,C   0,H  13)          112.6328         0.323209   
     41. A(H  14,C   0,H  15)          106.7940         0.289227   
     42. A(C   1,C   0,H  15)          112.6918         0.323115   
     43. A(C   1,C   0,H  14)          110.7396         0.322170   
     44. A(H  13,C   0,H  15)          107.5667         0.290119   
     45. A(H  13,C   0,H  14)          106.0183         0.289307   
     46. A(C   3,C   1,P   4)          109.2031         0.377851   
     47. A(C   2,C   1,P   4)          111.8510         0.379681   
     48. A(C   0,C   1,C   3)          108.6808         0.357548   
     49. A(C   0,C   1,P   4)          114.7792         0.382246   
     50. A(C   0,C   1,C   2)          107.7182         0.359249   
     51. A(C   2,C   1,C   3)          104.0232         0.355199   
     52. A(C   1,C   2,H  16)          112.4852         0.321186   
     53. A(H  16,C   2,H  17)          108.9277         0.289520   
     54. A(C   1,C   2,H  17)          111.9412         0.320351   
     55. A(H  16,C   2,H  18)          105.3139         0.289236   
     56. A(C   1,C   2,H  18)          111.1129         0.320023   
     57. A(H  17,C   2,H  18)          106.6886         0.288516   
     58. A(C   1,C   3,H  21)          110.9694         0.318617   
     59. A(H  20,C   3,H  21)          107.1087         0.288428   
     60. A(H  19,C   3,H  21)          105.4243         0.289594   
     61. A(H  19,C   3,H  20)          107.7163         0.289706   
     62. A(C   1,C   3,H  19)          113.4696         0.320088   
     63. A(C   1,C   3,H  20)          111.7534         0.318745   
     64. A(C   5,P   4,C   9)          111.1647         0.404417   
     65. A(C   1,P   4,C   5)          111.1647         0.404416   
     66. A(C   1,P   4,C   9)          111.1647         0.404416   
     67. A(C   7,C   5,C   8)          107.7182         0.359249   
     68. A(C   6,C   5,C   8)          104.0231         0.355199   
     69. A(P   4,C   5,C   8)          111.8509         0.379681   
     70. A(C   6,C   5,C   7)          108.6807         0.357548   
     71. A(P   4,C   5,C   7)          114.7793         0.382246   
     72. A(P   4,C   5,C   6)          109.2031         0.377851   
     73. A(H  23,C   6,H  24)          107.1086         0.288428   
     74. A(H  22,C   6,H  24)          105.4242         0.289594   
     75. A(C   5,C   6,H  24)          110.9694         0.318617   
     76. A(H  22,C   6,H  23)          107.7163         0.289705   
     77. A(C   5,C   6,H  23)          111.7534         0.318744   
     78. A(C   5,C   6,H  22)          113.4696         0.320088   
     79. A(H  26,C   7,H  27)          106.0184         0.289307   
     80. A(H  25,C   7,H  27)          106.7941         0.289227   
     81. A(C   5,C   7,H  27)          110.7397         0.322170   
     82. A(H  25,C   7,H  26)          107.5665         0.290119   
     83. A(C   5,C   7,H  26)          112.6328         0.323209   
     84. A(C   5,C   7,H  25)          112.6918         0.323115   
     85. A(H  29,C   8,H  30)          105.3140         0.289236   
     86. A(H  28,C   8,H  30)          106.6886         0.288515   
     87. A(C   5,C   8,H  30)          111.1130         0.320023   
     88. A(H  28,C   8,H  29)          108.9277         0.289520   
     89. A(C   5,C   8,H  29)          112.4851         0.321186   
     90. A(C   5,C   8,H  28)          111.9413         0.320350   
     91. A(C  11,C   9,C  12)          104.0232         0.355199   
     92. A(C  10,C   9,C  12)          107.7181         0.359249   
     93. A(P   4,C   9,C  12)          111.8510         0.379681   
     94. A(C  10,C   9,C  11)          108.6808         0.357548   
     95. A(P   4,C   9,C  11)          109.2031         0.377851   
     96. A(P   4,C   9,C  10)          114.7793         0.382246   
     97. A(H  31,C  10,H  33)          106.0182         0.289307   
     98. A(C   9,C  10,H  33)          112.6327         0.323209   
     99. A(H  31,C  10,H  32)          106.7941         0.289227   
    100. A(C   9,C  10,H  32)          112.6918         0.323115   
    101. A(H  32,C  10,H  33)          107.5667         0.290119   
    102. A(C   9,C  10,H  31)          110.7397         0.322170   
    103. A(H  35,C  11,H  36)          107.1084         0.288427   
    104. A(H  34,C  11,H  36)          105.4242         0.289594   
    105. A(C   9,C  11,H  36)          110.9693         0.318617   
    106. A(H  34,C  11,H  35)          107.7167         0.289705   
    107. A(C   9,C  11,H  35)          111.7534         0.318744   
    108. A(C   9,C  11,H  34)          113.4696         0.320089   
    109. A(H  38,C  12,H  39)          106.6886         0.288516   
    110. A(H  37,C  12,H  39)          108.9278         0.289520   
    111. A(C   9,C  12,H  39)          111.9412         0.320351   
    112. A(H  37,C  12,H  38)          105.3140         0.289236   
    113. A(C   9,C  12,H  38)          111.1129         0.320023   
    114. A(C   9,C  12,H  37)          112.4851         0.321186   
    115. D(C   2,C   1,C   0,H  13)    168.8424         0.010857   
    116. D(C   3,C   1,C   0,H  14)    -61.8038         0.010857   
    117. D(C   2,C   1,C   0,H  14)     50.3163         0.010857   
    118. D(C   2,C   1,C   0,H  15)    -69.2352         0.010857   
    119. D(C   3,C   1,C   0,H  13)     56.7223         0.010857   
    120. D(C   3,C   1,C   0,H  15)    178.6447         0.010857   
    121. D(H  16,C   2,C   1,C   3)    170.3244         0.010100   
    122. D(H  17,C   2,C   1,P   4)     51.1010         0.010100   
    123. D(H  17,C   2,C   1,C   3)    -66.6363         0.010100   
    124. D(H  16,C   2,C   1,P   4)    -71.9384         0.010100   
    125. D(H  17,C   2,C   1,C   0)    178.1264         0.010100   
    126. D(H  16,C   2,C   1,C   0)     55.0870         0.010100   
    127. D(H  19,C   3,C   1,P   4)     70.5454         0.009595   
    128. D(H  19,C   3,C   1,C   2)   -169.9021         0.009595   
    129. D(H  19,C   3,C   1,C   0)    -55.3467         0.009595   
    130. D(H  20,C   3,C   1,P   4)    -51.4894         0.009595   
    131. D(H  20,C   3,C   1,C   2)     68.0630         0.009595   
    132. D(H  20,C   3,C   1,C   0)   -177.3815         0.009595   
    133. D(C   9,P   4,C   1,C   0)     46.5696         0.003191   
    134. D(C   5,P   4,C   1,C   3)    159.8632         0.003191   
    135. D(C   5,P   4,C   1,C   2)     45.2732         0.003191   
    136. D(C   9,P   4,C   1,C   2)    169.6802         0.003191   
    137. D(C   5,P   4,C   1,C   0)    -77.8374         0.003191   
    138. D(C   8,C   5,P   4,C   1)    169.6803         0.003191   
    139. D(C   7,C   5,P   4,C   9)    -77.8374         0.003191   
    140. D(C   7,C   5,P   4,C   1)     46.5696         0.003191   
    141. D(C   6,C   5,P   4,C   9)    159.8631         0.003191   
    142. D(C   6,C   5,P   4,C   1)    -75.7299         0.003191   
    143. D(H  22,C   6,C   5,C   8)   -169.9019         0.009595   
    144. D(H  22,C   6,C   5,C   7)    -55.3465         0.009595   
    145. D(H  22,C   6,C   5,P   4)     70.5457         0.009595   
    146. D(H  23,C   6,C   5,C   8)     68.0632         0.009595   
    147. D(H  23,C   6,C   5,C   7)   -177.3814         0.009595   
    148. D(H  23,C   6,C   5,P   4)    -51.4892         0.009595   
    149. D(H  26,C   7,C   5,C   8)    168.8425         0.010857   
    150. D(H  26,C   7,C   5,C   6)     56.7225         0.010857   
    151. D(H  26,C   7,C   5,P   4)    -65.8590         0.010857   
    152. D(H  25,C   7,C   5,C   8)    -69.2354         0.010857   
    153. D(H  25,C   7,C   5,C   6)    178.6446         0.010857   
    154. D(H  25,C   7,C   5,P   4)     56.0630         0.010857   
    155. D(H  29,C   8,C   5,C   7)     55.0877         0.010100   
    156. D(H  29,C   8,C   5,C   6)    170.3249         0.010100   
    157. D(H  29,C   8,C   5,P   4)    -71.9379         0.010100   
    158. D(H  28,C   8,C   5,C   7)    178.1269         0.010100   
    159. D(H  28,C   8,C   5,C   6)    -66.6358         0.010100   
    160. D(H  28,C   8,C   5,P   4)     51.1014         0.010100   
    161. D(C  12,C   9,P   4,C   1)     45.2731         0.003191   
    162. D(C  11,C   9,P   4,C   5)    -75.7299         0.003191   
    163. D(C  11,C   9,P   4,C   1)    159.8631         0.003191   
    164. D(C  10,C   9,P   4,C   5)     46.5696         0.003191   
    165. D(C  10,C   9,P   4,C   1)    -77.8374         0.003191   
    166. D(H  32,C  10,C   9,C  12)    -69.2354         0.010857   
    167. D(H  32,C  10,C   9,C  11)    178.6445         0.010857   
    168. D(H  32,C  10,C   9,P   4)     56.0630         0.010857   
    169. D(H  31,C  10,C   9,C  12)     50.3163         0.010857   
    170. D(H  31,C  10,C   9,C  11)    -61.8038         0.010857   
    171. D(H  31,C  10,C   9,P   4)    175.6147         0.010857   
    172. D(H  35,C  11,C   9,C  10)   -177.3817         0.009595   
    173. D(H  35,C  11,C   9,P   4)    -51.4895         0.009595   
    174. D(H  34,C  11,C   9,C  12)   -169.9017         0.009595   
    175. D(H  34,C  11,C   9,C  10)    -55.3463         0.009595   
    176. D(H  35,C  11,C   9,C  12)     68.0630         0.009595   
    177. D(H  34,C  11,C   9,P   4)     70.5459         0.009595   
    178. D(H  38,C  12,C   9,C  11)     52.5345         0.010100   
    179. D(H  38,C  12,C   9,C  10)    -62.7028         0.010100   
    180. D(H  38,C  12,C   9,P   4)    170.2718         0.010100   
    181. D(H  37,C  12,C   9,C  11)    170.3242         0.010100   
    182. D(H  37,C  12,C   9,C  10)     55.0869         0.010100   
    183. D(H  37,C  12,C   9,P   4)    -71.9385         0.010100   
    -----------------------------------------------------------------

Number of atoms                         .... 40
Number of degrees of freedom            .... 183


         *************************************************************
         *                GEOMETRY OPTIMIZATION CYCLE   1            *
         *************************************************************
---------------------------------
CARTESIAN COORDINATES (ANGSTROEM)
---------------------------------
  C     -0.728450   -1.706077    1.580154
  C     -1.252068   -1.260757    0.209030
  C     -2.704228   -0.770032    0.397222
  C     -1.392408   -2.511102   -0.699513
  P     -0.191138    0.016725   -0.659923
  C     -0.466731    1.726197    0.057269
  C     -1.823027    2.281406   -0.453330
  C     -0.455432    1.789898    1.589679
  C      0.573315    2.742347   -0.463058
  C      1.621324   -0.456911   -0.602837
  C      2.315479   -0.182835    0.737126
  C      2.382873    0.302546   -1.721665
  C      1.837273   -1.946622   -0.947980
  H      0.217805   -2.246806    1.513208
  H     -1.435975   -2.392467    2.062078
  H     -0.582301   -0.869635    2.267413
  H     -2.785972    0.011389    1.155293
  H     -3.137110   -0.402535   -0.540337
  H     -3.354029   -1.582696    0.747274
  H     -0.471390   -3.086556   -0.791276
  H     -1.721078   -2.243628   -1.711249
  H     -2.134358   -3.210502   -0.293323
  H     -2.688069    1.774480   -0.026046
  H     -1.903730    2.216338   -1.545316
  H     -1.941372    3.338614   -0.183243
  H      0.465329    1.390840    2.021269
  H     -1.291174    1.249499    2.038872
  H     -0.544375    2.827220    1.936125
  H      0.646062    2.730350   -1.556687
  H      1.566248    2.577146   -0.040248
  H      0.302880    3.766966   -0.176312
  H      3.347812   -0.554406    0.723103
  H      1.816117   -0.669879    1.577806
  H      2.381891    0.882811    0.965722
  H      2.478792    1.371637   -1.532766
  H      1.899959    0.178212   -2.698659
  H      3.410633   -0.069919   -1.819763
  H      1.498607   -2.612944   -0.152182
  H      2.903684   -2.171366   -1.080107
  H      1.338330   -2.226948   -1.882822

----------------------------
CARTESIAN COORDINATES (A.U.)
----------------------------
  NO LB      ZA    FRAG     MASS         X           Y           Z
   0 C     6.0000    0    12.011   -1.376571   -3.224018    2.986058
   1 C     6.0000    0    12.011   -2.366066   -2.382485    0.395009
   2 C     6.0000    0    12.011   -5.110250   -1.455150    0.750641
   3 C     6.0000    0    12.011   -2.631270   -4.745295   -1.321888
   4 P    15.0000    0    30.974   -0.361198    0.031606   -1.247074
   5 C     6.0000    0    12.011   -0.881994    3.262040    0.108223
   6 C     6.0000    0    12.011   -3.445022    4.311233   -0.856670
   7 C     6.0000    0    12.011   -0.860642    3.382417    3.004058
   8 C     6.0000    0    12.011    1.083408    5.182285   -0.875053
   9 C     6.0000    0    12.011    3.063858   -0.863437   -1.139197
  10 C     6.0000    0    12.011    4.375621   -0.345508    1.392966
  11 C     6.0000    0    12.011    4.502977    0.571729   -3.253475
  12 C     6.0000    0    12.011    3.471943   -3.678582   -1.791423
  13 H     1.0000    0     1.008    0.411592   -4.245848    2.859549
  14 H     1.0000    0     1.008   -2.713599   -4.521107    3.896763
  15 H     1.0000    0     1.008   -1.100389   -1.643372    4.284790
  16 H     1.0000    0     1.008   -5.264724    0.021522    2.183187
  17 H     1.0000    0     1.008   -5.928279   -0.760681   -1.021089
  18 H     1.0000    0     1.008   -6.338196   -2.990862    1.412143
  19 H     1.0000    0     1.008   -0.890798   -5.832746   -1.495295
  20 H     1.0000    0     1.008   -3.252366   -4.239842   -3.233792
  21 H     1.0000    0     1.008   -4.033352   -6.066970   -0.554300
  22 H     1.0000    0     1.008   -5.079714    3.353281   -0.049220
  23 H     1.0000    0     1.008   -3.597528    4.188272   -2.920224
  24 H     1.0000    0     1.008   -3.668661    6.309066   -0.346279
  25 H     1.0000    0     1.008    0.879344    2.628307    3.819645
  26 H     1.0000    0     1.008   -2.439965    2.361211    3.852910
  27 H     1.0000    0     1.008   -1.028720    5.342672    3.658746
  28 H     1.0000    0     1.008    1.220880    5.159614   -2.941712
  29 H     1.0000    0     1.008    2.959780    4.870100   -0.076058
  30 H     1.0000    0     1.008    0.572360    7.118534   -0.333181
  31 H     1.0000    0     1.008    6.326448   -1.047676    1.366467
  32 H     1.0000    0     1.008    3.431964   -1.265888    2.981621
  33 H     1.0000    0     1.008    4.501122    1.668271    1.824950
  34 H     1.0000    0     1.008    4.684238    2.592018   -2.896508
  35 H     1.0000    0     1.008    3.590402    0.336772   -5.099726
  36 H     1.0000    0     1.008    6.445162   -0.132128   -3.438854
  37 H     1.0000    0     1.008    2.831957   -4.937749   -0.287582
  38 H     1.0000    0     1.008    5.487168   -4.103287   -2.041106
  39 H     1.0000    0     1.008    2.529077   -4.208322   -3.558018

--------------------------------
INTERNAL COORDINATES (ANGSTROEM)
--------------------------------
 C      0   0   0     0.000000000000     0.00000000     0.00000000
 C      1   0   0     1.533775321128     0.00000000     0.00000000
 C      2   1   0     1.544343200228   107.71819466     0.00000000
 C      2   1   3     1.551936956669   108.68078138   247.87988470
 P      2   1   3     1.874196372164   114.77921349   125.29841182
 C      5   2   1     1.874195930338   111.16470129   282.16263182
 C      6   5   2     1.551936600541   109.20312755   284.27012685
 C      6   5   2     1.533775046381   114.77932963    46.56959546
 C      6   5   2     1.544343449996   111.85092841   169.68027820
 C      5   2   1     1.874195393585   111.16470949    46.56964212
 C     10   5   2     1.533776274158   114.77925201   282.16256262
 C     10   5   2     1.551936824692   109.20314348   159.86310367
 C     10   5   2     1.544343395936   111.85095858    45.27311356
 H      1   2   3     1.091910318379   112.63282232   168.84241884
 H      1   2   3     1.097257307791   110.73963119    50.31632120
 H      1   2   3     1.092391725823   112.69184567   290.76479137
 H      3   2   1     1.091774931851   112.48521618    55.08704226
 H      3   2   1     1.096110281593   111.94123138   178.12635602
 H      3   2   1     1.097816250199   111.11293428   297.29729386
 H      4   2   1     1.089881603941   113.46956084   304.65329125
 H      4   2   1     1.096893815860   111.75336214   182.61848056
 H      4   2   1     1.097561150278   110.96941213    63.13755350
 H      7   6   5     1.089882217442   113.46960229    70.54574381
 H      7   6   5     1.096895730245   111.75337628   308.51081711
 H      7   6   5     1.097561516207   110.96943217   189.02996511
 H      8   6   5     1.092390971486   112.69175204    56.06303557
 H      8   6   5     1.091911223962   112.63275185   294.14096099
 H      8   6   5     1.097256861382   110.73974819   175.61469525
 H      9   6   5     1.096111510595   111.94125229    51.10137140
 H      9   6   5     1.091776354841   112.48505106   288.06212474
 H      9   6   5     1.097817130902   111.11300737   170.27236869
 H     11  10   5     1.097257068995   110.73970205   175.61472152
 H     11  10   5     1.092390556248   112.69182639    56.06297337
 H     11  10   5     1.091910290398   112.63266261   294.14067144
 H     12  10   5     1.089880201235   113.46956450    70.54589079
 H     12  10   5     1.096896599953   111.75340798   308.51053253
 H     12  10   5     1.097562759677   110.96930122   189.02993987
 H     13  10   5     1.091775674781   112.48510270   288.06150279
 H     13  10   5     1.097815936570   111.11291035   170.27181712
 H     13  10   5     1.096109642549   111.94123714    51.10087149

---------------------------
INTERNAL COORDINATES (A.U.)
---------------------------
 C      0   0   0     0.000000000000     0.00000000     0.00000000
 C      1   0   0     2.898415307898     0.00000000     0.00000000
 C      2   1   0     2.918385705214   107.71819466     0.00000000
 C      2   1   3     2.932735825215   108.68078138   247.87988470
 P      2   1   3     3.541717864579   114.77921349   125.29841182
 C      5   2   1     3.541717029649   111.16470129   282.16263182
 C      6   5   2     2.932735152231   109.20312755   284.27012685
 C      6   5   2     2.898414788703   114.77932963    46.56959546
 C      6   5   2     2.918386177207   111.85092841   169.68027820
 C      5   2   1     3.541716015333   111.16470949    46.56964212
 C     10   5   2     2.898417108865   114.77925201   282.16256262
 C     10   5   2     2.932735575815   109.20314348   159.86310367
 C     10   5   2     2.918386075049   111.85095858    45.27311356
 H      1   2   3     2.063411464539   112.63282232   168.84241884
 H      1   2   3     2.073515810169   110.73963119    50.31632120
 H      1   2   3     2.064321192767   112.69184567   290.76479137
 H      3   2   1     2.063155621079   112.48521618    55.08704226
 H      3   2   1     2.071348244786   111.94123138   178.12635602
 H      3   2   1     2.074572058244   111.11293428   297.29729386
 H      4   2   1     2.059577749847   113.46956084   304.65329125
 H      4   2   1     2.072828909967   111.75336214   182.61848056
 H      4   2   1     2.074089989257   110.96941213    63.13755350
 H      7   6   5     2.059578909196   113.46960229    70.54574381
 H      7   6   5     2.072832527630   111.75337628   308.51081711
 H      7   6   5     2.074090680762   110.96943217   189.02996511
 H      8   6   5     2.064319767277   112.69175204    56.06303557
 H      8   6   5     2.063413175843   112.63275185   294.14096099
 H      8   6   5     2.073514966577   110.73974819   175.61469525
 H      9   6   5     2.071350567263   111.94125229    51.10137140
 H      9   6   5     2.063158310140   112.48505106   288.06212474
 H      9   6   5     2.074573722532   111.11300737   170.27236869
 H     11  10   5     2.073515358909   110.73970205   175.61472152
 H     11  10   5     2.064318982591   112.69182639    56.06297337
 H     11  10   5     2.063411411662   112.63266261   294.14067144
 H     12  10   5     2.059575099116   113.46956450    70.54589079
 H     12  10   5     2.072834171140   111.75340798   308.51053253
 H     12  10   5     2.074093030580   110.96930122   189.02993987
 H     13  10   5     2.063157025014   112.48510270   288.06150279
 H     13  10   5     2.074571465571   111.11291035   170.27181712
 H     13  10   5     2.071347037168   111.94123714    51.10087149

---------------------
BASIS SET INFORMATION
---------------------
There are 3 groups of distinct atoms

 Group   1 Type C   : 7s4p1d contracted to 3s2p1d pattern {511/31/1}
 Group   2 Type P   : 10s7p1d contracted to 4s3p1d pattern {5311/511/1}
 Group   3 Type H   : 4s1p contracted to 2s1p pattern {31/1}

Atom   0C    basis set group =>   1
Atom   1C    basis set group =>   1
Atom   2C    basis set group =>   1
Atom   3C    basis set group =>   1
Atom   4P    basis set group =>   2
Atom   5C    basis set group =>   1
Atom   6C    basis set group =>   1
Atom   7C    basis set group =>   1
Atom   8C    basis set group =>   1
Atom   9C    basis set group =>   1
Atom  10C    basis set group =>   1
Atom  11C    basis set group =>   1
Atom  12C    basis set group =>   1
Atom  13H    basis set group =>   3
Atom  14H    basis set group =>   3
Atom  15H    basis set group =>   3
Atom  16H    basis set group =>   3
Atom  17H    basis set group =>   3
Atom  18H    basis set group =>   3
Atom  19H    basis set group =>   3
Atom  20H    basis set group =>   3
Atom  21H    basis set group =>   3
Atom  22H    basis set group =>   3
Atom  23H    basis set group =>   3
Atom  24H    basis set group =>   3
Atom  25H    basis set group =>   3
Atom  26H    basis set group =>   3
Atom  27H    basis set group =>   3
Atom  28H    basis set group =>   3
Atom  29H    basis set group =>   3
Atom  30H    basis set group =>   3
Atom  31H    basis set group =>   3
Atom  32H    basis set group =>   3
Atom  33H    basis set group =>   3
Atom  34H    basis set group =>   3
Atom  35H    basis set group =>   3
Atom  36H    basis set group =>   3
Atom  37H    basis set group =>   3
Atom  38H    basis set group =>   3
Atom  39H    basis set group =>   3
---------------------------------
AUXILIARY/J BASIS SET INFORMATION
---------------------------------
There are 3 groups of distinct atoms

 Group   1 Type C   : 12s5p4d2f1g contracted to 6s4p3d1f1g pattern {711111/2111/211/2/1}
 Group   2 Type P   : 14s5p5d2f1g contracted to 8s4p3d1f1g pattern {71111111/2111/311/2/1}
 Group   3 Type H   : 5s2p1d contracted to 3s1p1d pattern {311/2/1}

Atom   0C    basis set group =>   1
Atom   1C    basis set group =>   1
Atom   2C    basis set group =>   1
Atom   3C    basis set group =>   1
Atom   4P    basis set group =>   2
Atom   5C    basis set group =>   1
Atom   6C    basis set group =>   1
Atom   7C    basis set group =>   1
Atom   8C    basis set group =>   1
Atom   9C    basis set group =>   1
Atom  10C    basis set group =>   1
Atom  11C    basis set group =>   1
Atom  12C    basis set group =>   1
Atom  13H    basis set group =>   3
Atom  14H    basis set group =>   3
Atom  15H    basis set group =>   3
Atom  16H    basis set group =>   3
Atom  17H    basis set group =>   3
Atom  18H    basis set group =>   3
Atom  19H    basis set group =>   3
Atom  20H    basis set group =>   3
Atom  21H    basis set group =>   3
Atom  22H    basis set group =>   3
Atom  23H    basis set group =>   3
Atom  24H    basis set group =>   3
Atom  25H    basis set group =>   3
Atom  26H    basis set group =>   3
Atom  27H    basis set group =>   3
Atom  28H    basis set group =>   3
Atom  29H    basis set group =>   3
Atom  30H    basis set group =>   3
Atom  31H    basis set group =>   3
Atom  32H    basis set group =>   3
Atom  33H    basis set group =>   3
Atom  34H    basis set group =>   3
Atom  35H    basis set group =>   3
Atom  36H    basis set group =>   3
Atom  37H    basis set group =>   3
Atom  38H    basis set group =>   3
Atom  39H    basis set group =>   3


           ************************************************************
           *        Program running with 6 parallel MPI-processes     *
           *              working on a common directory               *
           ************************************************************
------------------------------------------------------------------------------
                             ORCA STARTUP CALCULATIONS
                           -- RI-GTO INTEGRALS CHOSEN --
------------------------------------------------------------------------------
------------------------------------------------------------------------------
                   ___                                                        
                  /   \      - P O W E R E D   B Y -                         
                 /     \                                                     
                 |  |  |   _    _      __       _____    __    __             
                 |  |  |  | |  | |    /  \     |  _  \  |  |  /  |          
                  \  \/   | |  | |   /    \    | | | |  |  | /  /          
                 / \  \   | |__| |  /  /\  \   | |_| |  |  |/  /          
                |  |  |   |  __  | /  /__\  \  |    /   |      \           
                |  |  |   | |  | | |   __   |  |    \   |  |\   \          
                \     /   | |  | | |  |  |  |  | |\  \  |  | \   \       
                 \___/    |_|  |_| |__|  |__|  |_| \__\ |__|  \__/        
                                                                              
                      - O R C A' S   B I G   F R I E N D -                    
                                      &                                       
                       - I N T E G R A L  F E E D E R -                       
                                                                              
 v1 FN, 2020, v2 2021, v3 2022-2024                                           
------------------------------------------------------------------------------


----------------------
SHARK INTEGRAL PACKAGE
----------------------

Number of atoms                             ...     40
Number of basis functions                   ...    321
Number of shells                            ...    161
Maximum angular momentum                    ...      2
Integral batch strategy                     ... SHARK/LIBINT Hybrid
RI-J (if used) integral strategy            ... SPLIT-RIJ (Revised 2003 algorithm where possible)
Printlevel                                  ...      1
Contraction scheme used                     ... SEGMENTED contraction
Prescreening option                         ... SCHWARTZ
   Thresh                                   ... 2.500e-11
   Tcut                                     ... 2.500e-12
   Tpresel                                  ... 2.500e-12 
Coulomb Range Separation                    ... NOT USED
Exchange Range Separation                   ... NOT USED
Multipole approximations                    ... NOT USED
Finite Nucleus Model                        ... NOT USED
CABS basis                                  ... NOT available
Auxiliary Coulomb fitting basis             ... AVAILABLE
   # of basis functions in Aux-J            ...    936
   # of shells in Aux-J                     ...    332
   Maximum angular momentum in Aux-J        ...      4
Auxiliary J/K fitting basis                 ... NOT available
Auxiliary Correlation fitting basis         ... NOT available
Auxiliary 'external' fitting basis          ... NOT available

Checking pre-screening integrals            ... done (  0.0 sec) Dimension = 161
Check shell pair data                       ... done (  0.0 sec)
Shell pair information
Shell pair cut-off parameter TPreSel        ...   2.5e-12
Total number of shell pairs                 ...     13041
Shell pairs after pre-screening             ...     11544
Total number of primitive shell pairs       ...     44513
Primitive shell pairs kept                  ...     27035
          la=0 lb=0:   4087 shell pairs
          la=1 lb=0:   4485 shell pairs
          la=1 lb=1:   1213 shell pairs
          la=2 lb=0:   1087 shell pairs
          la=2 lb=1:    594 shell pairs
          la=2 lb=2:     78 shell pairs

Calculating one electron integrals          ... done (  0.0 sec)
Calculating RI/J V-Matrix + Cholesky decomp.... done (  0.0 sec)
Calculating Nuclear repulsion               ... done (  0.0 sec) ENN=   1079.104142951261 Eh

Diagonalization of the overlap matrix:
Smallest eigenvalue                        ... 1.745e-03
Time for diagonalization                   ...    0.013 sec
Threshold for overlap eigenvalues          ... 1.000e-07
Number of eigenvalues below threshold      ... 0
Time for construction of square roots      ...    0.007 sec
Total time needed                          ...    0.022 sec

-------------------
DFT GRID GENERATION
-------------------

General Integration Accuracy     IntAcc      ... 4.388
Radial Grid Type                 RadialGrid  ... OptM3 with GC (2021)
Angular Grid (max. ang.)         AngularGrid ... 4 (Lebedev-302)
Angular grid pruning method      GridPruning ... 4 (adaptive)
Weight generation scheme         WeightScheme... mBecke (2022)
Basis function cutoff            BFCut       ... 1.0000e-11
Integration weight cutoff        WCut        ... 1.0000e-14
Partially contracted basis set               ... off
Rotationally invariant grid construction     ... off
Angular grids for H and He will be reduced by one unit

Total number of grid points                  ...   163187
Total number of batches                      ...     2571
Average number of points per batch           ...       63
Average number of grid points per atom       ...     4080
Initializing property integral containers    ... done (  0.0 sec)

SHARK setup successfully completed in   1.2 seconds

Maximum memory used throughout the entire STARTUP-calculation: 46.7 MB


           ************************************************************
           *        Program running with 6 parallel MPI-processes     *
           *              working on a common directory               *
           ************************************************************
-------------------------------------------------------------------------------
                                 ORCA GUESS
                   Start orbitals & Density for SCF / CASSCF
-------------------------------------------------------------------------------

------------
SCF SETTINGS
------------
Hamiltonian:
 Density Functional     Method          .... DFT(GTOs)
 Exchange Functional    Exchange        .... B88
   X-Alpha parameter    XAlpha          ....  0.666667
   Becke's b parameter  XBeta           ....  0.004200
 Correlation Functional Correlation     .... P86
 LDA part of GGA corr.  LDAOpt          .... PW91-LDA
 Gradients option       PostSCFGGA      .... off
   NL short-range parameter             ....  4.400000
 RI-approximation to the Coulomb term is turned on
   Number of AuxJ basis functions       .... 936


General Settings:
 Integral files         IntName         .... data/geom_opt_P_BP86/83681/83681
 Hartree-Fock type      HFTyp           .... RHF
 Total Charge           Charge          ....    0
 Multiplicity           Mult            ....    1
 Number of Electrons    NEL             ....  114
 Basis Dimension        Dim             ....  321
 Nuclear Repulsion      ENuc            ....   1079.1041429513 Eh

Convergence Acceleration:
 AO-DIIS                CNVDIIS         .... on
   Start iteration      DIISMaxIt       ....    12
   Startup error        DIISStart       ....  0.200000
   # of expansion vecs  DIISMaxEq       ....     5
   Bias factor          DIISBfac        ....   1.050
   Max. coefficient     DIISMaxC        ....  10.000
 MO-DIIS                CNVKDIIS        .... off
 Trust-Rad. Augm. Hess. CNVTRAH         .... auto
   Auto Start mean grad. ratio tolernc. ....  1.125000
   Auto Start start iteration           ....    50
   Auto Start num. interpolation iter.  ....    10
   Max. Number of Micro iterations      ....    24
   Max. Number of Macro iterations      .... Maxiter - #DIIS iter
   Number of Davidson start vectors     ....     2
   Converg. threshold    (grad. norm)   ....   1.000e-05
   Grad. Scal. Fac. for Micro threshold ....   0.100
   Minimum threshold for Micro iter.    ....   1.000e-02
   NR start threshold (gradient norm)   ....   1.000e-04
   Initial trust radius                 ....   0.400
   Minimum AH scaling param. (alpha)    ....   1.000
   Maximum AH scaling param. (alpha)    .... 1000.000
   Quad. conv. algorithm                .... NR
   White noise on init. David. guess    .... on
   Maximum white noise                  ....   0.010
   Pseudo random numbers                .... off
   Inactive MOs                         .... canonical
   Orbital update algorithm             .... Taylor
   Preconditioner                       .... Diag
   Full preconditioner red. dimension   ....   250
 SOSCF                  CNVSOSCF        .... on
   Start iteration      SOSCFMaxIt      ....   150
   Startup grad/error   SOSCFStart      ....  0.003300
   Hessian update       SOSCFHessUp     .... L-BFGS
 Level Shifting         CNVShift        .... on
   Level shift para.    LevelShift      ....    0.2500
   Turn off err/grad.   ShiftErr        ....    0.0010
 Zerner damping         CNVZerner       .... off
 Static damping         CNVDamp         .... on
   Fraction old density DampFac         ....    0.7000
   Max. Damping (<1)    DampMax         ....    0.9800
   Min. Damping (>=0)   DampMin         ....    0.0000
   Turn off err/grad.   DampErr         ....    0.1000

SCF Procedure:
 Maximum # iterations   MaxIter         ....   125
 SCF integral mode      SCFMode         .... Direct
   Integral package                     .... SHARK and LIBINT hybrid scheme
 Reset frequency        DirectResetFreq ....    20
 Integral Threshold     Thresh          ....  2.500e-11 Eh
 Primitive CutOff       TCut            ....  2.500e-12 Eh

Convergence Tolerance:
 Convergence Check Mode ConvCheckMode   .... Total+1el-Energy
 Convergence forced     ConvForced      .... 0
 Energy Change          TolE            ....  1.000e-08 Eh
 1-El. energy change                    ....  1.000e-05 Eh
 Orbital Gradient       TolG            ....  1.000e-05
 Orbital Rotation angle TolX            ....  1.000e-05
 DIIS Error             TolErr          ....  5.000e-07

------------------------------
INITIAL GUESS: MODEL POTENTIAL
------------------------------
Loading Hartree-Fock densities                     ... done
Calculating cut-offs                               ... done
Initializing the effective Hamiltonian             ... done
Setting up the integral package (SHARK)            ... done
Starting the Coulomb interaction                   ... done (   0.1 sec)
Making the grid                                    ... done (   0.2 sec)
Mapping shells                                     ... done
Starting the XC term evaluation                    ... done (   0.1 sec)
  promolecular density results
     # of electrons  =    114.009265705
     EX              =    -92.391478254
     EC              =     -4.200218440
     EX+EC           =    -96.591696694
Transforming the Hamiltonian                       ... done (   0.0 sec)
Diagonalizing the Hamiltonian                      ... done (   0.0 sec)
Back transforming the eigenvectors                 ... done (   0.0 sec)
Now organizing SCF variables                       ... done
                      ------------------
                      INITIAL GUESS DONE (   0.5 sec)
                      ------------------
             **** ENERGY FILE WAS UPDATED (data/geom_opt_P_BP86/83681/83681.en.tmp) ****
Finished Guess after   0.6 sec
Maximum memory used throughout the entire GUESS-calculation: 25.1 MB


           ************************************************************
           *        Program running with 6 parallel MPI-processes     *
           *              working on a common directory               *
           ************************************************************

-------------------------------------------------------------------------------------------
                                      ORCA LEAN-SCF
                              memory conserving SCF solver
-------------------------------------------------------------------------------------------

----------------------------------------D-I-I-S--------------------------------------------
Iteration    Energy (Eh)           Delta-E    RMSDP     MaxDP     DIISErr   Damp  Time(sec)
-------------------------------------------------------------------------------------------
               ***  Starting incremental Fock matrix formation  ***
    1    -813.9993770569667504     0.00e+00  2.42e-03  7.73e-02  1.57e-01  0.700   1.0
    2    -814.2103845742378780    -2.11e-01  1.72e-03  4.39e-02  7.41e-02  0.700   0.9
                               ***Turning on AO-DIIS***
    3    -814.2821181912590873    -7.17e-02  6.69e-04  2.18e-02  2.07e-02  0.700   0.9
    4    -814.3240941404019395    -4.20e-02  1.02e-03  4.63e-02  9.63e-03  0.000   0.9
    5    -814.4199013045549691    -9.58e-02  2.65e-04  6.31e-03  6.81e-03  0.000   0.9
                              *** Initializing SOSCF ***
---------------------------------------S-O-S-C-F--------------------------------------
Iteration    Energy (Eh)           Delta-E    RMSDP     MaxDP     MaxGrad    Time(sec)
--------------------------------------------------------------------------------------
    6    -814.4208532109155385    -9.52e-04  9.84e-05  1.85e-03  1.61e-03     0.9
               *** Restarting incremental Fock matrix formation ***
    7    -814.4209269472153210    -7.37e-05  7.11e-05  2.55e-03  3.38e-04     0.9
    8    -814.4209263942018424     5.53e-07  2.09e-05  6.62e-04  2.27e-04     0.8
    9    -814.4209350307571640    -8.64e-06  1.10e-05  4.81e-04  4.07e-05     0.7
   10    -814.4209350598457604    -2.91e-08  4.73e-06  2.32e-04  5.13e-05     0.7
   11    -814.4209351994784356    -1.40e-07  3.17e-06  1.95e-04  1.20e-05     0.8
   12    -814.4209351958047591     3.67e-09  1.51e-06  8.90e-05  1.02e-05     0.8
                 **** Energy Check signals convergence ****

               *****************************************************
               *                     SUCCESS                       *
               *           SCF CONVERGED AFTER  12 CYCLES          *
               *****************************************************

             **** ENERGY FILE WAS UPDATED (data/geom_opt_P_BP86/83681/83681.en.tmp) ****

----------------
TOTAL SCF ENERGY
----------------

Total Energy       :       -814.42093519580476 Eh          -22161.52032 eV

Components:
Nuclear Repulsion  :       1079.10414295126066 Eh           29363.91656 eV
Electronic Energy  :      -1893.52507814706541 Eh          -51525.43688 eV
One Electron Energy:      -3252.96402118561400 Eh          -88517.65117 eV
Two Electron Energy:       1359.43894303854859 Eh           36992.21429 eV

Virial components:
Potential Energy   :      -1621.49516713578714 Eh          -44123.12667 eV
Kinetic Energy     :        807.07423193998250 Eh           21961.60636 eV
Virial Ratio       :          2.00910288417729

DFT components:
N(Alpha)           :       56.999763265647 electrons
N(Beta)            :       56.999763265647 electrons
N(Total)           :      113.999526531294 electrons
E(X)               :      -94.261509660301 Eh       
E(C)               :       -4.171731641421 Eh       
E(XC)              :      -98.433241301722 Eh       

---------------
SCF CONVERGENCE
---------------

  Last Energy change         ...   -3.6737e-09  Tolerance :   1.0000e-08
  Last MAX-Density change    ...    8.8999e-05  Tolerance :   1.0000e-07
  Last RMS-Density change    ...    1.5069e-06  Tolerance :   5.0000e-09
  Last DIIS Error            ...    1.6055e-03  Tolerance :   5.0000e-07
  Last Orbital Gradient      ...    1.0248e-05  Tolerance :   1.0000e-05
  Last Orbital Rotation      ...    3.1424e-05  Tolerance :   1.0000e-05


----------------
ORBITAL ENERGIES
----------------

  NO   OCC          E(Eh)            E(eV) 
   0   2.0000     -76.315935     -2076.6622 
   1   2.0000      -9.931255      -270.2432 
   2   2.0000      -9.931247      -270.2430 
   3   2.0000      -9.931184      -270.2413 
   4   2.0000      -9.904691      -269.5203 
   5   2.0000      -9.904683      -269.5201 
   6   2.0000      -9.904670      -269.5198 
   7   2.0000      -9.901069      -269.4218 
   8   2.0000      -9.901065      -269.4217 
   9   2.0000      -9.901041      -269.4210 
  10   2.0000      -9.898838      -269.3611 
  11   2.0000      -9.898834      -269.3610 
  12   2.0000      -9.898829      -269.3608 
  13   2.0000      -6.285887      -171.0477 
  14   2.0000      -4.507322      -122.6505 
  15   2.0000      -4.507320      -122.6504 
  16   2.0000      -4.503044      -122.5341 
  17   2.0000      -0.747819       -20.3492 
  18   2.0000      -0.724670       -19.7193 
  19   2.0000      -0.724667       -19.7192 
  20   2.0000      -0.620899       -16.8955 
  21   2.0000      -0.615472       -16.7478 
  22   2.0000      -0.615468       -16.7477 
  23   2.0000      -0.609306       -16.5801 
  24   2.0000      -0.609303       -16.5800 
  25   2.0000      -0.600869       -16.3505 
  26   2.0000      -0.573081       -15.5943 
  27   2.0000      -0.492918       -13.4130 
  28   2.0000      -0.492917       -13.4130 
  29   2.0000      -0.456155       -12.4126 
  30   2.0000      -0.414354       -11.2751 
  31   2.0000      -0.414352       -11.2751 
  32   2.0000      -0.400442       -10.8966 
  33   2.0000      -0.395860       -10.7719 
  34   2.0000      -0.395856       -10.7718 
  35   2.0000      -0.381304       -10.3758 
  36   2.0000      -0.378943       -10.3116 
  37   2.0000      -0.378940       -10.3115 
  38   2.0000      -0.356820        -9.7096 
  39   2.0000      -0.352623        -9.5954 
  40   2.0000      -0.343473        -9.3464 
  41   2.0000      -0.343467        -9.3462 
  42   2.0000      -0.334893        -9.1129 
  43   2.0000      -0.334889        -9.1128 
  44   2.0000      -0.329488        -8.9658 
  45   2.0000      -0.319531        -8.6949 
  46   2.0000      -0.317185        -8.6310 
  47   2.0000      -0.317183        -8.6310 
  48   2.0000      -0.300846        -8.1864 
  49   2.0000      -0.299755        -8.1568 
  50   2.0000      -0.299753        -8.1567 
  51   2.0000      -0.288459        -7.8494 
  52   2.0000      -0.288458        -7.8493 
  53   2.0000      -0.269865        -7.3434 
  54   2.0000      -0.257628        -7.0104 
  55   2.0000      -0.257626        -7.0104 
  56   2.0000      -0.155276        -4.2253 
  57   0.0000       0.025120         0.6835 
  58   0.0000       0.038394         1.0447 
  59   0.0000       0.038743         1.0543 
  60   0.0000       0.038765         1.0549 
  61   0.0000       0.058952         1.6042 
  62   0.0000       0.058959         1.6044 
  63   0.0000       0.070481         1.9179 
  64   0.0000       0.077919         2.1203 
  65   0.0000       0.077927         2.1205 
  66   0.0000       0.085109         2.3159 
  67   0.0000       0.095057         2.5866 
*Only the first 10 virtual orbitals were printed.

                    ********************************
                    * MULLIKEN POPULATION ANALYSIS *
                    ********************************

-----------------------
MULLIKEN ATOMIC CHARGES
-----------------------
   0 C :    0.066594
   1 C :   -0.399041
   2 C :    0.037613
   3 C :    0.059639
   4 P :    0.227748
   5 C :   -0.399530
   6 C :    0.059796
   7 C :    0.066653
   8 C :    0.037970
   9 C :   -0.399850
  10 C :    0.066914
  11 C :    0.059929
  12 C :    0.037717
  13 H :    0.020170
  14 H :    0.004431
  15 H :    0.014725
  16 H :    0.024462
  17 H :    0.036265
  18 H :    0.015453
  19 H :    0.006485
  20 H :    0.026797
  21 H :    0.010580
  22 H :    0.006439
  23 H :    0.026769
  24 H :    0.010623
  25 H :    0.014790
  26 H :    0.020216
  27 H :    0.004380
  28 H :    0.036149
  29 H :    0.024394
  30 H :    0.015402
  31 H :    0.004356
  32 H :    0.014705
  33 H :    0.020245
  34 H :    0.006469
  35 H :    0.026806
  36 H :    0.010581
  37 H :    0.024444
  38 H :    0.015433
  39 H :    0.036279
Sum of atomic charges:   -0.0000000

--------------------------------
MULLIKEN REDUCED ORBITAL CHARGES
--------------------------------
  0 C s       :     2.966920  s :     2.966920
      pz      :     0.949597  p :     2.939910
      px      :     1.001707
      py      :     0.988606
      dz2     :     0.005085  d :     0.026576
      dxz     :     0.004155
      dyz     :     0.008073
      dx2y2   :     0.002777
      dxy     :     0.006487

  1 C s       :     3.268869  s :     3.268869
      pz      :     1.022936  p :     3.085726
      px      :     1.027600
      py      :     1.035190
      dz2     :     0.009645  d :     0.044446
      dxz     :     0.008076
      dyz     :     0.010622
      dx2y2   :     0.007203
      dxy     :     0.008899

  2 C s       :     2.994560  s :     2.994560
      pz      :     0.997096  p :     2.941418
      px      :     0.937802
      py      :     1.006521
      dz2     :     0.003720  d :     0.026408
      dxz     :     0.005075
      dyz     :     0.006900
      dx2y2   :     0.004331
      dxy     :     0.006382

  3 C s       :     2.981948  s :     2.981948
      pz      :     0.987476  p :     2.932607
      px      :     1.009098
      py      :     0.936033
      dz2     :     0.006636  d :     0.025806
      dxz     :     0.003210
      dyz     :     0.004846
      dx2y2   :     0.002526
      dxy     :     0.008588

  4 P s       :     5.668056  s :     5.668056
      pz      :     3.385485  p :     8.957874
      px      :     2.812159
      py      :     2.760230
      dz2     :     0.014423  d :     0.146322
      dxz     :     0.018204
      dyz     :     0.032444
      dx2y2   :     0.045567
      dxy     :     0.035683

  5 C s       :     3.269009  s :     3.269009
      pz      :     1.024809  p :     3.086075
      px      :     1.026919
      py      :     1.034347
      dz2     :     0.011134  d :     0.044446
      dxz     :     0.008511
      dyz     :     0.008538
      dx2y2   :     0.008513
      dxy     :     0.007750

  6 C s       :     2.981801  s :     2.981801
      pz      :     1.004547  p :     2.932596
      px      :     0.947168
      py      :     0.980880
      dz2     :     0.007766  d :     0.025807
      dxz     :     0.003999
      dyz     :     0.002000
      dx2y2   :     0.006907
      dxy     :     0.005135

  7 C s       :     2.966862  s :     2.966862
      pz      :     0.940341  p :     2.939909
      px      :     1.002893
      py      :     0.996674
      dz2     :     0.005597  d :     0.026577
      dxz     :     0.006459
      dyz     :     0.005721
      dx2y2   :     0.004977
      dxy     :     0.003823

  8 C s       :     2.994387  s :     2.994387
      pz      :     0.999213  p :     2.941236
      px      :     0.980294
      py      :     0.961729
      dz2     :     0.008107  d :     0.026407
      dxz     :     0.003616
      dyz     :     0.002448
      dx2y2   :     0.008407
      dxy     :     0.003829

  9 C s       :     3.269067  s :     3.269067
      pz      :     1.026507  p :     3.086336
      px      :     1.036428
      py      :     1.023402
      dz2     :     0.009859  d :     0.044447
      dxz     :     0.009825
      dyz     :     0.008963
      dx2y2   :     0.009484
      dxy     :     0.006316

 10 C s       :     2.966716  s :     2.966716
      pz      :     0.961068  p :     2.939794
      px      :     0.973963
      py      :     1.004763
      dz2     :     0.006691  d :     0.026576
      dxz     :     0.004930
      dyz     :     0.004991
      dx2y2   :     0.007226
      dxy     :     0.002738

 11 C s       :     2.981758  s :     2.981758
      pz      :     0.973667  p :     2.932507
      px      :     0.961984
      py      :     0.996855
      dz2     :     0.007469  d :     0.025806
      dxz     :     0.004634
      dyz     :     0.002700
      dx2y2   :     0.008069
      dxy     :     0.002935

 12 C s       :     2.994487  s :     2.994487
      pz      :     1.001433  p :     2.941387
      px      :     0.998689
      py      :     0.941264
      dz2     :     0.004735  d :     0.026409
      dxz     :     0.003453
      dyz     :     0.007173
      dx2y2   :     0.006814
      dxy     :     0.004234

 13 H s       :     0.956132  s :     0.956132
      pz      :     0.004706  p :     0.023697
      px      :     0.011559
      py      :     0.007432

 14 H s       :     0.972464  s :     0.972464
      pz      :     0.006141  p :     0.023105
      px      :     0.008524
      py      :     0.008439

 15 H s       :     0.961835  s :     0.961835
      pz      :     0.007493  p :     0.023440
      px      :     0.005776
      py      :     0.010171

 16 H s       :     0.951814  s :     0.951814
      pz      :     0.009057  p :     0.023724
      px      :     0.004548
      py      :     0.010119

 17 H s       :     0.940859  s :     0.940859
      pz      :     0.011040  p :     0.022877
      px      :     0.005374
      py      :     0.006462

 18 H s       :     0.961412  s :     0.961412
      pz      :     0.006477  p :     0.023135
      px      :     0.007036
      py      :     0.009622

 19 H s       :     0.969294  s :     0.969294
      pz      :     0.005453  p :     0.024222
      px      :     0.011853
      py      :     0.006915

 20 H s       :     0.950280  s :     0.950280
      pz      :     0.011762  p :     0.022923
      px      :     0.006143
      py      :     0.005018

 21 H s       :     0.966245  s :     0.966245
      pz      :     0.006047  p :     0.023175
      px      :     0.009316
      py      :     0.007811

 22 H s       :     0.969342  s :     0.969342
      pz      :     0.006732  p :     0.024219
      px      :     0.009582
      py      :     0.007905

 23 H s       :     0.950308  s :     0.950308
      pz      :     0.013063  p :     0.022923
      px      :     0.004398
      py      :     0.005463

 24 H s       :     0.966203  s :     0.966203
      pz      :     0.006000  p :     0.023174
      px      :     0.004682
      py      :     0.012491

 25 H s       :     0.961765  s :     0.961765
      pz      :     0.005454  p :     0.023445
      px      :     0.011109
      py      :     0.006882

 26 H s       :     0.956090  s :     0.956090
      pz      :     0.005621  p :     0.023694
      px      :     0.010068
      py      :     0.008006

 27 H s       :     0.972519  s :     0.972519
      pz      :     0.005123  p :     0.023101
      px      :     0.005740
      py      :     0.012239

 28 H s       :     0.940973  s :     0.940973
      pz      :     0.013024  p :     0.022878
      px      :     0.004915
      py      :     0.004939

 29 H s       :     0.951879  s :     0.951879
      pz      :     0.006547  p :     0.023728
      px      :     0.011616
      py      :     0.005565

 30 H s       :     0.961465  s :     0.961465
      pz      :     0.006011  p :     0.023133
      px      :     0.005478
      py      :     0.011644

 31 H s       :     0.972542  s :     0.972542
      pz      :     0.004612  p :     0.023102
      px      :     0.011980
      py      :     0.006510

 32 H s       :     0.961852  s :     0.961852
      pz      :     0.009134  p :     0.023443
      px      :     0.007149
      py      :     0.007160

 33 H s       :     0.956061  s :     0.956061
      pz      :     0.005074  p :     0.023694
      px      :     0.005677
      py      :     0.012943

 34 H s       :     0.969311  s :     0.969311
      pz      :     0.005207  p :     0.024219
      px      :     0.005752
      py      :     0.013260

 35 H s       :     0.950272  s :     0.950272
      pz      :     0.010742  p :     0.022922
      px      :     0.006884
      py      :     0.005296

 36 H s       :     0.966245  s :     0.966245
      pz      :     0.005013  p :     0.023174
      px      :     0.011834
      py      :     0.006328

 37 H s       :     0.951830  s :     0.951830
      pz      :     0.009467  p :     0.023726
      px      :     0.006977
      py      :     0.007283

 38 H s       :     0.961434  s :     0.961434
      pz      :     0.005885  p :     0.023134
      px      :     0.012689
      py      :     0.004559

 39 H s       :     0.940845  s :     0.940845
      pz      :     0.010810  p :     0.022877
      px      :     0.007372
      py      :     0.004694



                     *******************************
                     * LOEWDIN POPULATION ANALYSIS *
                     *******************************

----------------------
LOEWDIN ATOMIC CHARGES
----------------------
   0 C :   -0.066627
   1 C :   -0.175842
   2 C :   -0.057943
   3 C :   -0.062437
   4 P :    0.471339
   5 C :   -0.175861
   6 C :   -0.062441
   7 C :   -0.066629
   8 C :   -0.057898
   9 C :   -0.175909
  10 C :   -0.066608
  11 C :   -0.062422
  12 C :   -0.057930
  13 H :    0.019225
  14 H :    0.022379
  15 H :    0.022410
  16 H :    0.018119
  17 H :    0.027361
  18 H :    0.027085
  19 H :    0.020042
  20 H :    0.025377
  21 H :    0.023734
  22 H :    0.020043
  23 H :    0.025377
  24 H :    0.023746
  25 H :    0.022418
  26 H :    0.019249
  27 H :    0.022366
  28 H :    0.027344
  29 H :    0.018105
  30 H :    0.027078
  31 H :    0.022362
  32 H :    0.022404
  33 H :    0.019254
  34 H :    0.020043
  35 H :    0.025383
  36 H :    0.023742
  37 H :    0.018109
  38 H :    0.027088
  39 H :    0.027366

-------------------------------
LOEWDIN REDUCED ORBITAL CHARGES
-------------------------------
  0 C s       :     2.842879  s :     2.842879
      pz      :     1.026791  p :     3.151371
      px      :     1.060778
      py      :     1.063802
      dz2     :     0.014673  d :     0.072377
      dxz     :     0.011245
      dyz     :     0.021715
      dx2y2   :     0.007288
      dxy     :     0.017455

  1 C s       :     2.903016  s :     2.903016
      pz      :     1.057821  p :     3.170874
      px      :     1.052294
      py      :     1.060759
      dz2     :     0.021803  d :     0.101952
      dxz     :     0.017200
      dyz     :     0.026470
      dx2y2   :     0.017188
      dxy     :     0.019291

  2 C s       :     2.846464  s :     2.846464
      pz      :     1.064628  p :     3.140746
      px      :     1.010545
      py      :     1.065573
      dz2     :     0.010920  d :     0.070732
      dxz     :     0.012168
      dyz     :     0.018429
      dx2y2   :     0.012447
      dxy     :     0.016768

  3 C s       :     2.849572  s :     2.849572
      pz      :     1.049357  p :     3.143420
      px      :     1.070706
      py      :     1.023357
      dz2     :     0.017018  d :     0.069444
      dxz     :     0.007952
      dyz     :     0.014952
      dx2y2   :     0.007607
      dxy     :     0.021915

  4 P s       :     5.250359  s :     5.250359
      pz      :     3.429339  p :     9.070584
      px      :     2.847063
      py      :     2.794182
      dz2     :     0.022742  d :     0.207717
      dxz     :     0.024400
      dyz     :     0.044062
      dx2y2   :     0.065674
      dxy     :     0.050840

  5 C s       :     2.903015  s :     2.903015
      pz      :     1.055516  p :     3.170893
      px      :     1.045177
      py      :     1.070200
      dz2     :     0.028193  d :     0.101953
      dxz     :     0.017381
      dyz     :     0.018493
      dx2y2   :     0.018899
      dxy     :     0.018987

  6 C s       :     2.849560  s :     2.849560
      pz      :     1.066090  p :     3.143438
      px      :     1.016869
      py      :     1.060479
      dz2     :     0.020863  d :     0.069443
      dxz     :     0.010731
      dyz     :     0.005277
      dx2y2   :     0.018565
      dxy     :     0.014007

  7 C s       :     2.842872  s :     2.842872
      pz      :     1.016509  p :     3.151381
      px      :     1.065411
      py      :     1.069462
      dz2     :     0.018621  d :     0.072376
      dxz     :     0.015666
      dyz     :     0.013892
      dx2y2   :     0.013650
      dxy     :     0.010547

  8 C s       :     2.846463  s :     2.846463
      pz      :     1.062595  p :     3.140703
      px      :     1.038651
      py      :     1.039456
      dz2     :     0.021772  d :     0.070733
      dxz     :     0.009807
      dyz     :     0.006375
      dx2y2   :     0.020662
      dxy     :     0.012116

  9 C s       :     2.903011  s :     2.903011
      pz      :     1.047774  p :     3.170946
      px      :     1.077669
      py      :     1.045503
      dz2     :     0.022626  d :     0.101953
      dxz     :     0.023379
      dyz     :     0.019255
      dx2y2   :     0.023491
      dxy     :     0.013202

 10 C s       :     2.842869  s :     2.842869
      pz      :     1.028249  p :     3.151362
      px      :     1.059898
      py      :     1.063214
      dz2     :     0.018452  d :     0.072377
      dxz     :     0.014833
      dyz     :     0.012386
      dx2y2   :     0.019291
      dxy     :     0.007415

 11 C s       :     2.849561  s :     2.849561
      pz      :     1.035029  p :     3.143416
      px      :     1.052798
      py      :     1.055589
      dz2     :     0.018822  d :     0.069445
      dxz     :     0.013758
      dyz     :     0.008045
      dx2y2   :     0.020483
      dxy     :     0.008336

 12 C s       :     2.846461  s :     2.846461
      pz      :     1.062535  p :     3.140737
      px      :     1.070209
      py      :     1.007992
      dz2     :     0.013102  d :     0.070732
      dxz     :     0.009563
      dyz     :     0.018199
      dx2y2   :     0.019877
      dxy     :     0.009990

 13 H s       :     0.912574  s :     0.912574
      pz      :     0.013623  p :     0.068201
      px      :     0.034148
      py      :     0.020431

 14 H s       :     0.910652  s :     0.910652
      pz      :     0.019158  p :     0.066969
      px      :     0.023820
      py      :     0.023990

 15 H s       :     0.909547  s :     0.909547
      pz      :     0.024450  p :     0.068043
      px      :     0.014068
      py      :     0.029526

 16 H s       :     0.913103  s :     0.913103
      pz      :     0.026856  p :     0.068778
      px      :     0.013620
      py      :     0.028302

 17 H s       :     0.905349  s :     0.905349
      pz      :     0.033640  p :     0.067289
      px      :     0.017217
      py      :     0.016432

 18 H s       :     0.906829  s :     0.906829
      pz      :     0.015872  p :     0.066086
      px      :     0.022426
      py      :     0.027787

 19 H s       :     0.910393  s :     0.910393
      pz      :     0.013939  p :     0.069565
      px      :     0.034271
      py      :     0.021355

 20 H s       :     0.907512  s :     0.907512
      pz      :     0.037478  p :     0.067111
      px      :     0.015551
      py      :     0.014082

 21 H s       :     0.909988  s :     0.909988
      pz      :     0.016336  p :     0.066278
      px      :     0.025804
      py      :     0.024139

 22 H s       :     0.910393  s :     0.910393
      pz      :     0.017933  p :     0.069564
      px      :     0.031407
      py      :     0.020225

 23 H s       :     0.907512  s :     0.907512
      pz      :     0.041147  p :     0.067111
      px      :     0.012809
      py      :     0.013155

 24 H s       :     0.909975  s :     0.909975
      pz      :     0.014912  p :     0.066279
      px      :     0.013079
      py      :     0.038288

 25 H s       :     0.909537  s :     0.909537
      pz      :     0.017738  p :     0.068045
      px      :     0.033196
      py      :     0.017111

 26 H s       :     0.912550  s :     0.912550
      pz      :     0.018067  p :     0.068201
      px      :     0.029666
      py      :     0.020468

 27 H s       :     0.910666  s :     0.910666
      pz      :     0.016594  p :     0.066968
      px      :     0.013411
      py      :     0.036964

 28 H s       :     0.905368  s :     0.905368
      pz      :     0.041300  p :     0.067288
      px      :     0.013050
      py      :     0.012938

 29 H s       :     0.913118  s :     0.913118
      pz      :     0.017663  p :     0.068777
      px      :     0.036764
      py      :     0.014351

 30 H s       :     0.906838  s :     0.906838
      pz      :     0.014862  p :     0.066084
      px      :     0.014365
      py      :     0.036857

[...]
      pz      :     1.059407  p :     3.138744
      px      :     1.065456
      py      :     1.013881
      dz2     :     0.013446  d :     0.069146
      dxz     :     0.009089
      dyz     :     0.016486
      dx2y2   :     0.019679
      dxy     :     0.010447

 13 H s       :     0.911698  s :     0.911698
      pz      :     0.013173  p :     0.066550
      px      :     0.034544
      py      :     0.018833

 14 H s       :     0.909568  s :     0.909568
      pz      :     0.018090  p :     0.064323
      px      :     0.022606
      py      :     0.023627

 15 H s       :     0.908354  s :     0.908354
      pz      :     0.023408  p :     0.066083
      px      :     0.013021
      py      :     0.029654

 16 H s       :     0.912281  s :     0.912281
      pz      :     0.025392  p :     0.067212
      px      :     0.012940
      py      :     0.028880

 17 H s       :     0.906644  s :     0.906644
      pz      :     0.033095  p :     0.065238
      px      :     0.017024
      py      :     0.015120

 18 H s       :     0.908986  s :     0.908986
      pz      :     0.015494  p :     0.064161
      px      :     0.021713
      py      :     0.026954

 19 H s       :     0.909029  s :     0.909029
      pz      :     0.013570  p :     0.067797
      px      :     0.034839
      py      :     0.019387

 20 H s       :     0.908238  s :     0.908238
      pz      :     0.035043  p :     0.065020
      px      :     0.016098
      py      :     0.013879

 21 H s       :     0.911967  s :     0.911967
      pz      :     0.016560  p :     0.064030
      px      :     0.023474
      py      :     0.023995

 22 H s       :     0.908992  s :     0.908992
      pz      :     0.016095  p :     0.067767
      px      :     0.030771
      py      :     0.020901

 23 H s       :     0.908298  s :     0.908298
      pz      :     0.040666  p :     0.065060
      px      :     0.012112
      py      :     0.012281

 24 H s       :     0.911988  s :     0.911988
      pz      :     0.014625  p :     0.064037
      px      :     0.012474
      py      :     0.036938

 25 H s       :     0.908504  s :     0.908504
      pz      :     0.016626  p :     0.065986
      px      :     0.033676
      py      :     0.015684

 26 H s       :     0.911668  s :     0.911668
      pz      :     0.016713  p :     0.066629
      px      :     0.028599
      py      :     0.021316

 27 H s       :     0.909551  s :     0.909551
      pz      :     0.015690  p :     0.064316
      px      :     0.012712
      py      :     0.035914

 28 H s       :     0.906614  s :     0.906614
      pz      :     0.040626  p :     0.065231
      px      :     0.012218
      py      :     0.012387

 29 H s       :     0.912327  s :     0.912327
      pz      :     0.016599  p :     0.067195
      px      :     0.036320
      py      :     0.014276

 30 H s       :     0.908977  s :     0.908977
      pz      :     0.014419  p :     0.064168
      px      :     0.013519
      py      :     0.036230

 31 H s       :     0.909617  s :     0.909617
      pz      :     0.012373  p :     0.064321
      px      :     0.037209
      py      :     0.014739

 32 H s       :     0.908392  s :     0.908392
      pz      :     0.028597  p :     0.066045
      px      :     0.018445
      py      :     0.019003

 33 H s       :     0.911827  s :     0.911827
      pz      :     0.013922  p :     0.066534
      px      :     0.012800
      py      :     0.039812

 34 H s       :     0.909114  s :     0.909114
      pz      :     0.013423  p :     0.067715
      px      :     0.012921
      py      :     0.041372

 35 H s       :     0.908312  s :     0.908312
      pz      :     0.034672  p :     0.065038
      px      :     0.017214
      py      :     0.013152

 36 H s       :     0.911934  s :     0.911934
      pz      :     0.012227  p :     0.064029
      px      :     0.036821
      py      :     0.014982

 37 H s       :     0.912254  s :     0.912254
      pz      :     0.027817  p :     0.067321
      px      :     0.017027
      py      :     0.022476

 38 H s       :     0.909043  s :     0.909043
      pz      :     0.012386  p :     0.064149
      px      :     0.038367
      py      :     0.013395

 39 H s       :     0.906672  s :     0.906672
      pz      :     0.033740  p :     0.065227
      px      :     0.017567
      py      :     0.013919



                      *****************************
                      * MAYER POPULATION ANALYSIS *
                      *****************************

  NA   - Mulliken gross atomic population
  ZA   - Total nuclear charge
  QA   - Mulliken gross atomic charge
  VA   - Mayer's total valence
  BVA  - Mayer's bonded valence
  FA   - Mayer's free valence

  ATOM       NA         ZA         QA         VA         BVA        FA
  0 C      5.9523     6.0000     0.0477     3.8917     3.8917    -0.0000
  1 C      6.4070     6.0000    -0.4070     4.1434     4.1434    -0.0000
  2 C      5.9822     6.0000     0.0178     3.9180     3.9180    -0.0000
  3 C      5.9615     6.0000     0.0385     3.8896     3.8896    -0.0000
  4 P     14.7372    15.0000     0.2628     2.9585     2.9585    -0.0000
  5 C      6.4065     6.0000    -0.4065     4.1438     4.1438    -0.0000
  6 C      5.9621     6.0000     0.0379     3.8897     3.8897    -0.0000
  7 C      5.9528     6.0000     0.0472     3.8927     3.8927    -0.0000
  8 C      5.9811     6.0000     0.0189     3.9173     3.9173    -0.0000
  9 C      6.4070     6.0000    -0.4070     4.1437     4.1437    -0.0000
 10 C      5.9522     6.0000     0.0478     3.8920     3.8920    -0.0000
 11 C      5.9616     6.0000     0.0384     3.8901     3.8901    -0.0000
 12 C      5.9815     6.0000     0.0185     3.9175     3.9175    -0.0000
 13 H      0.9722     1.0000     0.0278     1.0064     1.0064    -0.0000
 14 H      0.9871     1.0000     0.0129     0.9944     0.9944    -0.0000
 15 H      0.9792     1.0000     0.0208     1.0150     1.0150    -0.0000
 16 H      0.9664     1.0000     0.0336     1.0009     1.0009     0.0000
 17 H      0.9592     1.0000     0.0408     0.9963     0.9963    -0.0000
 18 H      0.9823     1.0000     0.0177     0.9971     0.9971    -0.0000
 19 H      0.9856     1.0000     0.0144     1.0176     1.0176    -0.0000
 20 H      0.9683     1.0000     0.0317     1.0019     1.0019    -0.0000
 21 H      0.9844     1.0000     0.0156     0.9954     0.9954    -0.0000
 22 H      0.9853     1.0000     0.0147     1.0174     1.0174    -0.0000
 23 H      0.9680     1.0000     0.0320     1.0020     1.0020    -0.0000
 24 H      0.9843     1.0000     0.0157     0.9955     0.9955    -0.0000
 25 H      0.9797     1.0000     0.0203     1.0144     1.0144    -0.0000
 26 H      0.9721     1.0000     0.0279     1.0066     1.0066    -0.0000
 27 H      0.9871     1.0000     0.0129     0.9944     0.9944     0.0000
 28 H      0.9594     1.0000     0.0406     0.9964     0.9964    -0.0000
 29 H      0.9665     1.0000     0.0335     1.0010     1.0010    -0.0000
 30 H      0.9824     1.0000     0.0176     0.9971     0.9971    -0.0000
 31 H      0.9872     1.0000     0.0128     0.9945     0.9945    -0.0000
 32 H      0.9800     1.0000     0.0200     1.0152     1.0152    -0.0000
 33 H      0.9723     1.0000     0.0277     1.0064     1.0064    -0.0000
 34 H      0.9853     1.0000     0.0147     1.0170     1.0170    -0.0000
 35 H      0.9681     1.0000     0.0319     1.0019     1.0019    -0.0000
 36 H      0.9844     1.0000     0.0156     0.9955     0.9955     0.0000
 37 H      0.9667     1.0000     0.0333     1.0012     1.0012    -0.0000
 38 H      0.9823     1.0000     0.0177     0.9970     0.9970    -0.0000
 39 H      0.9592     1.0000     0.0408     0.9963     0.9963    -0.0000

  Mayer bond orders larger than 0.100000
B(  0-C ,  1-C ) :   1.0216 B(  0-C , 13-H ) :   0.9471 B(  0-C , 14-H ) :   0.9397 
B(  0-C , 15-H ) :   0.9523 B(  1-C ,  2-C ) :   1.0364 B(  1-C ,  3-C ) :   1.0203 
B(  1-C ,  4-P ) :   0.9233 B(  2-C , 16-H ) :   0.9476 B(  2-C , 17-H ) :   0.9504 
B(  2-C , 18-H ) :   0.9413 B(  3-C , 19-H ) :   0.9538 B(  3-C , 20-H ) :   0.9561 
B(  3-C , 21-H ) :   0.9492 B(  4-P ,  5-C ) :   0.9236 B(  4-P ,  9-C ) :   0.9236 
B(  5-C ,  6-C ) :   1.0203 B(  5-C ,  7-C ) :   1.0219 B(  5-C ,  8-C ) :   1.0364 
B(  6-C , 22-H ) :   0.9538 B(  6-C , 23-H ) :   0.9560 B(  6-C , 24-H ) :   0.9490 
B(  7-C , 25-H ) :   0.9527 B(  7-C , 26-H ) :   0.9468 B(  7-C , 27-H ) :   0.9400 
B(  8-C , 28-H ) :   0.9504 B(  8-C , 29-H ) :   0.9477 B(  8-C , 30-H ) :   0.9414 
B(  9-C , 10-C ) :   1.0216 B(  9-C , 11-C ) :   1.0205 B(  9-C , 12-C ) :   1.0365 
B( 10-C , 31-H ) :   0.9400 B( 10-C , 32-H ) :   0.9528 B( 10-C , 33-H ) :   0.9472 
B( 11-C , 34-H ) :   0.9539 B( 11-C , 35-H ) :   0.9560 B( 11-C , 36-H ) :   0.9492 
B( 12-C , 37-H ) :   0.9475 B( 12-C , 38-H ) :   0.9412 B( 12-C , 39-H ) :   0.9505 


-------
TIMINGS
-------

Total SCF time: 0 days 0 hours 0 min 3 sec 

Total time                  ....       3.564 sec
Sum of individual times     ....       3.497 sec  ( 98.1%)

SCF preparation             ....       0.120 sec  (  3.4%)
Fock matrix formation       ....       3.070 sec  ( 86.1%)
  Startup                   ....       0.012 sec  (  0.4% of F)
  Split-RI-J                ....       0.966 sec  ( 31.5% of F)
  XC integration            ....       2.039 sec  ( 66.4% of F)
    Basis function eval.    ....       0.584 sec  ( 28.6% of XC)
    Density eval.           ....       0.623 sec  ( 30.6% of XC)
    XC-Functional eval.     ....       0.049 sec  (  2.4% of XC)
    XC-Potential eval.      ....       0.537 sec  ( 26.3% of XC)
Diagonalization             ....       0.000 sec  (  0.0%)
Density matrix formation    ....       0.028 sec  (  0.8%)
Total Energy calculation    ....       0.012 sec  (  0.3%)
Population analysis         ....       0.099 sec  (  2.8%)
Orbital Transformation      ....       0.029 sec  (  0.8%)
Orbital Orthonormalization  ....       0.000 sec  (  0.0%)
DIIS solution               ....       0.037 sec  (  1.0%)
SOSCF solution              ....       0.102 sec  (  2.9%)
Finished LeanSCF after   3.6 sec

Maximum memory used throughout the entire LEANSCF-calculation: 39.0 MB


-------------------------------------------------------------------------------
                          DFT DISPERSION CORRECTION                            
                                                                               
                              DFTD3 V3.1  Rev 1                                
                          USING Becke-Johnson damping                          
-------------------------------------------------------------------------------
The BP86 functional is recognized
Active option DFTDOPT                   ...         4   

molecular C6(AA) [au] = 12253.131936 


            DFT-D V3
 parameters
 s6 scaling factor         :     1.0000 
 a1 scaling factor         :     0.3946 
 s8 scaling factor         :     3.2822 
 a2 scaling factor         :     4.8516 
 ad hoc parameters k1-k3   :    16.0000     1.3333    -4.0000 

 Edisp/kcal,au: -50.792588019306  -0.080943132655 
 E6   /kcal   : -19.531936118 
 E8   /kcal   : -31.260651902 
 % E8         :  61.545696175 

-------------------------   ----------------
Dispersion correction           -0.080943133
-------------------------   ----------------


-------------------------   --------------------
FINAL SINGLE POINT ENERGY      -814.516552146888
-------------------------   --------------------

                                *** OPTIMIZATION RUN DONE ***



           ************************************************************
           *        Program running with 6 parallel MPI-processes     *
           *              working on a common directory               *
           ************************************************************

------------------------------------------------------------------------------
                              ORCA PROPERTY CALCULATIONS
------------------------------------------------------------------------------

GBWName                                 ... data/geom_opt_P_BP86/83681/83681.gbw
Number of atoms                         ...     40
Number of basis functions               ...    321
Max core memory                         ...   1024 MB

Electric properties:
Dipole moment                           ... YES
Quadrupole moment                       ...  NO
Static polarizability (Dipole/Dipole)   ...  NO
Static polarizability (Dipole/Quad.)    ...  NO
Static polarizability (Quad./Quad.)     ...  NO
Static polarizability (Velocity)        ...  NO

Atomic electric properties:
Dipole moment                           ...  NO
Quadrupole moment                       ...  NO
Static polarizability                   ...  NO

Choice of electric origin               ... Center of mass
Position of electric origin             ...    -0.073650     0.006925    -0.256118

General magnetic properties:
Magnetizability                         ...  NO

EPR properties:
g-Tensor (aka g-matrix)                 ...  NO
Zero-Field splitting spin-orbit         ...  NO
Zero-field splitting spin-spin          ...  NO
Hyperfine couplings                     ...  NO (   0 nuclei)
Quadrupole couplings                    ...  NO (   0 nuclei)
Contact density                         ...  NO (   0 nuclei)

NMR properties:
Chemical shifts                         ...  NO (   0 nuclei)
Spin-rotation constants                 ...  NO (   0 nuclei)
Spin-spin couplings                     ...  NO (   0 nuclei,    0 pairs)

Choice of magnetic origin               ... GIAO
Position of magnetic origin             ...     0.000000     0.000000     0.000000

Properties with geometric perturbations:
SCF Hessian                             ...  NO
IR spectrum                             ...  NO
VCD spectrum                            ...  NO
X-ray spectroscopy properties:
SCF XES/XAS/RIXS spectra                ...  NO


-------------
DIPOLE MOMENT
-------------

Method             : SCF
Type of density    : Electron Density
Multiplicity       :   1
Irrep              :   0
Energy             :  -814.4356090142330231 Eh
Relativity type    : 
Basis              : AO
                                X                 Y                 Z
Electronic contribution:     -1.342873166       0.127253178      -4.667029481
Nuclear contribution   :      1.454909058      -0.136967605       5.062325614
                        -----------------------------------------
Total Dipole Moment    :      0.112035892      -0.009714426       0.395296134
                        -----------------------------------------
Magnitude (a.u.)       :      0.410981075
Magnitude (Debye)      :      1.044630876



--------------------
Rotational spectrum 
--------------------
 
Rotational constants in cm-1:             0.023764             0.023760             0.015843 
Rotational constants in MHz :           712.431138           712.292817           474.954866 

Dipole components along the rotational axes: 
x,y,z [a.u.] :     0.001327     0.001588     0.410976 
x,y,z [Debye]:     0.003374     0.004037     1.044618 

 

Dipole moment calculation done in   0.0 sec 

Maximum memory used throughout the entire PROP-calculation: 19.2 MB

--------------------------------
SUGGESTED CITATIONS FOR THIS RUN
--------------------------------

Below you find a list of papers that are relevant to this ORCA run
We neither can nor want to force you to cite these papers, but we appreciate if you do
You receive ORCA, which is the product of decades of hard work by many enthusiastic individuals, for free
The only thing we kindly ask in return is that you cite our papers,
We deeply appreciate it, if you show your appreciation for ORCA by not just citing the generic ORCA reference.

Please note that relegating all ORCA citations to the supporting information does *not* help us.
SI sections are not indexed - citations you put there will not count into any citation statistics
But we need these citations in order to attract the funding resources that allow us to do what we are doing

Therefore, if you are a happy ORCA user, please consider citing a few of the papers listed below in the main body of your paper

In addition to the list printed below, the program has created the file data/geom_opt_P_BP86/83681/83681.bibtex that contains the list in bibtex format
You can import this file easily into all common literature databanks and citation aid programs


List of essential papers. We consider these as the minimum necessary citations

  1. Neese,F.
     Software update: the ORCA program system, version 5.0
     WIRES Comput. Molec. Sci., 2022 12(1)e1606
     doi.org/10.1002/wcms.1606

List of papers to cite with high priority. The work reported in these papers was absolutely
necessary for this run to complete.
Our perspective: the developers of density functionals and basis sets usually get cited in chemistry papers
Good! But without the algorithms to do something with them, the functionals or basis sets would not do anything.
Hence, in our opinion, the algorithm design and method developments papers are equally worthy of getting cited

  1. Neese,F.
     An improvement of the resolution of the identity approximation for the formation of the Coulomb matrix
     J. Comp. Chem., 2003 24(14)1740-1747
     doi.org/10.1002/jcc.10318
  2. Neese,F.
     The SHARK Integral Generation and Digestion System
     J. Comp. Chem., 2022  1-16
     doi.org/10.1002/jcc.26942
  3. Grimme,S.; Antony,J.; Ehrlich,S.; Krieg,H.
     A consistent and accurate ab initio parametrization of density functional dispersion correction (DFT-D) for the 94 elements H-Pu
     J. Chem. Phys., 2010 132 154104-XXXX
     doi.org/10.1063/1.3382344
  4. Grimme,S.; Ehrlich,S.; Goerigk,L.
     Effect of the damping function in dispersion corrected density functional theory
     J. Comput. Chem., 2011 32(7)1456-1465
     doi.org/10.1002/jcc.21759

List of suggested additional citations. These are papers that are important in the 'surrounding' of 
of this run, or papers that preceded the highly important papers. If you like your results we are grateful for a citation.

  1. Neese,F.
     The ORCA program system
     WIRES Comput. Molec. Sci., 2012 2(1)73-78
     doi.org/10.1002/wcms.81
  2. Neese,F.
     Software update: the ORCA program system, version 4.0
     WIRES Comput. Molec. Sci., 2018 8(1)1-6
     doi.org/10.1002/wcms.1327
  3. Neese,F.; Wennmohs,F.; Becker,U.; Riplinger,C.
     The ORCA quantum chemistry program package
     J. Chem. Phys., 2020 152 Art. No. L224108
     doi.org/10.1063/5.0004608

List of optional additional citations

  1. Neese,F.
     Approximate second-order SCF convergence for spin unrestricted wavefunctions
     Chem. Phys. Lett., 2000 325(1-3)93-98
     doi.org/10.1016/s0009-2614(00)00662-x

Timings for individual modules:

Sum of individual times          ...      236.788 sec (=   3.946 min)
Startup calculation              ...       20.935 sec (=   0.349 min)   8.8 %
SCF iterations                   ...      122.018 sec (=   2.034 min)  51.5 %
Property calculations            ...        0.188 sec (=   0.003 min)   0.1 %
SCF Gradient evaluation          ...       93.340 sec (=   1.556 min)  39.4 %
Geometry relaxation              ...        0.307 sec (=   0.005 min)   0.1 %
                             ****ORCA TERMINATED NORMALLY****
TOTAL RUN TIME: 0 days 0 hours 4 minutes 0 seconds 78 msec
