
                                 *****************
                                 * O   R   C   A *
                                 *****************

                                            #,                                       
                                            ###                                      
                                            ####                                     
                                            #####                                    
                                            ######                                   
                                           ########,                                 
                                     ,,################,,,,,                         
                               ,,#################################,,                 
                          ,,##########################################,,             
                       ,#########################################, ''#####,          
                    ,#############################################,,   '####,        
                  ,##################################################,,,,####,       
                ,###########''''           ''''###############################       
              ,#####''   ,,,,##########,,,,          '''####'''          '####       
            ,##' ,,,,###########################,,,                        '##       
           ' ,,###''''                  '''############,,,                           
         ,,##''                                '''############,,,,        ,,,,,,###''
      ,#''                                            '''#######################'''  
     '                                                          ''''####''''         
             ,#######,   #######,   ,#######,      ##                                
            ,#'     '#,  ##    ##  ,#'     '#,    #''#        ,####,   ,####,        
            ##       ##  ##   ,#'  ##            #'  '#       #'       #'  '#        
            ##       ##  #######   ##           ,######,      #####,   #    #        
            '#,     ,#'  ##    ##  '#,     ,#' ,#      #,     #,   #   #,  ,#        
             '#######'   ##     ##  '#######'  #'      '#     '####' # '####'        



                #########################################################
                #                        -***-                          #
                #          Department of theory and spectroscopy        #
                #                                                       #
                #                      Frank Neese                      #
                #                                                       #
                #     Directorship, Architecture, Infrastructure        #
                #                    SHARK, DRIVERS                     #
                #        Core code/Algorithms in most modules           #
                #                                                       #
                #        Max Planck Institute fuer Kohlenforschung      #
                #                Kaiser Wilhelm Platz 1                 #
                #                 D-45470 Muelheim/Ruhr                 #
                #                      Germany                          #
                #                                                       #
                #                  All rights reserved                  #
                #                        -***-                          #
                #########################################################


                         Program Version 6.0.0  -   RELEASE   -


 With contributions from (in alphabetic order):
   Daniel Aravena         : Magnetic Suceptibility
   Michael Atanasov       : Ab Initio Ligand Field Theory (pilot matlab implementation)
   Alexander A. Auer      : GIAO ZORA, VPT2 properties, NMR spectrum
   Ute Becker             : All parallelization in ORCA, NUMFREQ, NUMCALC
   Giovanni Bistoni       : ED, misc. LED, open-shell LED, HFLD
   Martin Brehm           : Molecular dynamics
   Dmytro Bykov           : pre 5.0 version of the SCF Hessian
   Marcos Casanova-Páez   : Triplet and SCS-CIS(D). UHF-(DLPNO)-IP/EA/STEOM-CCSD. UHF-CVS-IP/STEOM-CCSD
   Vijay G. Chilkuri      : MRCI spin determinant printing, contributions to CSF-ICE
   Pauline Colinet        : FMM embedding
   Dipayan Datta          : RHF DLPNO-CCSD density
   Achintya Kumar Dutta   : EOM-CC, STEOM-CC
   Nicolas Foglia         : Exact transition moments, OPA infrastructure, MCD improvements
   Dmitry Ganyushin       : Spin-Orbit,Spin-Spin,Magnetic field MRCI
   Miquel Garcia          : C-PCM and meta-GGA Hessian, CCSD/C-PCM, Gaussian charge scheme
   Tiago L. C. Gouveia    : GS-ROHF, GS-ROCIS
   Yang Guo               : DLPNO-NEVPT2, F12-NEVPT2, CIM, IAO-localization
   Andreas Hansen         : Spin unrestricted coupled pair/coupled cluster methods
   Ingolf Harden          : AUTO-CI MPn and infrastructure 
   Benjamin Helmich-Paris : MC-RPA, TRAH-(SCF,CASSCF), AVAS, COSX integrals, SCF dyn. polar.
   Lee Huntington         : MR-EOM, pCC
   Robert Izsak           : Overlap fitted RIJCOSX, COSX-SCS-MP3, EOM
   Riya Kayal             : Wick's Theorem for AUTO-CI, AUTO-CI UHF-CCSDT
   Emily Kempfer          : AUTO-CI, RHF CISDT and CCSDT
   Christian Kollmar      : KDIIS, OOCD, Brueckner-CCSD(T), CCSD density, CASPT2, CASPT2-K, improved NEVPT2
   Axel Koslowski         : Symmetry handling
   Simone Kossmann        : Meta GGA functionals, TD-DFT gradient, OOMP2, (MP2 Hessian; deprecated post 5.0)
   Lucas Lang             : DCDCAS
   Marvin Lechner         : AUTO-CI (C++ implementation), FIC-MRCC
   Spencer Leger          : CASSCF response
   Dagmar Lenk            : GEPOL surface, SMD, ORCA-2-JSON
   Dimitrios Liakos       : Extrapolation schemes; Compound Job, initial MDCI parallelization
   Dimitrios Manganas     : Further ROCIS development; embedding schemes. LFT, Crystal Embedding
   Dimitrios Pantazis     : SARC Basis sets
   Anastasios Papadopoulos: AUTO-CI, single reference methods and gradients
   Taras Petrenko         : pre 6.0 DFT Hessian and TD-DFT gradient, (ASA, deprecated), ECA, 1-Electron XAS/XES, NRVS
   Peter Pinski           : DLPNO-MP2, DLPNO-MP2 Gradient
   Christoph Reimann      : Effective Core Potentials
   Marius Retegan         : Local ZFS, SOC
   Christoph Riplinger    : Optimizer, TS searches, QM/MM, DLPNO-CCSD(T), (RO)-DLPNO pert. Triples
   Michael Roemelt        : Original ROCIS implementation
   Masaaki Saitow         : Open-shell DLPNO-CCSD energy and density
   Barbara Sandhoefer     : DKH picture change effects
   Kantharuban Sivalingam : CASSCF convergence/infrastructure, NEVPT2 and variants, FIC-MRCI
   Bernardo de Souza      : ESD, SOC TD-DFT
   Georgi Stoychev        : AutoAux, RI-MP2 NMR, DLPNO-MP2 response, X2C
   Van Anh Tran           : RI-MP2 g-tensors
   Willem Van den Heuvel  : Paramagnetic NMR
   Zikuan Wang            : NOTCH, Electric field optimization 
   Frank Wennmohs         : Technical directorship and infrastructure
   Hang Xu                : AUTO-CI-Response properties 


 We gratefully acknowledge several colleagues who have allowed us to
 interface, adapt or use parts of their codes:
   Stefan Grimme, W. Hujo, H. Kruse, P. Pracht,  : VdW corrections, initial TS optimization,
                  C. Bannwarth, S. Ehlert,         DFT functionals, gCP, sTDA/sTD-DF
                  L. Wittmann, M. Mueller
   Ed Valeev, F. Pavosevic, A. Kumar             : LibInt (2-el integral package), F12 methods
   Garnet Chan, S. Sharma, J. Yang, R. Olivares  : DMRG
   Ulf Ekstrom                                   : XCFun DFT Library
   Mihaly Kallay                                 : mrcc  (arbitrary order and MRCC methods)
   Frank Weinhold                                : gennbo (NPA and NBO analysis)
   Simon Mueller                                 : openCOSMO-RS
   Christopher J. Cramer and Donald G. Truhlar   : smd solvation model
   Lars Goerigk                                  : TD-DFT with DH, B97 family of functionals
   V. Asgeirsson, H. Jonsson                     : NEB implementation
   FAccTs GmbH                                   : IRC, NEB, NEB-TS, DLPNO-Multilevel, CI-OPT
                                                   MM, QMMM, 2- and 3-layer-ONIOM, Crystal-QMMM,
                                                   LR-CPCM, SF, NACMEs, symmetry and pop. for TD-DFT,
                                                   nearIR, NL-DFT gradient (VV10), updates on ESD,
                                                   ML-optimized integration grids, MBIS, APM,
                                                   GOAT, DOCKER, SOLVATOR, interface openCOSMO-RS
   S Lehtola, MJT Oliveira, MAL Marques          : LibXC Library
   Liviu Ungur et al                             : ANISO software


 Your calculation uses the libint2 library for the computation of 2-el integrals
 For citations please refer to: http://libint.valeyev.net

 Your ORCA version has been built with support for libXC version: 6.2.2
 For citations please refer to: https://libxc.gitlab.io

 This ORCA versions uses:
   CBLAS   interface :  Fast vector & matrix operations
   LAPACKE interface :  Fast linear algebra routines
   Shared memory     :  Shared parallel matrices


Your calculation utilizes the atom-pairwise dispersion correction
with the Becke-Johnson damping scheme (D3BJ)


Warning: RI is on but no J-basis has been assigned. Assigning Def2/J (nothing to worry about!)
================================================================================

----- Orbital basis set information -----
Your calculation utilizes the basis: def2-SVP
   F. Weigend and R. Ahlrichs, Phys. Chem. Chem. Phys. 7, 3297 (2005).

----- AuxJ basis set information -----
Your calculation utilizes the auxiliary basis: def2/J
   F. Weigend, Phys. Chem. Chem. Phys. 8, 1057 (2006).

================================================================================
                                        WARNINGS
                       Please study these warnings very carefully!
================================================================================


WARNING: Geometry Optimization
  ===> : Switching off AutoStart
         For restart on a previous wavefunction, please use MOREAD

================================================================================
                                       INPUT FILE
================================================================================
NAME = data/geom_opt/137699/137699.inp
|  1> ! RIJONX B3LYP def2-SVP D3BJ TIGHTSCF Opt
|  2> %pal
|  3> nprocs 6
|  4> end
|  5> 
|  6> * xyz 0 1
|  7> C      1.272748    3.471914   -1.046561
|  8> C      0.346384    2.708074   -1.643888
|  9> C     -0.708546    1.933676   -0.910283
| 10> P     -0.293127    0.197684   -1.313042
| 11> C      1.176479   -0.094172   -0.262889
| 12> C      2.386247   -0.445474   -0.880318
| 13> C      3.536907   -0.673236   -0.121106
| 14> C      3.493040   -0.552939    1.265661
| 15> C      2.299788   -0.204702    1.893772
| 16> C      1.149243    0.024284    1.134685
| 17> C     -1.567374   -0.782322   -0.438470
| 18> C     -2.831776   -0.269341   -0.114847
| 19> C     -3.785539   -1.058682    0.537553
| 20> C     -3.496192   -2.379660    0.866128
| 21> C     -2.256221   -2.915571    0.535175
| 22> C     -1.304947   -2.126136   -0.117226
| 23> H      1.337221    3.550108    0.034406
| 24> H      2.001725    4.021816   -1.633530
| 25> H      0.326938    2.677706   -2.732878
| 26> H     -1.683847    2.222191   -1.313994
| 27> H     -0.709543    2.143160    0.163724
| 28> H      2.444614   -0.541902   -1.962477
| 29> H      4.466359   -0.943421   -0.615132
| 30> H      4.387742   -0.730772    1.856187
| 31> H      2.261271   -0.112406    2.975903
| 32> H      0.229444    0.289659    1.650678
| 33> H     -3.110197    0.748965   -0.368090
| 34> H     -4.758378   -0.639933    0.782312
| 35> H     -4.238164   -2.992339    1.370878
| 36> H     -2.025310   -3.949135    0.779084
| 37> H     -0.346990   -2.577093   -0.371415
| 38> **                         ****END OF INPUT****
================================================================================

                       *****************************
                       * Geometry Optimization Run *
                       *****************************

Geometry optimization settings:
Update method            Update   .... BFGS
Choice of coordinates    CoordSys .... (2022) Redundant Internals
Initial Hessian          InHess   .... Almloef's Model
Max. no of cycles        MaxIter  .... 93

Convergence Tolerances:
Energy Change            TolE     ....  5.0000e-06 Eh
Max. Gradient            TolMAXG  ....  3.0000e-04 Eh/bohr
RMS Gradient             TolRMSG  ....  1.0000e-04 Eh/bohr
Max. Displacement        TolMAXD  ....  4.0000e-03 bohr
RMS Displacement         TolRMSD  ....  2.0000e-03 bohr
Strict Convergence                .... False

------------------------------------------------------------------------------
                        ORCA OPTIMIZATION COORDINATE SETUP
------------------------------------------------------------------------------

The optimization will be done in redundant internal coordinates (2022)
Making redundant internal coordinates   ...  (2022 redundants) done
Evaluating the initial hessian          ...  (Almloef) done
Evaluating the coordinates              ...  done
Calculating the B-matrix                .... done
Calculating the G-matrix                .... done
Diagonalizing the G-matrix              .... done
Small eigenvalue found = 6.120e-03
Small eigenvalue found = 8.325e-03
Small eigenvalue found = 1.674e-02
Small eigenvalue found = 2.141e-02
The first mode is                       ....   66
The number of degrees of freedom        ....   87

    -----------------------------------------------------------------
                    Redundant Internal Coordinates


    -----------------------------------------------------------------
         Definition                    Initial Value    Approx d2E/dq
    -----------------------------------------------------------------
      1. B(C   1,C   0)                  1.3410         0.747900   
      2. B(C   2,C   1)                  1.5002         0.416720   
      3. B(P   3,C   2)                  1.8299         0.417286   
      4. B(C   4,P   3)                  1.8297         0.417585   
      5. B(C   5,C   4)                  1.4029         0.595845   
      6. B(C   6,C   5)                  1.3972         0.608384   
      7. B(C   7,C   6)                  1.3927         0.618707   
      8. B(C   8,C   7)                  1.3927         0.618606   
      9. B(C   9,C   8)                  1.3973         0.608300   
     10. B(C   9,C   4)                  1.4028         0.595989   
     11. B(C  10,P   3)                  1.8300         0.417061   
     12. B(C  11,C  10)                  1.4024         0.597077   
     13. B(C  12,C  11)                  1.3994         0.603567   
     14. B(C  13,C  12)                  1.3916         0.621040   
     15. B(C  14,C  13)                  1.3908         0.623017   
     16. B(C  15,C  14)                  1.3978         0.607218   
     17. B(C  15,C  10)                  1.4064         0.588311   
     18. B(H  16,C   0)                  1.0857         0.365823   
     19. B(H  17,C   0)                  1.0855         0.366089   
     20. B(H  18,C   1)                  1.0896         0.360647   
     21. B(H  19,C   2)                  1.0943         0.354490   
     22. B(H  20,C   2)                  1.0942         0.354526   
     23. B(H  21,C   5)                  1.0880         0.362738   
     24. B(H  22,C   6)                  1.0867         0.364476   
     25. B(H  23,C   7)                  1.0867         0.364541   
     26. B(H  24,C   8)                  1.0867         0.364435   
     27. B(H  25,C   9)                  1.0875         0.363394   
     28. B(H  26,C  11)                  1.0856         0.365925   
     29. B(H  27,C  12)                  1.0870         0.364026   
     30. B(H  28,C  13)                  1.0866         0.364644   
     31. B(H  29,C  14)                  1.0868         0.364400   
     32. B(H  30,C  15)                  1.0889         0.361587   
     33. A(C   1,C   0,H  17)          120.7694         0.365383   
     34. A(C   1,C   0,H  16)          121.7031         0.365337   
     35. A(H  16,C   0,H  17)          117.5166         0.292319   
     36. A(C   2,C   1,H  18)          117.5024         0.330296   
     37. A(C   0,C   1,C   2)          124.1899         0.418067   
     38. A(C   0,C   1,H  18)          118.2538         0.364447   
     39. A(P   3,C   2,H  20)          113.4442         0.349864   
     40. A(C   1,C   2,P   3)          102.8521         0.401855   
     41. A(P   3,C   2,H  19)          111.7938         0.349859   
     42. A(H  19,C   2,H  20)          108.1086         0.289415   
     43. A(C   1,C   2,H  20)          112.4432         0.329362   
     44. A(C   1,C   2,H  19)          108.0725         0.329357   
     45. A(C   2,P   3,C   4)          101.9667         0.428595   
     46. A(C   4,P   3,C  10)          101.5110         0.428553   
     47. A(C   2,P   3,C  10)          104.1687         0.428498   
     48. A(P   3,C   4,C   9)          122.8698         0.428300   
     49. A(C   5,C   4,C   9)          118.4463         0.427933   
     50. A(P   3,C   4,C   5)          118.6831         0.428282   
     51. A(C   4,C   5,C   6)          120.7854         0.429516   
     52. A(C   6,C   5,H  21)          118.8040         0.352216   
     53. A(C   4,C   5,H  21)          120.4103         0.350978   
     54. A(C   5,C   6,C   7)          120.0689         0.432430   
     55. A(C   7,C   6,H  22)          120.0726         0.353506   
     56. A(C   5,C   6,H  22)          119.8584         0.352501   
     57. A(C   6,C   7,C   8)          119.8463         0.433727   
     58. A(C   8,C   7,H  23)          120.0837         0.353507   
     59. A(C   6,C   7,H  23)          120.0701         0.353517   
     60. A(C   7,C   8,C   9)          120.0964         0.432406   
     61. A(C   7,C   8,H  24)          120.0455         0.353490   
     62. A(C   9,C   8,H  24)          119.8580         0.352486   
     63. A(C   4,C   9,C   8)          120.7566         0.429523   
     64. A(C   4,C   9,H  25)          120.6444         0.351100   
     65. A(C   8,C   9,H  25)          118.5976         0.352316   
     66. A(P   3,C  10,C  11)          122.8335         0.428344   
     67. A(C  11,C  10,C  15)          117.7139         0.427097   
     68. A(P   3,C  10,C  15)          119.4014         0.427210   
     69. A(C  10,C  11,C  12)          121.0480         0.429062   
     70. A(C  12,C  11,H  26)          117.5829         0.352264   
     71. A(C  10,C  11,H  26)          121.3668         0.351620   
     72. A(C  13,C  12,H  27)          119.9053         0.353658   
     73. A(C  11,C  12,H  27)          119.8431         0.351954   
     74. A(C  11,C  12,C  13)          120.2503         0.432104   
     75. A(C  14,C  13,H  28)          120.1372         0.353950   
     76. A(C  12,C  13,H  28)          120.1939         0.353759   
     77. A(C  12,C  13,C  14)          119.6668         0.434576   
     78. A(C  15,C  14,H  29)          119.8204         0.352374   
     79. A(C  13,C  14,H  29)          120.1653         0.353910   
     80. A(C  13,C  14,C  15)          120.0139         0.432820   
     81. A(C  14,C  15,H  30)          118.2807         0.351913   
     82. A(C  10,C  15,H  30)          120.4352         0.350037   
     83. A(C  10,C  15,C  14)          121.2839         0.428389   
     84. D(H  18,C   1,C   0,H  16)    179.4621         0.039869   
     85. D(H  18,C   1,C   0,H  17)     -1.7663         0.039869   
     86. D(C   2,C   1,C   0,H  16)      2.2041         0.039869   
     87. D(C   2,C   1,C   0,H  17)   -179.0243         0.039869   
     88. D(P   3,C   2,C   1,C   0)   -116.2419         0.012847   
     89. D(H  20,C   2,C   1,C   0)      6.1535         0.012847   
     90. D(P   3,C   2,C   1,H  18)     66.4811         0.012847   
     91. D(H  19,C   2,C   1,C   0)    125.3975         0.012847   
     92. D(H  19,C   2,C   1,H  18)    -51.8795         0.012847   
     93. D(C  10,P   3,C   2,H  19)    -64.0487         0.003863   
     94. D(C   4,P   3,C   2,H  20)    -46.7849         0.003863   
     95. D(C   4,P   3,C   2,C   1)     74.9339         0.003863   
     96. D(C  10,P   3,C   2,C   1)   -179.7647         0.003863   
     97. D(C   4,P   3,C   2,H  19)   -169.3501         0.003863   
     98. D(C   5,C   4,P   3,C   2)   -120.1207         0.003667   
     99. D(C   9,C   4,P   3,C  10)    -47.8118         0.003667   
    100. D(C   9,C   4,P   3,C   2)     59.5567         0.003667   
    101. D(C   5,C   4,P   3,C  10)    132.5108         0.003667   
    102. D(H  21,C   5,C   4,C   9)   -179.7284         0.024457   
    103. D(C   6,C   5,C   4,C   9)      0.0554         0.024457   
    104. D(H  21,C   5,C   4,P   3)     -0.0365         0.024457   
    105. D(C   6,C   5,C   4,P   3)    179.7472         0.024457   
    106. D(H  22,C   6,C   5,H  21)     -0.1382         0.025555   
    107. D(H  22,C   6,C   5,C   4)   -179.9253         0.025555   
    108. D(C   7,C   6,C   5,H  21)    179.7978         0.025555   
    109. D(C   7,C   6,C   5,C   4)      0.0107         0.025555   
    110. D(H  23,C   7,C   6,H  22)     -0.1084         0.026482   
    111. D(H  23,C   7,C   6,C   5)    179.9557         0.026482   
    112. D(C   8,C   7,C   6,H  22)    179.9151         0.026482   
    113. D(C   8,C   7,C   6,C   5)     -0.0208         0.026482   
    114. D(C   9,C   8,C   7,C   6)     -0.0362         0.026473   
    115. D(H  24,C   8,C   7,H  23)     -0.1325         0.026473   
    116. D(H  24,C   8,C   7,C   6)    179.8440         0.026473   
    117. D(C   9,C   8,C   7,H  23)    179.9873         0.026473   
    118. D(H  25,C   9,C   8,H  24)     -0.2024         0.025548   
    119. D(H  25,C   9,C   8,C   7)    179.6780         0.025548   
    120. D(C   4,C   9,C   8,H  24)   -179.7760         0.025548   
    121. D(C   4,C   9,C   8,C   7)      0.1044         0.025548   
    122. D(H  25,C   9,C   4,C   5)   -179.6776         0.024469   
    123. D(H  25,C   9,C   4,P   3)      0.6443         0.024469   
    124. D(C   8,C   9,C   4,C   5)     -0.1127         0.024469   
    125. D(C   8,C   9,C   4,P   3)   -179.7908         0.024469   
    126. D(C  15,C  10,P   3,C   4)    -51.5058         0.003662   
    127. D(C  15,C  10,P   3,C   2)   -157.1493         0.003662   
    128. D(C  11,C  10,P   3,C   4)    131.1590         0.003662   
    129. D(C  11,C  10,P   3,C   2)     25.5155         0.003662   
    130. D(H  26,C  11,C  10,C  15)   -177.7669         0.024564   
    131. D(H  26,C  11,C  10,P   3)     -0.3893         0.024564   
    132. D(C  12,C  11,C  10,C  15)      1.6719         0.024564   
    133. D(C  12,C  11,C  10,P   3)    179.0495         0.024564   
    134. D(H  27,C  12,C  11,H  26)     -0.7616         0.025130   
    135. D(H  27,C  12,C  11,C  10)    179.7790         0.025130   
    136. D(C  13,C  12,C  11,H  26)    178.8217         0.025130   
    137. D(C  13,C  12,C  11,C  10)     -0.6377         0.025130   
    138. D(H  28,C  13,C  12,H  27)     -0.2921         0.026694   
    139. D(H  28,C  13,C  12,C  11)   -179.8752         0.026694   
    140. D(C  14,C  13,C  12,H  27)    179.1703         0.026694   
    141. D(C  14,C  13,C  12,C  11)     -0.4128         0.026694   
    142. D(H  29,C  14,C  13,H  28)      0.0707         0.026875   
    143. D(H  29,C  14,C  13,C  12)   -179.3920         0.026875   
    144. D(C  15,C  14,C  13,H  28)    179.8333         0.026875   
    145. D(C  15,C  14,C  13,C  12)      0.3706         0.026875   
    146. D(C  14,C  15,C  10,P   3)   -179.1887         0.023812   
    147. D(H  30,C  15,C  14,H  29)      0.3323         0.025452   
    148. D(H  30,C  15,C  14,C  13)   -179.4311         0.025452   
    149. D(C  10,C  15,C  14,H  29)   -179.5150         0.025452   
    150. D(C  10,C  15,C  14,C  13)      0.7215         0.025452   
    151. D(H  30,C  15,C  10,C  11)    178.4381         0.023812   
    152. D(H  30,C  15,C  10,P   3)      0.9673         0.023812   
    153. D(C  14,C  15,C  10,C  11)     -1.7178         0.023812   
    -----------------------------------------------------------------

Number of atoms                         .... 31
Number of degrees of freedom            .... 153


         *************************************************************
         *                GEOMETRY OPTIMIZATION CYCLE   1            *
         *************************************************************
---------------------------------
CARTESIAN COORDINATES (ANGSTROEM)
---------------------------------
  C      1.272748    3.471914   -1.046561
  C      0.346384    2.708074   -1.643888
  C     -0.708546    1.933676   -0.910283
  P     -0.293127    0.197684   -1.313042
  C      1.176479   -0.094172   -0.262889
  C      2.386247   -0.445474   -0.880318
  C      3.536907   -0.673236   -0.121106
  C      3.493040   -0.552939    1.265661
  C      2.299788   -0.204702    1.893772
  C      1.149243    0.024284    1.134685
  C     -1.567374   -0.782322   -0.438470
  C     -2.831776   -0.269341   -0.114847
  C     -3.785539   -1.058682    0.537553
  C     -3.496192   -2.379660    0.866128
  C     -2.256221   -2.915571    0.535175
  C     -1.304947   -2.126136   -0.117226
  H      1.337221    3.550108    0.034406
  H      2.001725    4.021816   -1.633530
  H      0.326938    2.677706   -2.732878
  H     -1.683847    2.222191   -1.313994
  H     -0.709543    2.143160    0.163724
  H      2.444614   -0.541902   -1.962477
  H      4.466359   -0.943421   -0.615132
  H      4.387742   -0.730772    1.856187
  H      2.261271   -0.112406    2.975903
  H      0.229444    0.289659    1.650678
  H     -3.110197    0.748965   -0.368090
  H     -4.758378   -0.639933    0.782312
  H     -4.238164   -2.992339    1.370878
  H     -2.025310   -3.949135    0.779084
  H     -0.346990   -2.577093   -0.371415

----------------------------
CARTESIAN COORDINATES (A.U.)
----------------------------
  NO LB      ZA    FRAG     MASS         X           Y           Z
   0 C     6.0000    0    12.011    2.405145    6.560967   -1.977714
   1 C     6.0000    0    12.011    0.654571    5.117518   -3.106498
   2 C     6.0000    0    12.011   -1.338958    3.654118   -1.720186
   3 P    15.0000    0    30.974   -0.553930    0.373569   -2.481290
   4 C     6.0000    0    12.011    2.223223   -0.177959   -0.496788
   5 C     6.0000    0    12.011    4.509353   -0.841824   -1.663560
   6 C     6.0000    0    12.011    6.683786   -1.272232   -0.228857
   7 C     6.0000    0    12.011    6.600889   -1.044903    2.391753
   8 C     6.0000    0    12.011    4.345969   -0.386831    3.578710
   9 C     6.0000    0    12.011    2.171755    0.045890    2.144244
  10 C     6.0000    0    12.011   -2.961908   -1.478374   -0.828588
  11 C     6.0000    0    12.011   -5.351281   -0.508981   -0.217029
  12 C     6.0000    0    12.011   -7.153632   -2.000619    1.015828
  13 C     6.0000    0    12.011   -6.606845   -4.496906    1.636745
  14 C     6.0000    0    12.011   -4.263640   -5.509631    1.011334
  15 C     6.0000    0    12.011   -2.465992   -4.017815   -0.221525
  16 H     1.0000    0     1.008    2.526981    6.708732    0.065018
  17 H     1.0000    0     1.008    3.782712    7.600131   -3.086924
  18 H     1.0000    0     1.008    0.617823    5.060131   -5.164391
  19 H     1.0000    0     1.008   -3.182010    4.199332   -2.483089
  20 H     1.0000    0     1.008   -1.340842    4.049985    0.309394
  21 H     1.0000    0     1.008    4.619651   -1.024046   -3.708544
  22 H     1.0000    0     1.008    8.440195   -1.782807   -1.162431
  23 H     1.0000    0     1.008    8.291631   -1.380959    3.507685
  24 H     1.0000    0     1.008    4.273183   -0.212417    5.623642
  25 H     1.0000    0     1.008    0.433586    0.547376    3.119329
  26 H     1.0000    0     1.008   -5.877421    1.415339   -0.695589
  27 H     1.0000    0     1.008   -8.992031   -1.209298    1.478355
  28 H     1.0000    0     1.008   -8.008969   -5.654701    2.590584
  29 H     1.0000    0     1.008   -3.827281   -7.462784    1.472255
  30 H     1.0000    0     1.008   -0.655716   -4.870000   -0.701873

--------------------------------
INTERNAL COORDINATES (ANGSTROEM)
--------------------------------
 C      0   0   0     0.000000000000     0.00000000     0.00000000
 C      1   0   0     1.341044872860     0.00000000     0.00000000
 C      2   1   0     1.500248600509   124.18992329     0.00000000
 P      3   2   1     1.829878679505   102.85209193   243.75812421
 C      4   3   2     1.829683864328   101.96666203    74.93387177
 C      5   4   3     1.402914922249   118.68309706   239.87930371
 C      6   5   4     1.397246157693   120.78536912   179.74721255
 C      7   6   5     1.392665930576   120.06892387     0.00000000
 C      8   7   6     1.392710584434   119.84626718     0.00000000
 C      9   8   7     1.397283599986   120.09642277   359.96380426
 C      4   3   2     1.830025508082   104.16871976   180.23529664
 C     11   4   3     1.402352940630   122.83345307    25.51553707
 C     12  11   4     1.399410173770   121.04801542   179.04950987
 C     13  12  11     1.391641510418   120.25025830   359.36227569
 C     14  13  12     1.390776246911   119.66675152   359.58723592
 C     15  14  13     1.397768545612   120.01387603     0.37058271
 H      1   2   3     1.085707476466   121.70307339     2.20412121
 H      1   2   3     1.085510148775   120.76943430   180.97571344
 H      2   1   3     1.089586886136   118.25382573   177.25801357
 H      3   2   1     1.094273968139   108.07254574   125.39752230
 H      3   2   1     1.094246579302   112.44317686     6.15353230
 H      6   5   4     1.088013403940   120.41032479   359.96348779
 H      7   6   5     1.086711849206   119.85843475   180.07468094
 H      8   7   6     1.086663333958   120.07005053   179.95574522
 H      9   8   7     1.086742661381   120.04550411   179.84400159
 H     10   9   8     1.087521432927   118.59764357   179.67800305
 H     12  11   4     1.085632248934   121.36679437   359.61069166
 H     13  12  11     1.087048026999   119.84311416   179.77897185
 H     14  13  12     1.086586659372   120.19387167   180.12482451
 H     15  14  13     1.086768619485   120.16528372   180.60796694
 H     16  15  14     1.088878265656   118.28073413   180.56886778

---------------------------
INTERNAL COORDINATES (A.U.)
---------------------------
 C      0   0   0     0.000000000000     0.00000000     0.00000000
 C      1   0   0     2.534207543005     0.00000000     0.00000000
 C      2   1   0     2.835058987761   124.18992329     0.00000000
 P      3   2   1     3.457969562565   102.85209193   243.75812421
 C      4   3   2     3.457601415234   101.96666203    74.93387177
 C      5   4   3     2.651124992242   118.68309706   239.87930371
 C      6   5   4     2.640412579714   120.78536912   179.74721255
 C      7   6   5     2.631757204831   120.06892387     0.00000000
 C      8   7   6     2.631841588393   119.84626718     0.00000000
 C      9   8   7     2.640483335393   120.09642277   359.96380426
 C      4   3   2     3.458247028364   104.16871976   180.23529664
 C     11   4   3     2.650063000890   122.83345307    25.51553707
 C     12  11   4     2.644501977448   121.04801542   179.04950987
 C     13  12  11     2.629821331286   120.25025830   359.36227569
 C     14  13  12     2.628186220224   119.66675152   359.58723592
 C     15  14  13     2.641399749816   120.01387603     0.37058271
 H      1   2   3     2.051689792071   121.70307339     2.20412121
 H      1   2   3     2.051316896777   120.76943430   180.97571344
 H      2   1   3     2.059020813909   118.25382573   177.25801357
 H      3   2   1     2.067878115262   108.07254574   125.39752230
 H      3   2   1     2.067826357861   112.44317686     6.15353230
 H      6   5   4     2.056047363483   120.41032479   359.96348779
 H      7   6   5     2.053587781487   119.85843475   180.07468094
 H      8   7   6     2.053496100955   120.07005053   179.95574522
 H      9   8   7     2.053646008059   120.04550411   179.84400159
 H     10   9   8     2.055117673001   118.59764357   179.67800305
 H     12  11   4     2.051547632639   121.36679437   359.61069166
 H     13  12  11     2.054223065448   119.84311416   179.77897185
 H     14  13  12     2.053351206985   120.19387167   180.12482451
 H     15  14  13     2.053695061767   120.16528372   180.60796694
 H     16  15  14     2.057681715270   118.28073413   180.56886778

---------------------
BASIS SET INFORMATION
---------------------
There are 3 groups of distinct atoms

 Group   1 Type C   : 7s4p1d contracted to 3s2p1d pattern {511/31/1}
 Group   2 Type P   : 10s7p1d contracted to 4s3p1d pattern {5311/511/1}
 Group   3 Type H   : 4s1p contracted to 2s1p pattern {31/1}

Atom   0C    basis set group =>   1
Atom   1C    basis set group =>   1
Atom   2C    basis set group =>   1
Atom   3P    basis set group =>   2
Atom   4C    basis set group =>   1
Atom   5C    basis set group =>   1
Atom   6C    basis set group =>   1
Atom   7C    basis set group =>   1
Atom   8C    basis set group =>   1
Atom   9C    basis set group =>   1
Atom  10C    basis set group =>   1
Atom  11C    basis set group =>   1
Atom  12C    basis set group =>   1
Atom  13C    basis set group =>   1
Atom  14C    basis set group =>   1
Atom  15C    basis set group =>   1
Atom  16H    basis set group =>   3
Atom  17H    basis set group =>   3
Atom  18H    basis set group =>   3
Atom  19H    basis set group =>   3
Atom  20H    basis set group =>   3
Atom  21H    basis set group =>   3
Atom  22H    basis set group =>   3
Atom  23H    basis set group =>   3
Atom  24H    basis set group =>   3
Atom  25H    basis set group =>   3
Atom  26H    basis set group =>   3
Atom  27H    basis set group =>   3
Atom  28H    basis set group =>   3
Atom  29H    basis set group =>   3
Atom  30H    basis set group =>   3
---------------------------------
AUXILIARY/J BASIS SET INFORMATION
---------------------------------
There are 3 groups of distinct atoms

 Group   1 Type C   : 12s5p4d2f1g contracted to 6s4p3d1f1g pattern {711111/2111/211/2/1}
 Group   2 Type P   : 14s5p5d2f1g contracted to 8s4p3d1f1g pattern {71111111/2111/311/2/1}
 Group   3 Type H   : 5s2p1d contracted to 3s1p1d pattern {311/2/1}

Atom   0C    basis set group =>   1
Atom   1C    basis set group =>   1
Atom   2C    basis set group =>   1
Atom   3P    basis set group =>   2
Atom   4C    basis set group =>   1
Atom   5C    basis set group =>   1
Atom   6C    basis set group =>   1
Atom   7C    basis set group =>   1
Atom   8C    basis set group =>   1
Atom   9C    basis set group =>   1
Atom  10C    basis set group =>   1
Atom  11C    basis set group =>   1
Atom  12C    basis set group =>   1
Atom  13C    basis set group =>   1
Atom  14C    basis set group =>   1
Atom  15C    basis set group =>   1
Atom  16H    basis set group =>   3
Atom  17H    basis set group =>   3
Atom  18H    basis set group =>   3
Atom  19H    basis set group =>   3
Atom  20H    basis set group =>   3
Atom  21H    basis set group =>   3
Atom  22H    basis set group =>   3
Atom  23H    basis set group =>   3
Atom  24H    basis set group =>   3
Atom  25H    basis set group =>   3
Atom  26H    basis set group =>   3
Atom  27H    basis set group =>   3
Atom  28H    basis set group =>   3
Atom  29H    basis set group =>   3
Atom  30H    basis set group =>   3


           ************************************************************
           *        Program running with 6 parallel MPI-processes     *
           *              working on a common directory               *
           ************************************************************
------------------------------------------------------------------------------
                             ORCA STARTUP CALCULATIONS
                           -- RI-GTO INTEGRALS CHOSEN --
------------------------------------------------------------------------------
------------------------------------------------------------------------------
                   ___                                                        
                  /   \      - P O W E R E D   B Y -                         
                 /     \                                                     
                 |  |  |   _    _      __       _____    __    __             
                 |  |  |  | |  | |    /  \     |  _  \  |  |  /  |          
                  \  \/   | |  | |   /    \    | | | |  |  | /  /          
                 / \  \   | |__| |  /  /\  \   | |_| |  |  |/  /          
                |  |  |   |  __  | /  /__\  \  |    /   |      \           
                |  |  |   | |  | | |   __   |  |    \   |  |\   \          
                \     /   | |  | | |  |  |  |  | |\  \  |  | \   \       
                 \___/    |_|  |_| |__|  |__|  |_| \__\ |__|  \__/        
                                                                              
                      - O R C A' S   B I G   F R I E N D -                    
                                      &                                       
                       - I N T E G R A L  F E E D E R -                       
                                                                              
 v1 FN, 2020, v2 2021, v3 2022-2024                                           
------------------------------------------------------------------------------


----------------------
SHARK INTEGRAL PACKAGE
----------------------

Number of atoms                             ...     31
Number of basis functions                   ...    303
Number of shells                            ...    143
Maximum angular momentum                    ...      2
Integral batch strategy                     ... SHARK/LIBINT Hybrid
RI-J (if used) integral strategy            ... SPLIT-RIJ (Revised 2003 algorithm where possible)
Printlevel                                  ...      1
Contraction scheme used                     ... SEGMENTED contraction
Prescreening option                         ... SCHWARTZ
   Thresh                                   ... 2.500e-11
   Tcut                                     ... 2.500e-12
   Tpresel                                  ... 2.500e-12 
Coulomb Range Separation                    ... NOT USED
Exchange Range Separation                   ... NOT USED
Multipole approximations                    ... NOT USED
Finite Nucleus Model                        ... NOT USED
CABS basis                                  ... NOT available
Auxiliary Coulomb fitting basis             ... AVAILABLE
   # of basis functions in Aux-J            ...    951
   # of shells in Aux-J                     ...    317
   Maximum angular momentum in Aux-J        ...      4
Auxiliary J/K fitting basis                 ... NOT available
Auxiliary Correlation fitting basis         ... NOT available
Auxiliary 'external' fitting basis          ... NOT available

Checking pre-screening integrals            ... done (  0.0 sec) Dimension = 143
Check shell pair data                       ... done (  0.0 sec)
Shell pair information
Shell pair cut-off parameter TPreSel        ...   2.5e-12
Total number of shell pairs                 ...     10296
Shell pairs after pre-screening             ...      8450
Total number of primitive shell pairs       ...     37664
Primitive shell pairs kept                  ...     20327
          la=0 lb=0:   2646 shell pairs
          la=1 lb=0:   3153 shell pairs
          la=1 lb=1:    966 shell pairs
          la=2 lb=0:    999 shell pairs
          la=2 lb=1:    592 shell pairs
          la=2 lb=2:     94 shell pairs

Calculating one electron integrals          ... done (  0.0 sec)
Calculating RI/J V-Matrix + Cholesky decomp.... done (  0.0 sec)
Calculating Nuclear repulsion               ... done (  0.0 sec) ENN=   1113.532606122095 Eh

Diagonalization of the overlap matrix:
Smallest eigenvalue                        ... 2.684e-04
Time for diagonalization                   ...    0.011 sec
Threshold for overlap eigenvalues          ... 1.000e-07
Number of eigenvalues below threshold      ... 0
Time for construction of square roots      ...    0.008 sec
Total time needed                          ...    0.020 sec

-------------------
DFT GRID GENERATION
-------------------

General Integration Accuracy     IntAcc      ... 4.388
Radial Grid Type                 RadialGrid  ... OptM3 with GC (2021)
Angular Grid (max. ang.)         AngularGrid ... 4 (Lebedev-302)
Angular grid pruning method      GridPruning ... 4 (adaptive)
Weight generation scheme         WeightScheme... mBecke (2022)
Basis function cutoff            BFCut       ... 1.0000e-11
Integration weight cutoff        WCut        ... 1.0000e-14
Partially contracted basis set               ... off
Rotationally invariant grid construction     ... off
Angular grids for H and He will be reduced by one unit

Total number of grid points                  ...   144804
Total number of batches                      ...     2277
Average number of points per batch           ...       63
Average number of grid points per atom       ...     4671
Initializing property integral containers    ... done (  0.0 sec)

SHARK setup successfully completed in   1.1 seconds

Maximum memory used throughout the entire STARTUP-calculation: 38.1 MB


           ************************************************************
           *        Program running with 6 parallel MPI-processes     *
           *              working on a common directory               *
           ************************************************************
-------------------------------------------------------------------------------
                                 ORCA GUESS
                   Start orbitals & Density for SCF / CASSCF
-------------------------------------------------------------------------------

------------
SCF SETTINGS
------------
Hamiltonian:
 Density Functional     Method          .... DFT(GTOs)
 Exchange Functional    Exchange        .... B88
   X-Alpha parameter    XAlpha          ....  0.666667
   Becke's b parameter  XBeta           ....  0.004200
 Correlation Functional Correlation     .... LYP
 LDA part of GGA corr.  LDAOpt          .... VWN-5
 Gradients option       PostSCFGGA      .... off
 Hybrid DFT is turned on
   Fraction HF Exchange ScalHFX         ....  0.200000
   Scaling of DF-GGA-X  ScalDFX         ....  0.720000
   Scaling of DF-GGA-C  ScalDFC         ....  0.810000
   Scaling of DF-LDA-C  ScalLDAC        ....  1.000000
   Perturbative correction              ....  0.000000
   NL short-range parameter             ....  4.800000
 RI-approximation to the Coulomb term is turned on
   Number of AuxJ basis functions       .... 951
   RIJ-ON(X) (HFX calculated with O(N)) .... on


General Settings:
 Integral files         IntName         .... data/geom_opt/137699/137699
 Hartree-Fock type      HFTyp           .... RHF
 Total Charge           Charge          ....    0
 Multiplicity           Mult            ....    1
 Number of Electrons    NEL             ....  120
 Basis Dimension        Dim             ....  303
 Nuclear Repulsion      ENuc            ....   1113.5326061221 Eh

Convergence Acceleration:
 AO-DIIS                CNVDIIS         .... on
   Start iteration      DIISMaxIt       ....    12
   Startup error        DIISStart       ....  0.200000
   # of expansion vecs  DIISMaxEq       ....     5
   Bias factor          DIISBfac        ....   1.050
   Max. coefficient     DIISMaxC        ....  10.000
 MO-DIIS                CNVKDIIS        .... off
 Trust-Rad. Augm. Hess. CNVTRAH         .... auto
   Auto Start mean grad. ratio tolernc. ....  1.125000
   Auto Start start iteration           ....    50
   Auto Start num. interpolation iter.  ....    10
   Max. Number of Micro iterations      ....    24
   Max. Number of Macro iterations      .... Maxiter - #DIIS iter
   Number of Davidson start vectors     ....     2
   Converg. threshold    (grad. norm)   ....   1.000e-05
   Grad. Scal. Fac. for Micro threshold ....   0.100
   Minimum threshold for Micro iter.    ....   1.000e-02
   NR start threshold (gradient norm)   ....   1.000e-04
   Initial trust radius                 ....   0.400
   Minimum AH scaling param. (alpha)    ....   1.000
   Maximum AH scaling param. (alpha)    .... 1000.000
   Quad. conv. algorithm                .... NR
   White noise on init. David. guess    .... on
   Maximum white noise                  ....   0.010
   Pseudo random numbers                .... off
   Inactive MOs                         .... canonical
   Orbital update algorithm             .... Taylor
   Preconditioner                       .... Diag
   Full preconditioner red. dimension   ....   250
   COSX micro iterations for RIJONX calc.... off
 SOSCF                  CNVSOSCF        .... on
   Start iteration      SOSCFMaxIt      ....   150
   Startup grad/error   SOSCFStart      ....  0.003300
   Hessian update       SOSCFHessUp     .... L-BFGS
 Level Shifting         CNVShift        .... on
   Level shift para.    LevelShift      ....    0.2500
   Turn off err/grad.   ShiftErr        ....    0.0010
 Zerner damping         CNVZerner       .... off
 Static damping         CNVDamp         .... on
   Fraction old density DampFac         ....    0.7000
   Max. Damping (<1)    DampMax         ....    0.9800
   Min. Damping (>=0)   DampMin         ....    0.0000
   Turn off err/grad.   DampErr         ....    0.1000

SCF Procedure:
 Maximum # iterations   MaxIter         ....   125
 SCF integral mode      SCFMode         .... Direct
   Integral package                     .... SHARK and LIBINT hybrid scheme
 Reset frequency        DirectResetFreq ....    20
 Integral Threshold     Thresh          ....  2.500e-11 Eh
 Primitive CutOff       TCut            ....  2.500e-12 Eh

Convergence Tolerance:
 Convergence Check Mode ConvCheckMode   .... Total+1el-Energy
 Convergence forced     ConvForced      .... 0
 Energy Change          TolE            ....  1.000e-08 Eh
 1-El. energy change                    ....  1.000e-05 Eh
 Orbital Gradient       TolG            ....  1.000e-05
 Orbital Rotation angle TolX            ....  1.000e-05
 DIIS Error             TolErr          ....  5.000e-07

------------------------------
INITIAL GUESS: MODEL POTENTIAL
------------------------------
Loading Hartree-Fock densities                     ... done
Calculating cut-offs                               ... done
Initializing the effective Hamiltonian             ... done
Setting up the integral package (SHARK)            ... done
Starting the Coulomb interaction                   ... done (   0.1 sec)
Making the grid                                    ... done (   0.2 sec)
Mapping shells                                     ... done
Starting the XC term evaluation                    ... done (   0.1 sec)
  promolecular density results
     # of electrons  =    119.993185450
     EX              =   -104.182336240
     EC              =     -4.085963083
     EX+EC           =   -108.268299324
Transforming the Hamiltonian                       ... done (   0.0 sec)
Diagonalizing the Hamiltonian                      ... done (   0.0 sec)
Back transforming the eigenvectors                 ... done (   0.0 sec)
Now organizing SCF variables                       ... done
                      ------------------
                      INITIAL GUESS DONE (   0.5 sec)
                      ------------------
             **** ENERGY FILE WAS UPDATED (data/geom_opt/137699/137699.en.tmp) ****
Finished Guess after   0.6 sec
Maximum memory used throughout the entire GUESS-calculation: 21.2 MB


           ************************************************************
           *        Program running with 6 parallel MPI-processes     *
           *              working on a common directory               *
           ************************************************************

-------------------------------------------------------------------------------------------
                                      ORCA LEAN-SCF
                              memory conserving SCF solver
-------------------------------------------------------------------------------------------

----------------------------------------D-I-I-S--------------------------------------------
Iteration    Energy (Eh)           Delta-E    RMSDP     MaxDP     DIISErr   Damp  Time(sec)
-------------------------------------------------------------------------------------------
               ***  Starting incremental Fock matrix formation  ***
    1    -920.6410964695528492     0.00e+00  2.61e-03  7.40e-02  1.53e-01  0.700   3.1
    2    -920.8038812348854663    -1.63e-01  1.87e-03  4.69e-02  8.21e-02  0.700   3.0
                               ***Turning on AO-DIIS***
    3    -920.8745552933382896    -7.07e-02  8.92e-04  3.56e-02  3.28e-02  0.700   2.9
    4    -920.9152419527688380    -4.07e-02  1.73e-03  8.16e-02  1.66e-02  0.000   2.9
    5    -921.0022212105855033    -8.70e-02  2.31e-04  1.26e-02  5.36e-03  0.000   2.7
                              *** Initializing SOSCF ***
---------------------------------------S-O-S-C-F--------------------------------------
Iteration    Energy (Eh)           Delta-E    RMSDP     MaxDP     MaxGrad    Time(sec)
--------------------------------------------------------------------------------------
    6    -921.0027225984558754    -5.01e-04  7.97e-05  2.17e-03  1.34e-03     2.4
               *** Restarting incremental Fock matrix formation ***
    7    -921.0027576976062846    -3.51e-05  5.65e-05  2.31e-03  1.68e-04     3.4
    8    -921.0027567071265366     9.90e-07  2.09e-05  6.44e-04  3.81e-04     2.4
    9    -921.0027615708302164    -4.86e-06  1.35e-05  5.94e-04  9.34e-05     2.2
   10    -921.0027614450555120     1.26e-07  6.31e-06  1.78e-04  6.38e-05     2.0
   11    -921.0027619641730325    -5.19e-07  3.24e-06  1.92e-04  2.02e-05     2.0
   12    -921.0027619511824923     1.30e-08  1.90e-06  8.21e-05  3.32e-05     1.7
   13    -921.0027619791326288    -2.80e-08  6.32e-07  4.48e-05  1.92e-06     1.6
                  *** Gradient check signals convergence ***

               *****************************************************
               *                     SUCCESS                       *
               *           SCF CONVERGED AFTER  13 CYCLES          *
               *****************************************************

             **** ENERGY FILE WAS UPDATED (data/geom_opt/137699/137699.en.tmp) ****

----------------
TOTAL SCF ENERGY
----------------

Total Energy       :       -921.00276197913263 Eh          -25061.75927 eV

Components:
Nuclear Repulsion  :       1113.53260612209533 Eh           30300.76267 eV
Electronic Energy  :      -2034.53536810122796 Eh          -55362.52194 eV
One Electron Energy:      -3465.90618357262656 Eh          -94312.10199 eV
Two Electron Energy:       1431.37081547139860 Eh           38949.58005 eV

Virial components:
Potential Energy   :      -1834.89871824783700 Eh          -49930.13252 eV
Kinetic Energy     :        913.89595626870437 Eh           24868.37325 eV
Virial Ratio       :          2.00777638380133

DFT components:
N(Alpha)           :       59.999923076481 electrons
N(Beta)            :       59.999923076481 electrons
N(Total)           :      119.999846152963 electrons
E(X)               :      -83.796486342843 Eh       
E(C)               :       -4.821384100146 Eh       
E(XC)              :      -88.617870442990 Eh       

---------------
SCF CONVERGENCE
---------------

  Last Energy change         ...    2.7950e-08  Tolerance :   1.0000e-08
  Last MAX-Density change    ...    4.4766e-05  Tolerance :   1.0000e-07
  Last RMS-Density change    ...    6.3198e-07  Tolerance :   5.0000e-09
  Last DIIS Error            ...    1.3367e-03  Tolerance :   5.0000e-07
  Last Orbital Gradient      ...    1.9244e-06  Tolerance :   1.0000e-05
  Last Orbital Rotation      ...    5.8389e-06  Tolerance :   1.0000e-05


----------------
ORBITAL ENERGIES
----------------

  NO   OCC          E(Eh)            E(eV) 
   0   2.0000     -77.043565     -2096.4620 
   1   2.0000     -10.191773      -277.3322 
   2   2.0000     -10.191247      -277.3179 
   3   2.0000     -10.190985      -277.3108 
   4   2.0000     -10.189916      -277.2817 
   5   2.0000     -10.189877      -277.2806 
   6   2.0000     -10.189755      -277.2773 
   7   2.0000     -10.189625      -277.2738 
   8   2.0000     -10.189125      -277.2602 
   9   2.0000     -10.188960      -277.2557 
  10   2.0000     -10.188085      -277.2319 
  11   2.0000     -10.186537      -277.1898 
  12   2.0000     -10.186504      -277.1889 
  13   2.0000     -10.185789      -277.1694 
  14   2.0000     -10.184137      -277.1244 
  15   2.0000     -10.176364      -276.9129 
  16   2.0000      -6.541075      -177.9917 
  17   2.0000      -4.706629      -128.0739 
  18   2.0000      -4.706362      -128.0666 
  19   2.0000      -4.703298      -127.9833 
  20   2.0000      -0.850566       -23.1451 
  21   2.0000      -0.843344       -22.9486 
  22   2.0000      -0.793007       -21.5788 
  23   2.0000      -0.753057       -20.4917 
  24   2.0000      -0.738620       -20.0989 
  25   2.0000      -0.735699       -20.0194 
  26   2.0000      -0.732462       -19.9313 
  27   2.0000      -0.690372       -18.7860 
  28   2.0000      -0.624322       -16.9887 
  29   2.0000      -0.600497       -16.3404 
  30   2.0000      -0.596706       -16.2372 
  31   2.0000      -0.590393       -16.0654 
  32   2.0000      -0.556599       -15.1458 
  33   2.0000      -0.544265       -14.8102 
  34   2.0000      -0.516120       -14.0443 
  35   2.0000      -0.497538       -13.5387 
  36   2.0000      -0.468605       -12.7514 
  37   2.0000      -0.455633       -12.3984 
  38   2.0000      -0.451060       -12.2740 
  39   2.0000      -0.447777       -12.1846 
  40   2.0000      -0.441625       -12.0172 
  41   2.0000      -0.433488       -11.7958 
  42   2.0000      -0.421326       -11.4649 
  43   2.0000      -0.417387       -11.3577 
  44   2.0000      -0.414272       -11.2729 
  45   2.0000      -0.396346       -10.7851 
  46   2.0000      -0.374620       -10.1939 
  47   2.0000      -0.370634       -10.0855 
  48   2.0000      -0.365596        -9.9484 
  49   2.0000      -0.353101        -9.6084 
  50   2.0000      -0.347514        -9.4563 
  51   2.0000      -0.345629        -9.4050 
  52   2.0000      -0.336695        -9.1619 
  53   2.0000      -0.321208        -8.7405 
  54   2.0000      -0.273108        -7.4317 
  55   2.0000      -0.257569        -7.0088 
  56   2.0000      -0.257379        -7.0036 
  57   2.0000      -0.252336        -6.8664 
  58   2.0000      -0.250103        -6.8056 
  59   2.0000      -0.211900        -5.7661 
  60   0.0000      -0.024226        -0.6592 
  61   0.0000      -0.014899        -0.4054 
  62   0.0000      -0.011508        -0.3131 
  63   0.0000      -0.002553        -0.0695 
  64   0.0000       0.009809         0.2669 
  65   0.0000       0.062110         1.6901 
  66   0.0000       0.063595         1.7305 
  67   0.0000       0.069877         1.9014 
  68   0.0000       0.085592         2.3291 
  69   0.0000       0.096917         2.6372 
  70   0.0000       0.101234         2.7547 
*Only the first 10 virtual orbitals were printed.

                    ********************************
                    * MULLIKEN POPULATION ANALYSIS *
                    ********************************

-----------------------
MULLIKEN ATOMIC CHARGES
-----------------------
   0 C :   -0.007051
   1 C :   -0.082230
   2 C :   -0.044356
   3 P :    0.248783
   4 C :   -0.128987
   5 C :    0.027922
   6 C :    0.021080
   7 C :    0.029444
   8 C :    0.024810
   9 C :    0.030321
  10 C :   -0.091481
  11 C :   -0.012933
  12 C :    0.030672
  13 C :    0.021018
  14 C :    0.025197
  15 C :    0.008320
  16 H :    0.011300
  17 H :    0.017012
  18 H :    0.011110
  19 H :    0.052449
  20 H :    0.021706
  21 H :   -0.022438
  22 H :   -0.019142
  23 H :   -0.018290
  24 H :   -0.021100
  25 H :   -0.013849
  26 H :   -0.032684
  27 H :   -0.023985
  28 H :   -0.022544
  29 H :   -0.021340
  30 H :   -0.018733
Sum of atomic charges:   -0.0000000

--------------------------------
MULLIKEN REDUCED ORBITAL CHARGES
--------------------------------
  0 C s       :     3.095369  s :     3.095369
      pz      :     0.922006  p :     2.885061
      px      :     0.985453
      py      :     0.977601
      dz2     :     0.007864  d :     0.026621
      dxz     :     0.006106
      dyz     :     0.004257
      dx2y2   :     0.004227
      dxy     :     0.004167

  1 C s       :     3.154626  s :     3.154626
      pz      :     0.952649  p :     2.890846
      px      :     0.981616
      py      :     0.956581
      dz2     :     0.010610  d :     0.036758
      dxz     :     0.006986
      dyz     :     0.004872
      dx2y2   :     0.008198
      dxy     :     0.006092

  2 C s       :     3.013763  s :     3.013763
      pz      :     0.994225  p :     2.999385
      px      :     0.997987
      py      :     1.007173
      dz2     :     0.008037  d :     0.031208
      dxz     :     0.005677
      dyz     :     0.005112
      dx2y2   :     0.007780
      dxy     :     0.004603

  3 P s       :     5.728894  s :     5.728894
      pz      :     3.304371  p :     8.840810
      px      :     2.762020
      py      :     2.774419
      dz2     :     0.017723  d :     0.181513
      dxz     :     0.046675
      dyz     :     0.028280
      dx2y2   :     0.043140
      dxy     :     0.045695

  4 C s       :     3.073758  s :     3.073758
      pz      :     1.000853  p :     3.018634
      px      :     1.007297
      py      :     1.010484
      dz2     :     0.010046  d :     0.036594
      dxz     :     0.012032
      dyz     :     0.005540
      dx2y2   :     0.004817
      dxy     :     0.004160

  5 C s       :     3.223050  s :     3.223050
      pz      :     0.824576  p :     2.713923
      px      :     0.930285
      py      :     0.959062
      dz2     :     0.009830  d :     0.035105
      dxz     :     0.010264
      dyz     :     0.002823
      dx2y2   :     0.005878
      dxy     :     0.006311

  6 C s       :     3.160185  s :     3.160185
      pz      :     0.934563  p :     2.783769
      px      :     0.870108
      py      :     0.979098
      dz2     :     0.009640  d :     0.034967
      dxz     :     0.011915
      dyz     :     0.005775
      dx2y2   :     0.004091
      dxy     :     0.003546

  7 C s       :     3.157523  s :     3.157523
      pz      :     0.927382  p :     2.777594
      px      :     0.879983
      py      :     0.970228
      dz2     :     0.009170  d :     0.035439
      dxz     :     0.012444
      dyz     :     0.005682
      dx2y2   :     0.004436
      dxy     :     0.003706

  8 C s       :     3.160065  s :     3.160065
      pz      :     0.831695  p :     2.780026
      px      :     0.962768
      py      :     0.985563
      dz2     :     0.010012  d :     0.035098
      dxz     :     0.010218
      dyz     :     0.002883
      dx2y2   :     0.005870
      dxy     :     0.006115

  9 C s       :     3.210488  s :     3.210488
      pz      :     0.931794  p :     2.723983
      px      :     0.839133
      py      :     0.953055
      dz2     :     0.009364  d :     0.035208
      dxz     :     0.012286
      dyz     :     0.005899
      dx2y2   :     0.004037
      dxy     :     0.003621

 10 C s       :     3.056067  s :     3.056067
      pz      :     0.978069  p :     2.998942
      px      :     1.008168
      py      :     1.012705
      dz2     :     0.004205  d :     0.036472
      dxz     :     0.005946
      dyz     :     0.005909
      dx2y2   :     0.009958
      dxy     :     0.010454

 11 C s       :     3.214234  s :     3.214234
      pz      :     0.979362  p :     2.763772
      px      :     0.941856
      py      :     0.842554
      dz2     :     0.004176  d :     0.034927
      dxz     :     0.006467
      dyz     :     0.003766
      dx2y2   :     0.010816
      dxy     :     0.009702

 12 C s       :     3.154661  s :     3.154661
      pz      :     0.977097  p :     2.779336
      px      :     0.859645
      py      :     0.942594
      dz2     :     0.004298  d :     0.035330
      dxz     :     0.003896
      dyz     :     0.006621
      dx2y2   :     0.010166
      dxy     :     0.010350

 13 C s       :     3.156818  s :     3.156818
      pz      :     0.957966  p :     2.786775
      px      :     0.903920
      py      :     0.924889
      dz2     :     0.002981  d :     0.035389
      dxz     :     0.005349
      dyz     :     0.005991
      dx2y2   :     0.009861
      dxy     :     0.011206

 14 C s       :     3.157978  s :     3.157978
      pz      :     0.973972  p :     2.781407
      px      :     0.961239
      py      :     0.846197
      dz2     :     0.004314  d :     0.035417
      dxz     :     0.006519
      dyz     :     0.003994
      dx2y2   :     0.011051
      dxy     :     0.009539

 15 C s       :     3.211465  s :     3.211465
      pz      :     0.962540  p :     2.745466
      px      :     0.855024
      py      :     0.927902
      dz2     :     0.004149  d :     0.034749
      dxz     :     0.003824
      dyz     :     0.006370
      dx2y2   :     0.009896
      dxy     :     0.010511

 16 H s       :     0.964872  s :     0.964872
      pz      :     0.014692  p :     0.023828
      px      :     0.004454
      py      :     0.004681

 17 H s       :     0.959140  s :     0.959140
      pz      :     0.007284  p :     0.023849
      px      :     0.009233
      py      :     0.007332

 18 H s       :     0.966225  s :     0.966225
      pz      :     0.014789  p :     0.022665
      px      :     0.003784
      py      :     0.004092

 19 H s       :     0.923883  s :     0.923883
      pz      :     0.006037  p :     0.023668
      px      :     0.012061
      py      :     0.005571

 20 H s       :     0.955515  s :     0.955515
      pz      :     0.013981  p :     0.022780
      px      :     0.004096
      py      :     0.004703

 21 H s       :     0.999319  s :     0.999319
      pz      :     0.015031  p :     0.023119
      px      :     0.003474
      py      :     0.004613

 22 H s       :     0.996133  s :     0.996133
      pz      :     0.005780  p :     0.023009
      px      :     0.011872
      py      :     0.005357

 23 H s       :     0.995342  s :     0.995342
      pz      :     0.006794  p :     0.022948
      px      :     0.011272
      py      :     0.004881

 24 H s       :     0.998106  s :     0.998106
      pz      :     0.014790  p :     0.022993
      px      :     0.003489
      py      :     0.004715

 25 H s       :     0.990697  s :     0.990697
      pz      :     0.005963  p :     0.023152
      px      :     0.011930
      py      :     0.005259

 26 H s       :     1.009392  s :     1.009392
      pz      :     0.005269  p :     0.023292
      px      :     0.004501
      py      :     0.013523

 27 H s       :     1.000980  s :     1.000980
      pz      :     0.005050  p :     0.023005
      px      :     0.012747
      py      :     0.005208

 28 H s       :     0.999519  s :     0.999519
      pz      :     0.006954  p :     0.023025
      px      :     0.008914
      py      :     0.007156

 29 H s       :     0.998352  s :     0.998352
      pz      :     0.005010  p :     0.022988
      px      :     0.004104
      py      :     0.013873

 30 H s       :     0.995534  s :     0.995534
      pz      :     0.005055  p :     0.023199
      px      :     0.012681
      py      :     0.005463



                     *******************************
                     * LOEWDIN POPULATION ANALYSIS *
                     *******************************

----------------------
LOEWDIN ATOMIC CHARGES
----------------------
   0 C :   -0.057747
   1 C :   -0.042973
   2 C :   -0.167232
   3 P :    0.508715
   4 C :   -0.174877
   5 C :   -0.022051
   6 C :   -0.025390
   7 C :   -0.017208
   8 C :   -0.025247
   9 C :   -0.018153
  10 C :   -0.175567
  11 C :   -0.041479
  12 C :   -0.023633
  13 C :   -0.029032
  14 C :   -0.022811
  15 C :   -0.028237
  16 H :    0.018944
  17 H :    0.021603
  18 H :    0.024606
  19 H :    0.032781
  20 H :    0.020898
  21 H :    0.023269
  22 H :    0.026149
  23 H :    0.026072
  24 H :    0.025702
  25 H :    0.024555
  26 H :    0.019201
  27 H :    0.024828
  28 H :    0.024397
  29 H :    0.025817
  30 H :    0.024098

-------------------------------
LOEWDIN REDUCED ORBITAL CHARGES
-------------------------------
  0 C s       :     2.883724  s :     2.883724
      pz      :     1.047822  p :     3.104414
      px      :     1.037489
      py      :     1.019103
      dz2     :     0.020998  d :     0.069608
      dxz     :     0.016550
      dyz     :     0.011354
      dx2y2   :     0.008462
      dxy     :     0.012244

  1 C s       :     2.880327  s :     2.880327
      pz      :     1.051782  p :     3.071752
      px      :     1.025017
      py      :     0.994954
      dz2     :     0.026574  d :     0.090894
      dxz     :     0.018962
      dyz     :     0.012827
      dx2y2   :     0.016184
      dxy     :     0.016348

  2 C s       :     2.881432  s :     2.881432
      pz      :     1.074101  p :     3.207836
      px      :     1.052113
      py      :     1.081622
      dz2     :     0.020589  d :     0.077964
      dxz     :     0.013754
      dyz     :     0.012270
      dx2y2   :     0.019555
      dxy     :     0.011796

  3 P s       :     5.256694  s :     5.256694
      pz      :     3.385988  p :     8.988157
      px      :     2.798677
      py      :     2.803492
      dz2     :     0.024606  d :     0.246434
      dxz     :     0.064382
      dyz     :     0.035507
      dx2y2   :     0.059446
      dxy     :     0.062492

  4 C s       :     2.912106  s :     2.912106
      pz      :     1.095562  p :     3.170547
      px      :     1.077451
      py      :     0.997534
      dz2     :     0.028216  d :     0.092223
      dxz     :     0.032439
      dyz     :     0.012061
      dx2y2   :     0.011010
      dxy     :     0.008496

  5 C s       :     2.867638  s :     2.867638
      pz      :     1.042073  p :     3.062679
      px      :     1.062031
      py      :     0.958575
      dz2     :     0.026589  d :     0.091734
      dxz     :     0.028951
      dyz     :     0.005589
      dx2y2   :     0.016038
      dxy     :     0.014567

  6 C s       :     2.860345  s :     2.860345
      pz      :     1.061817  p :     3.074325
      px      :     1.039545
      py      :     0.972964
      dz2     :     0.027500  d :     0.090720
      dxz     :     0.033193
      dyz     :     0.012664
      dx2y2   :     0.010042
      dxy     :     0.007321

  7 C s       :     2.860255  s :     2.860255
      pz      :     1.061159  p :     3.065229
      px      :     1.041886
      py      :     0.962184
      dz2     :     0.026206  d :     0.091724
      dxz     :     0.034126
      dyz     :     0.012537
      dx2y2   :     0.010940
      dxy     :     0.007914

  8 C s       :     2.860332  s :     2.860332
      pz      :     1.036873  p :     3.073848
      px      :     1.062244
      py      :     0.974731
      dz2     :     0.026431  d :     0.091067
      dxz     :     0.029277
      dyz     :     0.005665
      dx2y2   :     0.015678
      dxy     :     0.014016

  9 C s       :     2.864719  s :     2.864719
      pz      :     1.062676  p :     3.061373
      px      :     1.041728
      py      :     0.956968
      dz2     :     0.027084  d :     0.092061
      dxz     :     0.034635
      dyz     :     0.012991
      dx2y2   :     0.009898
      dxy     :     0.007453

 10 C s       :     2.914278  s :     2.914278
      pz      :     1.002848  p :     3.169942
      px      :     1.083922
      py      :     1.083171
      dz2     :     0.009180  d :     0.091347
      dxz     :     0.013667
      dyz     :     0.013515
      dx2y2   :     0.027455
      dxy     :     0.027532

 11 C s       :     2.861234  s :     2.861234
      pz      :     1.000611  p :     3.088515
      px      :     1.055477
      py      :     1.032427
      dz2     :     0.009227  d :     0.091730
      dxz     :     0.016519
      dyz     :     0.008970
      dx2y2   :     0.030030
      dxy     :     0.026983

 12 C s       :     2.860124  s :     2.860124
      pz      :     0.988450  p :     3.072066
      px      :     1.028158
      py      :     1.055459
      dz2     :     0.009677  d :     0.091442
      dxz     :     0.009367
      dyz     :     0.016313
      dx2y2   :     0.027801
      dxy     :     0.028284

 13 C s       :     2.858363  s :     2.858363
      pz      :     0.986027  p :     3.078761
      px      :     1.041901
      py      :     1.050833
      dz2     :     0.006868  d :     0.091908
      dxz     :     0.012598
      dyz     :     0.014211
      dx2y2   :     0.027353
      dxy     :     0.030877

 14 C s       :     2.859730  s :     2.859730
      pz      :     0.986950  p :     3.071396
      px      :     1.053822
      py      :     1.030625
      dz2     :     0.009607  d :     0.091685
      dxz     :     0.016399
      dyz     :     0.009403
      dx2y2   :     0.029756
      dxy     :     0.026520

 15 C s       :     2.863161  s :     2.863161
      pz      :     0.990116  p :     3.074181
      px      :     1.033818
      py      :     1.050248
      dz2     :     0.009095  d :     0.090894
      dxz     :     0.009200
      dyz     :     0.015986
      dx2y2   :     0.027747
      dxy     :     0.028866

 16 H s       :     0.912644  s :     0.912644
      pz      :     0.042402  p :     0.068412
      px      :     0.012592
      py      :     0.013418

 17 H s       :     0.910006  s :     0.910006
      pz      :     0.020871  p :     0.068390
      px      :     0.026457
      py      :     0.021063

 18 H s       :     0.907008  s :     0.907008
      pz      :     0.042770  p :     0.068386
      px      :     0.012347
      py      :     0.013269

 19 H s       :     0.896872  s :     0.896872
      pz      :     0.016239  p :     0.070347
      px      :     0.035905
      py      :     0.018202

 20 H s       :     0.909068  s :     0.909068
      pz      :     0.041644  p :     0.070034
      px      :     0.011842
      py      :     0.016548

 21 H s       :     0.908298  s :     0.908298
      pz      :     0.043343  p :     0.068433
      px      :     0.011142
      py      :     0.013948

 22 H s       :     0.906233  s :     0.906233
      pz      :     0.017573  p :     0.067618
      px      :     0.033932
      py      :     0.016113

 23 H s       :     0.906478  s :     0.906478
      pz      :     0.020403  p :     0.067450
      px      :     0.032292
      py      :     0.014755

 24 H s       :     0.906628  s :     0.906628
      pz      :     0.041796  p :     0.067670
      px      :     0.011467
      py      :     0.014407

 25 H s       :     0.907228  s :     0.907228
      pz      :     0.018148  p :     0.068218
      px      :     0.034387
      py      :     0.015683

 26 H s       :     0.911681  s :     0.911681
      pz      :     0.016131  p :     0.069118
      px      :     0.013882
      py      :     0.039105

 27 H s       :     0.907745  s :     0.907745
      pz      :     0.015298  p :     0.067427
      px      :     0.036128
      py      :     0.016001

 28 H s       :     0.907997  s :     0.907997
      pz      :     0.020445  p :     0.067606
      px      :     0.025923
      py      :     0.021239

 29 H s       :     0.906769  s :     0.906769
      pz      :     0.015189  p :     0.067413
      px      :     0.013007
      py      :     0.039218

 30 H s       :     0.907589  s :     0.907589
      pz      :     0.015321  p :     0.068314
      px      :     0.036345
      py      :     0.016648



                      *****************************
                      * MAYER POPULATION ANALYSIS *
                      *****************************

  NA   - Mulliken gross atomic population
  ZA   - Total nuclear charge
  QA   - Mulliken gross atomic charge
  VA   - Mayer's total valence
  BVA  - Mayer's bonded valence
  FA   - Mayer's free valence

  ATOM       NA         ZA         QA         VA         BVA        FA
  0 C      6.0071     6.0000    -0.0071     3.9710     3.9710    -0.0000
  1 C      6.0822     6.0000    -0.0822     4.0612     4.0612    -0.0000
  2 C      6.0444     6.0000    -0.0444     3.8386     3.8386    -0.0000
  3 P     14.7512    15.0000     0.2488     2.9890     2.9890    -0.0000
  4 C      6.1290     6.0000    -0.1290     3.7830     3.7830    -0.0000
  5 C      5.9721     6.0000     0.0279     3.8723     3.8723    -0.0000
  6 C      5.9789     6.0000     0.0211     3.8454     3.8454    -0.0000
  7 C      5.9706     6.0000     0.0294     3.8282     3.8282    -0.0000
  8 C      5.9752     6.0000     0.0248     3.8472     3.8472    -0.0000
  9 C      5.9697     6.0000     0.0303     3.8687     3.8687    -0.0000
 10 C      6.0915     6.0000    -0.0915     3.7450     3.7450    -0.0000
 11 C      6.0129     6.0000    -0.0129     3.8996     3.8996    -0.0000
 12 C      5.9693     6.0000     0.0307     3.8549     3.8549    -0.0000
 13 C      5.9790     6.0000     0.0210     3.8335     3.8335    -0.0000
 14 C      5.9748     6.0000     0.0252     3.8617     3.8617    -0.0000
 15 C      5.9917     6.0000     0.0083     3.8952     3.8952    -0.0000
 16 H      0.9887     1.0000     0.0113     0.9869     0.9869    -0.0000
 17 H      0.9830     1.0000     0.0170     0.9747     0.9747    -0.0000
 18 H      0.9889     1.0000     0.0111     0.9870     0.9870    -0.0000
 19 H      0.9476     1.0000     0.0524     0.9769     0.9769    -0.0000
 20 H      0.9783     1.0000     0.0217     0.9997     0.9997    -0.0000
 21 H      1.0224     1.0000    -0.0224     0.9959     0.9959    -0.0000
 22 H      1.0191     1.0000    -0.0191     0.9772     0.9772    -0.0000
 23 H      1.0183     1.0000    -0.0183     0.9769     0.9769    -0.0000
 24 H      1.0211     1.0000    -0.0211     0.9772     0.9772    -0.0000
 25 H      1.0138     1.0000    -0.0138     0.9893     0.9893    -0.0000
 26 H      1.0327     1.0000    -0.0327     0.9897     0.9897    -0.0000
 27 H      1.0240     1.0000    -0.0240     0.9763     0.9763    -0.0000
 28 H      1.0225     1.0000    -0.0225     0.9767     0.9767    -0.0000
 29 H      1.0213     1.0000    -0.0213     0.9767     0.9767    -0.0000
 30 H      1.0187     1.0000    -0.0187     0.9904     0.9904    -0.0000

  Mayer bond orders larger than 0.100000
B(  0-C ,  1-C ) :   2.0135 B(  0-C , 16-H ) :   0.9541 B(  0-C , 17-H ) :   0.9528 
B(  1-C ,  2-C ) :   1.0161 B(  1-C , 18-H ) :   0.9559 B(  2-C ,  3-P ) :   0.9632 
B(  2-C , 19-H ) :   0.9208 B(  2-C , 20-H ) :   0.9222 B(  3-P ,  4-C ) :   0.9391 
B(  3-P , 10-C ) :   0.9068 B(  4-C ,  5-C ) :   1.3817 B(  4-C ,  9-C ) :   1.3581 
B(  5-C ,  6-C ) :   1.3839 B(  5-C , 21-H ) :   0.9883 B(  6-C ,  7-C ) :   1.3895 
B(  6-C , 22-H ) :   0.9869 B(  7-C ,  8-C ) :   1.3721 B(  7-C , 23-H ) :   0.9861 
B(  8-C ,  9-C ) :   1.4052 B(  8-C , 24-H ) :   0.9856 B(  9-C , 25-H ) :   0.9808 
B( 10-C , 11-C ) :   1.3736 B( 10-C , 15-C ) :   1.3681 B( 11-C , 12-C ) :   1.3961 
B( 11-C , 26-H ) :   0.9819 B( 12-C , 13-C ) :   1.3895 B( 12-C , 27-H ) :   0.9830 
B( 13-C , 14-C ) :   1.3734 B( 13-C , 28-H ) :   0.9859 B( 14-C , 15-C ) :   1.4161 
B( 14-C , 29-H ) :   0.9859 B( 15-C , 30-H ) :   0.9824 

-------
TIMINGS
-------

Total SCF time: 0 days 0 hours 0 min 32 sec 

Total time                  ....      32.448 sec
Sum of individual times     ....      32.386 sec  ( 99.8%)

SCF preparation             ....       0.103 sec  (  0.3%)
Fock matrix formation       ....      31.603 sec  ( 97.4%)
  Startup                   ....       0.035 sec  (  0.1% of F)
  Exchange formation        ....      23.914 sec  ( 75.7% of F)
  Split-RI-J                ....       2.609 sec  (  8.3% of F)
  XC integration            ....       4.885 sec  ( 15.5% of F)
    Basis function eval.    ....       1.431 sec  ( 29.3% of XC)
    Density eval.           ....       1.314 sec  ( 26.9% of XC)
    XC-Functional eval.     ....       0.118 sec  (  2.4% of XC)
    XC-Potential eval.      ....       1.098 sec  ( 22.5% of XC)
Diagonalization             ....       0.000 sec  (  0.0%)
Density matrix formation    ....       0.095 sec  (  0.3%)
Total Energy calculation    ....       0.038 sec  (  0.1%)
Population analysis         ....       0.051 sec  (  0.2%)
Orbital Transformation      ....       0.054 sec  (  0.2%)
Orbital Orthonormalization  ....       0.000 sec  (  0.0%)
DIIS solution               ....       0.255 sec  (  0.8%)
SOSCF solution              ....       0.187 sec  (  0.6%)
Finished LeanSCF after  32.5 sec

Maximum memory used throughout the entire LEANSCF-calculation: 30.4 MB


-------------------------------------------------------------------------------
                          DFT DISPERSION CORRECTION                            
                                                                               
                              DFTD3 V3.1  Rev 1                                
                          USING Becke-Johnson damping                          
-------------------------------------------------------------------------------
[...]
      dx2y2   :     0.011390
      dxy     :     0.005639

  7 C s       :     2.864286  s :     2.864286
      pz      :     1.056920  p :     3.068403
      px      :     1.047557
      py      :     0.963927
      dz2     :     0.025188  d :     0.089997
      dxz     :     0.035133
      dyz     :     0.010357
      dx2y2   :     0.011776
      dxy     :     0.007544

  8 C s       :     2.863391  s :     2.863391
      pz      :     1.035775  p :     3.073701
      px      :     1.067187
      py      :     0.970739
      dz2     :     0.025839  d :     0.090280
      dxz     :     0.030561
      dyz     :     0.004253
      dx2y2   :     0.016101
      dxy     :     0.013526

  9 C s       :     2.866472  s :     2.866472
      pz      :     1.061865  p :     3.070341
      px      :     1.047625
      py      :     0.960850
      dz2     :     0.028210  d :     0.091460
      dxz     :     0.034048
      dyz     :     0.012121
      dx2y2   :     0.011250
      dxy     :     0.005832

 10 C s       :     2.916961  s :     2.916961
      pz      :     1.015219  p :     3.167577
      px      :     1.066233
      py      :     1.086125
      dz2     :     0.010491  d :     0.090387
      dxz     :     0.012824
      dyz     :     0.016540
      dx2y2   :     0.025780
      dxy     :     0.024752

 11 C s       :     2.864633  s :     2.864633
      pz      :     1.002496  p :     3.084809
      px      :     1.043875
      py      :     1.038438
      dz2     :     0.011948  d :     0.091414
      dxz     :     0.016160
      dyz     :     0.011529
      dx2y2   :     0.029247
      dxy     :     0.022531

 12 C s       :     2.863191  s :     2.863191
      pz      :     0.991095  p :     3.070871
      px      :     1.019455
      py      :     1.060320
      dz2     :     0.008797  d :     0.090455
      dxz     :     0.010306
      dyz     :     0.018480
      dx2y2   :     0.025271
      dxy     :     0.027600

 13 C s       :     2.863619  s :     2.863619
      pz      :     0.989010  p :     3.071637
      px      :     1.022710
      py      :     1.059917
      dz2     :     0.007985  d :     0.089877
      dxz     :     0.010873
      dyz     :     0.017767
      dx2y2   :     0.025532
      dxy     :     0.027719

 14 C s       :     2.863070  s :     2.863070
      pz      :     0.996670  p :     3.069915
      px      :     1.037155
      py      :     1.036090
      dz2     :     0.012122  d :     0.090423
      dxz     :     0.015797
      dyz     :     0.011945
      dx2y2   :     0.027957
      dxy     :     0.022602

 15 C s       :     2.865743  s :     2.865743
      pz      :     0.992141  p :     3.069814
      px      :     1.020134
      py      :     1.057539
      dz2     :     0.009014  d :     0.091129
      dxz     :     0.010531
      dyz     :     0.018303
      dx2y2   :     0.025307
      dxy     :     0.027973

 16 H s       :     0.909859  s :     0.909859
      pz      :     0.042046  p :     0.067094
      px      :     0.011649
      py      :     0.013399

 17 H s       :     0.909491  s :     0.909491
      pz      :     0.019198  p :     0.067003
      px      :     0.025800
      py      :     0.022005

 18 H s       :     0.909345  s :     0.909345
      pz      :     0.041571  p :     0.066241
      px      :     0.011919
      py      :     0.012750

 19 H s       :     0.902285  s :     0.902285
      pz      :     0.016600  p :     0.068713
      px      :     0.035880
      py      :     0.016234

 20 H s       :     0.908150  s :     0.908150
      pz      :     0.041365  p :     0.069304
      px      :     0.011705
      py      :     0.016234

 21 H s       :     0.909784  s :     0.909784
      pz      :     0.042424  p :     0.067548
      px      :     0.011035
      py      :     0.014089

 22 H s       :     0.906659  s :     0.906659
      pz      :     0.015851  p :     0.066504
      px      :     0.036482
      py      :     0.014170

 23 H s       :     0.907027  s :     0.907027
      pz      :     0.021638  p :     0.066486
      px      :     0.030870
      py      :     0.013979

 24 H s       :     0.907070  s :     0.907070
      pz      :     0.040927  p :     0.066509
      px      :     0.011238
      py      :     0.014343

 25 H s       :     0.903733  s :     0.903733
      pz      :     0.015811  p :     0.068790
      px      :     0.038917
      py      :     0.014062

 26 H s       :     0.908185  s :     0.908185
      pz      :     0.013811  p :     0.068670
      px      :     0.012329
      py      :     0.042530

 27 H s       :     0.906673  s :     0.906673
      pz      :     0.018894  p :     0.066498
      px      :     0.029187
      py      :     0.018418

 28 H s       :     0.906408  s :     0.906408
      pz      :     0.020906  p :     0.066609
      px      :     0.026975
      py      :     0.018728

 29 H s       :     0.905637  s :     0.905637
      pz      :     0.013092  p :     0.066449
      px      :     0.011842
      py      :     0.041516

 30 H s       :     0.907316  s :     0.907316
      pz      :     0.018966  p :     0.067199
      px      :     0.029683
      py      :     0.018549



                      *****************************
                      * MAYER POPULATION ANALYSIS *
                      *****************************

  NA   - Mulliken gross atomic population
  ZA   - Total nuclear charge
  QA   - Mulliken gross atomic charge
  VA   - Mayer's total valence
  BVA  - Mayer's bonded valence
  FA   - Mayer's free valence

  ATOM       NA         ZA         QA         VA         BVA        FA
  0 C      6.0084     6.0000    -0.0084     3.9667     3.9667    -0.0000
  1 C      6.0630     6.0000    -0.0630     4.0655     4.0655    -0.0000
  2 C      6.0858     6.0000    -0.0858     3.8613     3.8613    -0.0000
  3 P     14.7304    15.0000     0.2696     2.9669     2.9669    -0.0000
  4 C      6.1429     6.0000    -0.1429     3.8155     3.8155    -0.0000
  5 C      5.9632     6.0000     0.0368     3.8772     3.8772    -0.0000
  6 C      5.9839     6.0000     0.0161     3.8509     3.8509    -0.0000
  7 C      5.9763     6.0000     0.0237     3.8251     3.8251    -0.0000
  8 C      5.9770     6.0000     0.0230     3.8359     3.8359    -0.0000
  9 C      5.9768     6.0000     0.0232     3.8785     3.8785    -0.0000
 10 C      6.1429     6.0000    -0.1429     3.7751     3.7751    -0.0000
 11 C      6.0063     6.0000    -0.0063     3.8941     3.8941    -0.0000
 12 C      5.9723     6.0000     0.0277     3.8388     3.8388    -0.0000
 13 C      5.9785     6.0000     0.0215     3.8298     3.8298    -0.0000
 14 C      5.9788     6.0000     0.0212     3.8587     3.8587     0.0000
 15 C      5.9769     6.0000     0.0231     3.8869     3.8869    -0.0000
 16 H      0.9811     1.0000     0.0189     0.9864     0.9864    -0.0000
 17 H      0.9808     1.0000     0.0192     0.9749     0.9749     0.0000
 18 H      0.9923     1.0000     0.0077     0.9824     0.9824    -0.0000
 19 H      0.9523     1.0000     0.0477     0.9720     0.9720    -0.0000
 20 H      0.9657     1.0000     0.0343     0.9933     0.9933    -0.0000
 21 H      1.0208     1.0000    -0.0208     0.9960     0.9960    -0.0000
 22 H      1.0174     1.0000    -0.0174     0.9775     0.9775     0.0000
 23 H      1.0165     1.0000    -0.0165     0.9772     0.9772    -0.0000
 24 H      1.0189     1.0000    -0.0189     0.9774     0.9774    -0.0000
 25 H      1.0067     1.0000    -0.0067     0.9904     0.9904    -0.0000
 26 H      1.0199     1.0000    -0.0199     0.9948     0.9948    -0.0000
 27 H      1.0187     1.0000    -0.0187     0.9772     0.9772     0.0000
 28 H      1.0156     1.0000    -0.0156     0.9775     0.9775    -0.0000
 29 H      1.0150     1.0000    -0.0150     0.9776     0.9776    -0.0000
 30 H      1.0148     1.0000    -0.0148     0.9899     0.9899    -0.0000

  Mayer bond orders larger than 0.100000
B(  0-C ,  1-C ) :   2.0093 B(  0-C , 16-H ) :   0.9493 B(  0-C , 17-H ) :   0.9517 
B(  1-C ,  2-C ) :   1.0340 B(  1-C , 18-H ) :   0.9582 B(  2-C ,  3-P ) :   0.9579 
B(  2-C , 19-H ) :   0.9253 B(  2-C , 20-H ) :   0.9225 B(  3-P ,  4-C ) :   0.9327 
B(  3-P , 10-C ) :   0.9130 B(  4-C ,  5-C ) :   1.3877 B(  4-C ,  9-C ) :   1.3812 
B(  5-C ,  6-C ) :   1.3902 B(  5-C , 21-H ) :   0.9798 B(  6-C ,  7-C ) :   1.3863 
B(  6-C , 22-H ) :   0.9851 B(  7-C ,  8-C ) :   1.3729 B(  7-C , 23-H ) :   0.9846 
B(  8-C ,  9-C ) :   1.3974 B(  8-C , 24-H ) :   0.9832 B(  9-C , 25-H ) :   0.9771 
B( 10-C , 11-C ) :   1.3852 B( 10-C , 15-C ) :   1.3683 B( 11-C , 12-C ) :   1.3803 
B( 11-C , 26-H ) :   0.9787 B( 12-C , 13-C ) :   1.3928 B( 12-C , 27-H ) :   0.9819 
B( 13-C , 14-C ) :   1.3680 B( 13-C , 28-H ) :   0.9845 B( 14-C , 15-C ) :   1.4192 
B( 14-C , 29-H ) :   0.9847 B( 15-C , 30-H ) :   0.9802 

-------
TIMINGS
-------

Total SCF time: 0 days 0 hours 0 min 10 sec 

Total time                  ....      10.217 sec
Sum of individual times     ....      10.151 sec  ( 99.4%)

SCF preparation             ....       0.123 sec  (  1.2%)
Fock matrix formation       ....       9.747 sec  ( 95.4%)
  Startup                   ....       0.014 sec  (  0.1% of F)
  Exchange formation        ....       7.448 sec  ( 76.4% of F)
  Split-RI-J                ....       0.761 sec  (  7.8% of F)
  XC integration            ....       1.477 sec  ( 15.2% of F)
    Basis function eval.    ....       0.414 sec  ( 28.0% of XC)
    Density eval.           ....       0.390 sec  ( 26.4% of XC)
    XC-Functional eval.     ....       0.045 sec  (  3.0% of XC)
    XC-Potential eval.      ....       0.343 sec  ( 23.2% of XC)
Diagonalization             ....       0.000 sec  (  0.0%)
Density matrix formation    ....       0.026 sec  (  0.3%)
Total Energy calculation    ....       0.012 sec  (  0.1%)
Population analysis         ....       0.093 sec  (  0.9%)
Orbital Transformation      ....       0.027 sec  (  0.3%)
Orbital Orthonormalization  ....       0.000 sec  (  0.0%)
DIIS solution               ....       0.034 sec  (  0.3%)
SOSCF solution              ....       0.089 sec  (  0.9%)
Finished LeanSCF after  10.3 sec

Maximum memory used throughout the entire LEANSCF-calculation: 32.1 MB


-------------------------------------------------------------------------------
                          DFT DISPERSION CORRECTION                            
                                                                               
                              DFTD3 V3.1  Rev 1                                
                          USING Becke-Johnson damping                          
-------------------------------------------------------------------------------
The B3LYP functional is recognized
Active option DFTDOPT                   ...         4   

molecular C6(AA) [au] = 12782.524688 


            DFT-D V3
 parameters
 s6 scaling factor         :     1.0000 
 a1 scaling factor         :     0.3981 
 s8 scaling factor         :     1.9889 
 a2 scaling factor         :     4.4211 
 ad hoc parameters k1-k3   :    16.0000     1.3333    -4.0000 

 Edisp/kcal,au: -45.671280968289  -0.072781811246 
 E6   /kcal   : -20.761847306 
 E8   /kcal   : -24.909433662 
 % E8         :  54.540694139 

-------------------------   ----------------
Dispersion correction           -0.072781811
-------------------------   ----------------


-------------------------   --------------------
FINAL SINGLE POINT ENERGY      -921.081124966682
-------------------------   --------------------

                                *** OPTIMIZATION RUN DONE ***



           ************************************************************
           *        Program running with 6 parallel MPI-processes     *
           *              working on a common directory               *
           ************************************************************

------------------------------------------------------------------------------
                              ORCA PROPERTY CALCULATIONS
------------------------------------------------------------------------------

GBWName                                 ... data/geom_opt/137699/137699.gbw
Number of atoms                         ...     31
Number of basis functions               ...    303
Max core memory                         ...   1024 MB

Electric properties:
Dipole moment                           ... YES
Quadrupole moment                       ...  NO
Static polarizability (Dipole/Dipole)   ...  NO
Static polarizability (Dipole/Quad.)    ...  NO
Static polarizability (Quad./Quad.)     ...  NO
Static polarizability (Velocity)        ...  NO

Atomic electric properties:
Dipole moment                           ...  NO
Quadrupole moment                       ...  NO
Static polarizability                   ...  NO

Choice of electric origin               ... Center of mass
Position of electric origin             ...    -0.096554    -0.307124    -0.273415

General magnetic properties:
Magnetizability                         ...  NO

EPR properties:
g-Tensor (aka g-matrix)                 ...  NO
Zero-Field splitting spin-orbit         ...  NO
Zero-field splitting spin-spin          ...  NO
Hyperfine couplings                     ...  NO (   0 nuclei)
Quadrupole couplings                    ...  NO (   0 nuclei)
Contact density                         ...  NO (   0 nuclei)

NMR properties:
Chemical shifts                         ...  NO (   0 nuclei)
Spin-rotation constants                 ...  NO (   0 nuclei)
Spin-spin couplings                     ...  NO (   0 nuclei,    0 pairs)

Choice of magnetic origin               ... GIAO
Position of magnetic origin             ...     0.000000     0.000000     0.000000

Properties with geometric perturbations:
SCF Hessian                             ...  NO
IR spectrum                             ...  NO
VCD spectrum                            ...  NO
X-ray spectroscopy properties:
SCF XES/XAS/RIXS spectra                ...  NO


-------------
DIPOLE MOMENT
-------------

Method             : SCF
Type of density    : Electron Density
Multiplicity       :   1
Irrep              :   0
Energy             :  -921.0083431554355684 Eh
Relativity type    : 
Basis              : AO
                                X                 Y                 Z
Electronic contribution:     -1.537093907      -5.176393841      -3.230052856
Nuclear contribution   :      1.477211454       5.243070738       3.668524248
                        -----------------------------------------
Total Dipole Moment    :     -0.059882453       0.066676897       0.438471392
                        -----------------------------------------
Magnitude (a.u.)       :      0.447536455
Magnitude (Debye)      :      1.137547267



--------------------
Rotational spectrum 
--------------------
 
Rotational constants in cm-1:             0.024138             0.011659             0.009131 
Rotational constants in MHz :           723.651721           349.515561           273.729638 

Dipole components along the rotational axes: 
x,y,z [a.u.] :    -0.066944    -0.178841     0.404751 
x,y,z [Debye]:    -0.170157    -0.454579     1.028795 

 

Dipole moment calculation done in   0.0 sec 

Maximum memory used throughout the entire PROP-calculation: 16.2 MB

--------------------------------
SUGGESTED CITATIONS FOR THIS RUN
--------------------------------

Below you find a list of papers that are relevant to this ORCA run
We neither can nor want to force you to cite these papers, but we appreciate if you do
You receive ORCA, which is the product of decades of hard work by many enthusiastic individuals, for free
The only thing we kindly ask in return is that you cite our papers,
We deeply appreciate it, if you show your appreciation for ORCA by not just citing the generic ORCA reference.

Please note that relegating all ORCA citations to the supporting information does *not* help us.
SI sections are not indexed - citations you put there will not count into any citation statistics
But we need these citations in order to attract the funding resources that allow us to do what we are doing

Therefore, if you are a happy ORCA user, please consider citing a few of the papers listed below in the main body of your paper

In addition to the list printed below, the program has created the file data/geom_opt/137699/137699.bibtex that contains the list in bibtex format
You can import this file easily into all common literature databanks and citation aid programs


List of essential papers. We consider these as the minimum necessary citations

  1. Neese,F.
     Software update: the ORCA program system, version 5.0
     WIRES Comput. Molec. Sci., 2022 12(1)e1606
     doi.org/10.1002/wcms.1606

List of papers to cite with high priority. The work reported in these papers was absolutely
necessary for this run to complete.
Our perspective: the developers of density functionals and basis sets usually get cited in chemistry papers
Good! But without the algorithms to do something with them, the functionals or basis sets would not do anything.
Hence, in our opinion, the algorithm design and method developments papers are equally worthy of getting cited

  1. Neese,F.
     An improvement of the resolution of the identity approximation for the formation of the Coulomb matrix
     J. Comp. Chem., 2003 24(14)1740-1747
     doi.org/10.1002/jcc.10318
  2. Neese,F.
     The SHARK Integral Generation and Digestion System
     J. Comp. Chem., 2022  1-16
     doi.org/10.1002/jcc.26942
  3. Grimme,S.; Antony,J.; Ehrlich,S.; Krieg,H.
     A consistent and accurate ab initio parametrization of density functional dispersion correction (DFT-D) for the 94 elements H-Pu
     J. Chem. Phys., 2010 132 154104-XXXX
     doi.org/10.1063/1.3382344
  4. Grimme,S.; Ehrlich,S.; Goerigk,L.
     Effect of the damping function in dispersion corrected density functional theory
     J. Comput. Chem., 2011 32(7)1456-1465
     doi.org/10.1002/jcc.21759

List of suggested additional citations. These are papers that are important in the 'surrounding' of 
of this run, or papers that preceded the highly important papers. If you like your results we are grateful for a citation.

  1. Neese,F.
     The ORCA program system
     WIRES Comput. Molec. Sci., 2012 2(1)73-78
     doi.org/10.1002/wcms.81
  2. Neese,F.
     Software update: the ORCA program system, version 4.0
     WIRES Comput. Molec. Sci., 2018 8(1)1-6
     doi.org/10.1002/wcms.1327
  3. Neese,F.; Wennmohs,F.; Becker,U.; Riplinger,C.
     The ORCA quantum chemistry program package
     J. Chem. Phys., 2020 152 Art. No. L224108
     doi.org/10.1063/5.0004608

List of optional additional citations

  1. Neese,F.
     Approximate second-order SCF convergence for spin unrestricted wavefunctions
     Chem. Phys. Lett., 2000 325(1-3)93-98
     doi.org/10.1016/s0009-2614(00)00662-x

Timings for individual modules:

Sum of individual times          ...      574.982 sec (=   9.583 min)
Startup calculation              ...       20.422 sec (=   0.340 min)   3.6 %
SCF iterations                   ...      351.336 sec (=   5.856 min)  61.1 %
Property calculations            ...        0.170 sec (=   0.003 min)   0.0 %
SCF Gradient evaluation          ...      202.839 sec (=   3.381 min)  35.3 %
Geometry relaxation              ...        0.215 sec (=   0.004 min)   0.0 %
                             ****ORCA TERMINATED NORMALLY****
TOTAL RUN TIME: 0 days 0 hours 9 minutes 38 seconds 192 msec
