
                                 *****************
                                 * O   R   C   A *
                                 *****************

                                            #,                                       
                                            ###                                      
                                            ####                                     
                                            #####                                    
                                            ######                                   
                                           ########,                                 
                                     ,,################,,,,,                         
                               ,,#################################,,                 
                          ,,##########################################,,             
                       ,#########################################, ''#####,          
                    ,#############################################,,   '####,        
                  ,##################################################,,,,####,       
                ,###########''''           ''''###############################       
              ,#####''   ,,,,##########,,,,          '''####'''          '####       
            ,##' ,,,,###########################,,,                        '##       
           ' ,,###''''                  '''############,,,                           
         ,,##''                                '''############,,,,        ,,,,,,###''
      ,#''                                            '''#######################'''  
     '                                                          ''''####''''         
             ,#######,   #######,   ,#######,      ##                                
            ,#'     '#,  ##    ##  ,#'     '#,    #''#        ,####,   ,####,        
            ##       ##  ##   ,#'  ##            #'  '#       #'       #'  '#        
            ##       ##  #######   ##           ,######,      #####,   #    #        
            '#,     ,#'  ##    ##  '#,     ,#' ,#      #,     #,   #   #,  ,#        
             '#######'   ##     ##  '#######'  #'      '#     '####' # '####'        



                #########################################################
                #                        -***-                          #
                #          Department of theory and spectroscopy        #
                #                                                       #
                #                      Frank Neese                      #
                #                                                       #
                #     Directorship, Architecture, Infrastructure        #
                #                    SHARK, DRIVERS                     #
                #        Core code/Algorithms in most modules           #
                #                                                       #
                #        Max Planck Institute fuer Kohlenforschung      #
                #                Kaiser Wilhelm Platz 1                 #
                #                 D-45470 Muelheim/Ruhr                 #
                #                      Germany                          #
                #                                                       #
                #                  All rights reserved                  #
                #                        -***-                          #
                #########################################################


                         Program Version 6.0.0  -   RELEASE   -


 With contributions from (in alphabetic order):
   Daniel Aravena         : Magnetic Suceptibility
   Michael Atanasov       : Ab Initio Ligand Field Theory (pilot matlab implementation)
   Alexander A. Auer      : GIAO ZORA, VPT2 properties, NMR spectrum
   Ute Becker             : All parallelization in ORCA, NUMFREQ, NUMCALC
   Giovanni Bistoni       : ED, misc. LED, open-shell LED, HFLD
   Martin Brehm           : Molecular dynamics
   Dmytro Bykov           : pre 5.0 version of the SCF Hessian
   Marcos Casanova-Páez   : Triplet and SCS-CIS(D). UHF-(DLPNO)-IP/EA/STEOM-CCSD. UHF-CVS-IP/STEOM-CCSD
   Vijay G. Chilkuri      : MRCI spin determinant printing, contributions to CSF-ICE
   Pauline Colinet        : FMM embedding
   Dipayan Datta          : RHF DLPNO-CCSD density
   Achintya Kumar Dutta   : EOM-CC, STEOM-CC
   Nicolas Foglia         : Exact transition moments, OPA infrastructure, MCD improvements
   Dmitry Ganyushin       : Spin-Orbit,Spin-Spin,Magnetic field MRCI
   Miquel Garcia          : C-PCM and meta-GGA Hessian, CCSD/C-PCM, Gaussian charge scheme
   Tiago L. C. Gouveia    : GS-ROHF, GS-ROCIS
   Yang Guo               : DLPNO-NEVPT2, F12-NEVPT2, CIM, IAO-localization
   Andreas Hansen         : Spin unrestricted coupled pair/coupled cluster methods
   Ingolf Harden          : AUTO-CI MPn and infrastructure 
   Benjamin Helmich-Paris : MC-RPA, TRAH-(SCF,CASSCF), AVAS, COSX integrals, SCF dyn. polar.
   Lee Huntington         : MR-EOM, pCC
   Robert Izsak           : Overlap fitted RIJCOSX, COSX-SCS-MP3, EOM
   Riya Kayal             : Wick's Theorem for AUTO-CI, AUTO-CI UHF-CCSDT
   Emily Kempfer          : AUTO-CI, RHF CISDT and CCSDT
   Christian Kollmar      : KDIIS, OOCD, Brueckner-CCSD(T), CCSD density, CASPT2, CASPT2-K, improved NEVPT2
   Axel Koslowski         : Symmetry handling
   Simone Kossmann        : Meta GGA functionals, TD-DFT gradient, OOMP2, (MP2 Hessian; deprecated post 5.0)
   Lucas Lang             : DCDCAS
   Marvin Lechner         : AUTO-CI (C++ implementation), FIC-MRCC
   Spencer Leger          : CASSCF response
   Dagmar Lenk            : GEPOL surface, SMD, ORCA-2-JSON
   Dimitrios Liakos       : Extrapolation schemes; Compound Job, initial MDCI parallelization
   Dimitrios Manganas     : Further ROCIS development; embedding schemes. LFT, Crystal Embedding
   Dimitrios Pantazis     : SARC Basis sets
   Anastasios Papadopoulos: AUTO-CI, single reference methods and gradients
   Taras Petrenko         : pre 6.0 DFT Hessian and TD-DFT gradient, (ASA, deprecated), ECA, 1-Electron XAS/XES, NRVS
   Peter Pinski           : DLPNO-MP2, DLPNO-MP2 Gradient
   Christoph Reimann      : Effective Core Potentials
   Marius Retegan         : Local ZFS, SOC
   Christoph Riplinger    : Optimizer, TS searches, QM/MM, DLPNO-CCSD(T), (RO)-DLPNO pert. Triples
   Michael Roemelt        : Original ROCIS implementation
   Masaaki Saitow         : Open-shell DLPNO-CCSD energy and density
   Barbara Sandhoefer     : DKH picture change effects
   Kantharuban Sivalingam : CASSCF convergence/infrastructure, NEVPT2 and variants, FIC-MRCI
   Bernardo de Souza      : ESD, SOC TD-DFT
   Georgi Stoychev        : AutoAux, RI-MP2 NMR, DLPNO-MP2 response, X2C
   Van Anh Tran           : RI-MP2 g-tensors
   Willem Van den Heuvel  : Paramagnetic NMR
   Zikuan Wang            : NOTCH, Electric field optimization 
   Frank Wennmohs         : Technical directorship and infrastructure
   Hang Xu                : AUTO-CI-Response properties 


 We gratefully acknowledge several colleagues who have allowed us to
 interface, adapt or use parts of their codes:
   Stefan Grimme, W. Hujo, H. Kruse, P. Pracht,  : VdW corrections, initial TS optimization,
                  C. Bannwarth, S. Ehlert,         DFT functionals, gCP, sTDA/sTD-DF
                  L. Wittmann, M. Mueller
   Ed Valeev, F. Pavosevic, A. Kumar             : LibInt (2-el integral package), F12 methods
   Garnet Chan, S. Sharma, J. Yang, R. Olivares  : DMRG
   Ulf Ekstrom                                   : XCFun DFT Library
   Mihaly Kallay                                 : mrcc  (arbitrary order and MRCC methods)
   Frank Weinhold                                : gennbo (NPA and NBO analysis)
   Simon Mueller                                 : openCOSMO-RS
   Christopher J. Cramer and Donald G. Truhlar   : smd solvation model
   Lars Goerigk                                  : TD-DFT with DH, B97 family of functionals
   V. Asgeirsson, H. Jonsson                     : NEB implementation
   FAccTs GmbH                                   : IRC, NEB, NEB-TS, DLPNO-Multilevel, CI-OPT
                                                   MM, QMMM, 2- and 3-layer-ONIOM, Crystal-QMMM,
                                                   LR-CPCM, SF, NACMEs, symmetry and pop. for TD-DFT,
                                                   nearIR, NL-DFT gradient (VV10), updates on ESD,
                                                   ML-optimized integration grids, MBIS, APM,
                                                   GOAT, DOCKER, SOLVATOR, interface openCOSMO-RS
   S Lehtola, MJT Oliveira, MAL Marques          : LibXC Library
   Liviu Ungur et al                             : ANISO software


 Your calculation uses the libint2 library for the computation of 2-el integrals
 For citations please refer to: http://libint.valeyev.net

 Your ORCA version has been built with support for libXC version: 6.2.2
 For citations please refer to: https://libxc.gitlab.io

 This ORCA versions uses:
   CBLAS   interface :  Fast vector & matrix operations
   LAPACKE interface :  Fast linear algebra routines
   Shared memory     :  Shared parallel matrices


Your calculation utilizes the atom-pairwise dispersion correction
with the zero-damping scheme (D30)


XCFun DFT library Copyright 2009-2010 Ulf Ekstrom and contributors.
See http://admol.org/xcfun for more information.
This is free software; see the source code for copying conditions.
There is ABSOLUTELY NO WARRANTY; not even for MERCHANTABILITY or FITNESS FOR A PARTICULAR PURPOSE.
For details see the documentation.
Scientific users of this library should cite U. Ekstrom, L. Visscher, R. Bast, A. J. Thorvaldsen and K. Ruud;
J.Chem.Theor.Comp. 2010, DOI: 10.1021/ct100117s
XCFun Version 0.99 

Warning: RI is on but no J-basis has been assigned. Assigning Def2/J (nothing to worry about!)
================================================================================

----- Orbital basis set information -----
Your calculation utilizes the basis: def2-TZVP
   F. Weigend and R. Ahlrichs, Phys. Chem. Chem. Phys. 7, 3297 (2005).

----- AuxJ basis set information -----
Your calculation utilizes the auxiliary basis: def2/J
   F. Weigend, Phys. Chem. Chem. Phys. 8, 1057 (2006).

================================================================================
                                        WARNINGS
                       Please study these warnings very carefully!
================================================================================

WARNING: Functional chosen is sensitive to the integration grid.
         DEFGRID3 seems to be a minimum grid for robust results!

================================================================================
                                       INPUT FILE
================================================================================
NAME = data/single_point_PO_M06-2x/80970/80970.inp
|  1> ! RIJCOSX M062X def2-TZVP D3ZERO NormalSCF
|  2> %pal
|  3> nprocs 6
|  4> end
|  5> 
|  6> * xyz 0 1
|  7>   C           4.10438218921466     -1.19159469275325      0.62677978689626
|  8>   C           2.87175292133357     -1.78499334166750      1.32620185011199
|  9>   C           1.61220896755916     -0.94373335402803      1.05574687244272
| 10>   C           1.37337170923555     -0.77975159735683     -0.45454257913019
| 11>   C           2.60809742228100     -0.18560777532490     -1.16166060420984
| 12>   C           3.86473848976763     -1.02259072126982     -0.88161385669397
| 13>   P          -0.12445039709969      0.19721647753023     -0.94274372722642
| 14>   O          -0.30196043815379      0.23992452310973     -2.45544874860000
| 15>   C          -1.58080604750525     -0.51743687396451     -0.05235942027587
| 16>   C          -1.76048378674763     -1.99962423960539     -0.43825137900680
| 17>   C          -3.04877250674710     -2.58967819990962      0.15649737921119
| 18>   C          -4.28139251805492     -1.75860086432441     -0.22795048370552
| 19>   C          -4.10790887520652     -0.29005749854797      0.18582741894127
| 20>   C          -2.82929256671671      0.31476652319945     -0.41194081746802
| 21>   C           0.10883185695115      1.87822196724969     -0.24008594020211
| 22>   C           0.04408134508225      2.18112938017460      1.13637126434461
| 23>   C           0.24748815737046      3.49876875381207      1.57718995315894
| 24>   C           0.51477229645440      4.51884827806674      0.64748332293159
| 25>   C           0.56825255326912      4.22274563310428     -0.72537250132003
| 26>   C           0.36140277114056      2.90729934797709     -1.16950074510048
| 27>   H           4.99629802052731     -1.82719558996587      0.81087798362876
| 28>   H           4.33083654907842     -0.19670468636919      1.07354485360918
| 29>   H           2.70223733077652     -2.82116759347374      0.95522588725849
| 30>   H           3.04588659411686     -1.86791959932532      2.42003770042266
| 31>   H           0.73041159986359     -1.40603673210670      1.54834594502120
| 32>   H           1.74519828194775      0.06160312305938      1.51246546581285
| 33>   H           1.17154725861707     -1.78177175519725     -0.89986902241331
| 34>   H           2.76585587870388      0.85331345018961     -0.79310787985303
| 35>   H           2.40480057746171     -0.11007361666829     -2.24886096739544
| 36>   H           4.74824230991862     -0.55491901300751     -1.36544458452557
| 37>   H           3.74719848648968     -2.02639689110665     -1.34943611232312
| 38>   H          -1.39112187705568     -0.44274696674936      1.04296502438403
| 39>   H          -1.79006328232321     -2.06570544090305     -1.54835327021241
| 40>   H          -0.88282892375799     -2.59478563118484     -0.10859564725602
| 41>   H          -3.16868948816376     -3.64320423236693     -0.17399104040306
| 42>   H          -2.95833650622918     -2.61774718134016      1.26648987165492
| 43>   H          -4.42617873628778     -1.81139553157010     -1.33064270520574
| 44>   H          -5.19708862986164     -2.18788524244775      0.23098618796726
| 45>   H          -4.06010287775689     -0.22564107958415      1.29701382599001
| 46>   H          -4.98953053526248      0.30981572472418     -0.12431946496654
| 47>   H          -2.69709063709865      1.36316903495507     -0.07162205683291
| 48>   H          -2.90634697858163      0.35259885855648     -1.52056216910815
| 49>   H          -0.17761987897157      1.39312155225298      1.87247346325594
| 50>   H           0.19350360500347      3.73184739048235      2.65184936156321
| 51>   H           0.67451423204796      5.55097195344737      0.99582492364152
| 52>   H           0.76673478841471      5.02347286131115     -1.45453909374801
| 53>   H           0.37741729495501      2.64613410891665     -2.23938552506604
| 54> **                         ****END OF INPUT****
================================================================================

                       ****************************
                       * Single Point Calculation *
                       ****************************

---------------------------------
CARTESIAN COORDINATES (ANGSTROEM)
---------------------------------
  C      4.104382   -1.191595    0.626780
  C      2.871753   -1.784993    1.326202
  C      1.612209   -0.943733    1.055747
  C      1.373372   -0.779752   -0.454543
  C      2.608097   -0.185608   -1.161661
  C      3.864738   -1.022591   -0.881614
  P     -0.124450    0.197216   -0.942744
  O     -0.301960    0.239925   -2.455449
  C     -1.580806   -0.517437   -0.052359
  C     -1.760484   -1.999624   -0.438251
  C     -3.048773   -2.589678    0.156497
  C     -4.281393   -1.758601   -0.227950
  C     -4.107909   -0.290057    0.185827
  C     -2.829293    0.314767   -0.411941
  C      0.108832    1.878222   -0.240086
  C      0.044081    2.181129    1.136371
  C      0.247488    3.498769    1.577190
  C      0.514772    4.518848    0.647483
  C      0.568253    4.222746   -0.725373
  C      0.361403    2.907299   -1.169501
  H      4.996298   -1.827196    0.810878
  H      4.330837   -0.196705    1.073545
  H      2.702237   -2.821168    0.955226
  H      3.045887   -1.867920    2.420038
  H      0.730412   -1.406037    1.548346
  H      1.745198    0.061603    1.512465
  H      1.171547   -1.781772   -0.899869
  H      2.765856    0.853313   -0.793108
  H      2.404801   -0.110074   -2.248861
  H      4.748242   -0.554919   -1.365445
  H      3.747198   -2.026397   -1.349436
  H     -1.391122   -0.442747    1.042965
  H     -1.790063   -2.065705   -1.548353
  H     -0.882829   -2.594786   -0.108596
  H     -3.168689   -3.643204   -0.173991
  H     -2.958337   -2.617747    1.266490
  H     -4.426179   -1.811396   -1.330643
  H     -5.197089   -2.187885    0.230986
  H     -4.060103   -0.225641    1.297014
  H     -4.989531    0.309816   -0.124319
  H     -2.697091    1.363169   -0.071622
  H     -2.906347    0.352599   -1.520562
  H     -0.177620    1.393122    1.872473
  H      0.193504    3.731847    2.651849
  H      0.674514    5.550972    0.995825
  H      0.766735    5.023473   -1.454539
  H      0.377417    2.646134   -2.239386

----------------------------
CARTESIAN COORDINATES (A.U.)
----------------------------
  NO LB      ZA    FRAG     MASS         X           Y           Z
   0 C     6.0000    0    12.011    7.756158   -2.251788    1.184442
   1 C     6.0000    0    12.011    5.426827   -3.373149    2.506158
   2 C     6.0000    0    12.011    3.046633   -1.783398    1.995072
   3 C     6.0000    0    12.011    2.595296   -1.473517   -0.858961
   4 C     6.0000    0    12.011    4.928590   -0.350748   -2.195220
   5 C     6.0000    0    12.011    7.303297   -1.932416   -1.666009
   6 P    15.0000    0    30.974   -0.235177    0.372685   -1.781527
   7 O     8.0000    0    15.999   -0.570623    0.453392   -4.640126
   8 C     6.0000    0    12.011   -2.987291   -0.977814   -0.098945
   9 C     6.0000    0    12.011   -3.326832   -3.778742   -0.828175
  10 C     6.0000    0    12.011   -5.761345   -4.893783    0.295737
  11 C     6.0000    0    12.011   -8.090659   -3.323274   -0.430764
  12 C     6.0000    0    12.011   -7.762823   -0.548129    0.351163
  13 C     6.0000    0    12.011   -5.346588    0.594823   -0.778455
  14 C     6.0000    0    12.011    0.205662    3.549325   -0.453697
  15 C     6.0000    0    12.011    0.083302    4.121737    2.147430
  16 C     6.0000    0    12.011    0.467685    6.611715    2.980457
  17 C     6.0000    0    12.011    0.972779    8.539386    1.223566
  18 C     6.0000    0    12.011    1.073842    7.979833   -1.370755
  19 C     6.0000    0    12.011    0.682952    5.494000   -2.210036
  20 H     1.0000    0     1.008    9.441635   -3.452899    1.532337
  21 H     1.0000    0     1.008    8.184095   -0.371718    2.028706
  22 H     1.0000    0     1.008    5.106489   -5.331234    1.805115
  23 H     1.0000    0     1.008    5.755891   -3.529856    4.573208
  24 H     1.0000    0     1.008    1.380278   -2.657024    2.925950
  25 H     1.0000    0     1.008    3.297947    0.116413    2.858146
  26 H     1.0000    0     1.008    2.213903   -3.367061   -1.700506
  27 H     1.0000    0     1.008    5.226710    1.612529   -1.498757
  28 H     1.0000    0     1.008    4.544414   -0.208009   -4.249731
  29 H     1.0000    0     1.008    8.972878   -1.048645   -2.580316
  30 H     1.0000    0     1.008    7.081179   -3.829335   -2.550065
  31 H     1.0000    0     1.008   -2.628839   -0.836671    1.970918
  32 H     1.0000    0     1.008   -3.382729   -3.903618   -2.925964
  33 H     1.0000    0     1.008   -1.668305   -4.903434   -0.205216
  34 H     1.0000    0     1.008   -5.987955   -6.884658   -0.328795
  35 H     1.0000    0     1.008   -5.590446   -4.946825    2.393319
  36 H     1.0000    0     1.008   -8.364266   -3.423041   -2.514550
  37 H     1.0000    0     1.008   -9.821074   -4.134504    0.436501
  38 H     1.0000    0     1.008   -7.672483   -0.426400    2.451001
  39 H     1.0000    0     1.008   -9.428846    0.585467   -0.234930
  40 H     1.0000    0     1.008   -5.096763    2.576016   -0.135346
  41 H     1.0000    0     1.008   -5.492200    0.666315   -2.873446
  42 H     1.0000    0     1.008   -0.335653    2.632618    3.538462
  43 H     1.0000    0     1.008    0.365669    7.052170    5.011269
  44 H     1.0000    0     1.008    1.274647   10.489817    1.881836
  45 H     1.0000    0     1.008    1.448919    9.492988   -2.748681
  46 H     1.0000    0     1.008    0.713215    5.000469   -4.231825

--------------------------------
INTERNAL COORDINATES (ANGSTROEM)
--------------------------------
 C      0   0   0     0.000000000000     0.00000000     0.00000000
 C      1   0   0     1.536453087824     0.00000000     0.00000000
 C      2   1   0     1.538608213042   111.44211325     0.00000000
 C      3   2   1     1.537825568788   110.98195475    55.31544918
 C      4   3   2     1.541937213088   111.53699268   304.80121987
 C      5   4   3     1.535614992467   111.20078152    55.02794176
 P      4   3   2     1.853720055072   116.12533718   179.31417343
 O      7   4   3     1.523683127662   111.73852096   182.76346429
 C      7   4   3     1.850536518779   107.79704415   307.98008065
 C      9   7   4     1.542101190149   110.02788208   300.28890862
 C     10   9   7     1.536742524807   111.70801711   186.32918201
 C     11  10   9     1.535526551155   111.60713715    54.61253076
 C     12  11  10     1.535554735013   111.06683601   304.38713939
 C     13  12  11     1.535577619685   111.46055763    55.71010662
 C      7   4   3     1.836825531233   106.19792170    60.79746306
 C     15   7   4     1.410879146327   124.32308912   289.44318659
 C     16  15   7     1.404232518728   120.07078328   179.48364199
 C     17  16  15     1.405829813704   120.05284254     0.06166318
 C     18  17  16     1.405443000767   120.02319102     0.50141640
 C     19  18  17     1.403722073042   120.05847233   359.68880041
 H      1   2   3     1.110582953554   110.35291891   181.54232979
 H      1   2   3     1.113861179294   108.99459877    65.11019304
 H      2   1   3     1.113559958226   109.25947185   120.51509495
 H      2   1   3     1.110709758502   110.57067840   237.30550138
 H      3   2   1     1.110830705987   110.14138341   178.50840873
 H      3   2   1     1.112195784668   108.91498095   295.32186195
 H      4   3   2     1.114940871380   108.93808720    63.85132088
 H      5   4   3     1.113587066209   108.73270135   294.51025608
 H      5   4   3     1.108620605053   109.21664491   178.46276884
 H      6   5   4     1.110580028690   110.00105763   182.28673496
 H      6   5   4     1.113687632074   109.16540463    66.02035965
 H      9   7   4     1.114133881465   108.24914094    59.65289076
 H     10   9   7     1.112460282699   108.05310870   307.38746080
 H     10   9   7     1.110480995800   110.41119371    63.59260801
 H     11  10   9     1.110639355955   109.85069785   177.68999455
 H     11  10   9     1.114024178907   109.10122230   293.89475420
 H     12  11  10     1.113409386181   109.06748474    64.63925098
 H     12  11  10     1.110588724544   110.43822702   181.32875473
 H     13  12  11     1.114078147903   109.20265532   294.90468351
 H     13  12  11     1.110538484284   110.58808402   178.21735224
 H     14  13  12     1.110154059440   110.59671852   182.23798625
 H     14  13  12     1.111939732764   110.10961116    64.97106660
 H     16  15   7     1.100887922022   120.52382328   358.73604201
 H     17  16  15     1.100969039909   119.86548195   179.83510019
 H     18  17  16     1.100971679042   119.90599794   180.03963916
 H     19  18  17     1.101019169303   120.03627080   179.33597437
 H     20  19  18     1.101415992924   121.82989327   178.79461933

---------------------------
INTERNAL COORDINATES (A.U.)
---------------------------
 C      0   0   0     0.000000000000     0.00000000     0.00000000
 C      1   0   0     2.903475553605     0.00000000     0.00000000
 C      2   1   0     2.907548150050   111.44211325     0.00000000
 C      3   2   1     2.906069166750   110.98195475    55.31544918
 C      4   3   2     2.913839048439   111.53699268   304.80121987
 C      5   4   3     2.901891782907   111.20078152    55.02794176
 P      4   3   2     3.503023233044   116.12533718   179.31417343
 O      7   4   3     2.879343826157   111.73852096   182.76346429
 C      7   4   3     3.497007221312   107.79704415   307.98008065
 C      9   7   4     2.914148920175   110.02788208   300.28890862
 C     10   9   7     2.904022510236   111.70801711   186.32918201
 C     11  10   9     2.901724653047   111.60713715    54.61253076
 C     12  11  10     2.901777912821   111.06683601   304.38713939
 C     13  12  11     2.901821158584   111.46055763    55.71010662
 C      7   4   3     3.471097209824   106.19792170    60.79746306
 C     15   7   4     2.666175194619   124.32308912   289.44318659
 C     16  15   7     2.653614888742   120.07078328   179.48364199
 C     17  16  15     2.656633338802   120.05284254     0.06166318
 C     18  17  16     2.655902368286   120.02319102     0.50141640
 C     19  18  17     2.652650286189   120.05847233   359.68880041
 H      1   2   3     2.098697631218   110.35291891   181.54232979
 H      1   2   3     2.104892580073   108.99459877    65.11019304
 H      2   1   3     2.104323354747   109.25947185   120.51509495
 H      2   1   3     2.098937257842   110.57067840   237.30550138
 H      3   2   1     2.099165815465   110.14138341   178.50840873
 H      3   2   1     2.101745440325   108.91498095   295.32186195
 H      4   3   2     2.106932902423   108.93808720    63.85132088
 H      5   4   3     2.104374581412   108.73270135   294.51025608
 H      5   4   3     2.094989329972   109.21664491   178.46276884
 H      6   5   4     2.098692104026   110.00105763   182.28673496
 H      6   5   4     2.104564623355   109.16540463    66.02035965
 H      9   7   4     2.105407912492   108.24914094    59.65289076
 H     10   9   7     2.102245269165   108.05310870   307.38746080
 H     10   9   7     2.098504958986   110.41119371    63.59260801
 H     11  10   9     2.098804216310   109.85069785   177.68999455
 H     11  10   9     2.105200604701   109.10122230   293.89475420
 H     12  11  10     2.104038814820   109.06748474    64.63925098
 H     12  11  10     2.098708536809   110.43822702   181.32875473
 H     13  12  11     2.105302591322   109.20265532   294.90468351
 H     13  12  11     2.098613596477   110.58808402   178.21735224
 H     14  13  12     2.097887138802   110.59671852   182.23798625
 H     14  13  12     2.101261572349   110.10961116    64.97106660
 H     16  15   7     2.080376676764   120.52382328   358.73604201
 H     17  16  15     2.080529967354   119.86548195   179.83510019
 H     18  17  16     2.080534954594   119.90599794   180.03963916
 H     19  18  17     2.080624698181   120.03627080   179.33597437
 H     20  19  18     2.081374586147   121.82989327   178.79461933

---------------------
BASIS SET INFORMATION
---------------------
There are 4 groups of distinct atoms

 Group   1 Type C   : 11s6p2d1f contracted to 5s3p2d1f pattern {62111/411/11/1}
 Group   2 Type P   : 14s9p3d1f contracted to 5s5p2d1f pattern {73211/51111/21/1}
 Group   3 Type O   : 11s6p2d1f contracted to 5s3p2d1f pattern {62111/411/11/1}
 Group   4 Type H   : 5s1p contracted to 3s1p pattern {311/1}

Atom   0C    basis set group =>   1
Atom   1C    basis set group =>   1
Atom   2C    basis set group =>   1
Atom   3C    basis set group =>   1
Atom   4C    basis set group =>   1
Atom   5C    basis set group =>   1
Atom   6P    basis set group =>   2
Atom   7O    basis set group =>   3
Atom   8C    basis set group =>   1
Atom   9C    basis set group =>   1
Atom  10C    basis set group =>   1
Atom  11C    basis set group =>   1
Atom  12C    basis set group =>   1
Atom  13C    basis set group =>   1
Atom  14C    basis set group =>   1
Atom  15C    basis set group =>   1
Atom  16C    basis set group =>   1
Atom  17C    basis set group =>   1
Atom  18C    basis set group =>   1
Atom  19C    basis set group =>   1
Atom  20H    basis set group =>   4
Atom  21H    basis set group =>   4
Atom  22H    basis set group =>   4
Atom  23H    basis set group =>   4
Atom  24H    basis set group =>   4
Atom  25H    basis set group =>   4
Atom  26H    basis set group =>   4
Atom  27H    basis set group =>   4
Atom  28H    basis set group =>   4
Atom  29H    basis set group =>   4
Atom  30H    basis set group =>   4
Atom  31H    basis set group =>   4
Atom  32H    basis set group =>   4
Atom  33H    basis set group =>   4
Atom  34H    basis set group =>   4
Atom  35H    basis set group =>   4
Atom  36H    basis set group =>   4
Atom  37H    basis set group =>   4
Atom  38H    basis set group =>   4
Atom  39H    basis set group =>   4
Atom  40H    basis set group =>   4
Atom  41H    basis set group =>   4
Atom  42H    basis set group =>   4
Atom  43H    basis set group =>   4
Atom  44H    basis set group =>   4
Atom  45H    basis set group =>   4
Atom  46H    basis set group =>   4
---------------------------------
AUXILIARY/J BASIS SET INFORMATION
---------------------------------
There are 4 groups of distinct atoms

 Group   1 Type C   : 12s5p4d2f1g contracted to 6s4p3d1f1g pattern {711111/2111/211/2/1}
 Group   2 Type P   : 14s5p5d2f1g contracted to 8s4p3d1f1g pattern {71111111/2111/311/2/1}
 Group   3 Type O   : 12s5p4d2f1g contracted to 6s4p3d1f1g pattern {711111/2111/211/2/1}
 Group   4 Type H   : 5s2p1d contracted to 3s1p1d pattern {311/2/1}

Atom   0C    basis set group =>   1
Atom   1C    basis set group =>   1
Atom   2C    basis set group =>   1
Atom   3C    basis set group =>   1
Atom   4C    basis set group =>   1
Atom   5C    basis set group =>   1
Atom   6P    basis set group =>   2
Atom   7O    basis set group =>   3
Atom   8C    basis set group =>   1
Atom   9C    basis set group =>   1
Atom  10C    basis set group =>   1
Atom  11C    basis set group =>   1
Atom  12C    basis set group =>   1
Atom  13C    basis set group =>   1
Atom  14C    basis set group =>   1
Atom  15C    basis set group =>   1
Atom  16C    basis set group =>   1
Atom  17C    basis set group =>   1
Atom  18C    basis set group =>   1
Atom  19C    basis set group =>   1
Atom  20H    basis set group =>   4
Atom  21H    basis set group =>   4
Atom  22H    basis set group =>   4
Atom  23H    basis set group =>   4
Atom  24H    basis set group =>   4
Atom  25H    basis set group =>   4
Atom  26H    basis set group =>   4
Atom  27H    basis set group =>   4
Atom  28H    basis set group =>   4
Atom  29H    basis set group =>   4
Atom  30H    basis set group =>   4
Atom  31H    basis set group =>   4
Atom  32H    basis set group =>   4
Atom  33H    basis set group =>   4
Atom  34H    basis set group =>   4
Atom  35H    basis set group =>   4
Atom  36H    basis set group =>   4
Atom  37H    basis set group =>   4
Atom  38H    basis set group =>   4
Atom  39H    basis set group =>   4
Atom  40H    basis set group =>   4
Atom  41H    basis set group =>   4
Atom  42H    basis set group =>   4
Atom  43H    basis set group =>   4
Atom  44H    basis set group =>   4
Atom  45H    basis set group =>   4
Atom  46H    basis set group =>   4


           ************************************************************
           *        Program running with 6 parallel MPI-processes     *
           *              working on a common directory               *
           ************************************************************
------------------------------------------------------------------------------
                             ORCA STARTUP CALCULATIONS
                           -- RI-GTO INTEGRALS CHOSEN --
------------------------------------------------------------------------------
------------------------------------------------------------------------------
                   ___                                                        
                  /   \      - P O W E R E D   B Y -                         
                 /     \                                                     
                 |  |  |   _    _      __       _____    __    __             
                 |  |  |  | |  | |    /  \     |  _  \  |  |  /  |          
                  \  \/   | |  | |   /    \    | | | |  |  | /  /          
                 / \  \   | |__| |  /  /\  \   | |_| |  |  |/  /          
                |  |  |   |  __  | /  /__\  \  |    /   |      \           
                |  |  |   | |  | | |   __   |  |    \   |  |\   \          
                \     /   | |  | | |  |  |  |  | |\  \  |  | \   \       
                 \___/    |_|  |_| |__|  |__|  |_| \__\ |__|  \__/        
                                                                              
                      - O R C A' S   B I G   F R I E N D -                    
                                      &                                       
                       - I N T E G R A L  F E E D E R -                       
                                                                              
 v1 FN, 2020, v2 2021, v3 2022-2024                                           
------------------------------------------------------------------------------


----------------------
SHARK INTEGRAL PACKAGE
----------------------

Number of atoms                             ...     47
Number of basis functions                   ...    788
Number of shells                            ...    330
Maximum angular momentum                    ...      3
Integral batch strategy                     ... SHARK/LIBINT Hybrid
RI-J (if used) integral strategy            ... SPLIT-RIJ (Revised 2003 algorithm where possible)
Printlevel                                  ...      1
Contraction scheme used                     ... SEGMENTED contraction
Prescreening option                         ... SCHWARTZ
   Thresh                                   ... 1.000e-10
   Tcut                                     ... 1.000e-11
   Tpresel                                  ... 1.000e-11 
Coulomb Range Separation                    ... NOT USED
Exchange Range Separation                   ... NOT USED
Multipole approximations                    ... NOT USED
Finite Nucleus Model                        ... NOT USED
CABS basis                                  ... NOT available
Auxiliary Coulomb fitting basis             ... AVAILABLE
   # of basis functions in Aux-J            ...   1279
   # of shells in Aux-J                     ...    437
   Maximum angular momentum in Aux-J        ...      4
Auxiliary J/K fitting basis                 ... NOT available
Auxiliary Correlation fitting basis         ... NOT available
Auxiliary 'external' fitting basis          ... NOT available

Checking pre-screening integrals            ... done (  0.0 sec) Dimension = 330
Check shell pair data                       ... done (  0.0 sec)
Shell pair information
Shell pair cut-off parameter TPreSel        ...   1.0e-11
Total number of shell pairs                 ...     54615
Shell pairs after pre-screening             ...     39523
Total number of primitive shell pairs       ...    162700
Primitive shell pairs kept                  ...     78976
          la=0 lb=0:  11731 shell pairs
          la=1 lb=0:  11890 shell pairs
          la=1 lb=1:   3097 shell pairs
          la=2 lb=0:   5154 shell pairs
          la=2 lb=1:   2679 shell pairs
          la=2 lb=2:    621 shell pairs
          la=3 lb=0:   2437 shell pairs
          la=3 lb=1:   1241 shell pairs
          la=3 lb=2:    542 shell pairs
          la=3 lb=3:    131 shell pairs

Calculating one electron integrals          ... done (  0.1 sec)
Calculating RI/J V-Matrix + Cholesky decomp.... done (  0.1 sec)
Calculating Nuclear repulsion               ... done (  0.0 sec) ENN=   1798.713930250460 Eh

Diagonalization of the overlap matrix:
Smallest eigenvalue                        ... 8.492e-06
Time for diagonalization                   ...    0.135 sec
Threshold for overlap eigenvalues          ... 1.000e-07
Number of eigenvalues below threshold      ... 0
Time for construction of square roots      ...    0.060 sec
Total time needed                          ...    0.200 sec

-------------------
DFT GRID GENERATION
-------------------

General Integration Accuracy     IntAcc      ... 4.388
Radial Grid Type                 RadialGrid  ... OptM3 with GC (2021)
Angular Grid (max. ang.)         AngularGrid ... 4 (Lebedev-302)
Angular grid pruning method      GridPruning ... 4 (adaptive)
Weight generation scheme         WeightScheme... mBecke (2022)
Basis function cutoff            BFCut       ... 1.0000e-10
Integration weight cutoff        WCut        ... 1.0000e-14
Partially contracted basis set               ... off
Rotationally invariant grid construction     ... off
Angular grids for H and He will be reduced by one unit

Total number of grid points                  ...   205053
Total number of batches                      ...     3228
Average number of points per batch           ...       63
Average number of grid points per atom       ...     4363

--------------------
COSX GRID GENERATION
--------------------

GRIDX 1
-------
General Integration Accuracy     IntAcc      ... 3.816
Radial Grid Type                 RadialGrid  ... OptM3 with GC (2021)
Angular Grid (max. ang.)         AngularGrid ... 1 (Lebedev-50)
Angular grid pruning method      GridPruning ... 4 (adaptive)
Weight generation scheme         WeightScheme... mBecke (2022)
Basis function cutoff            BFCut       ... 1.0000e-10
Integration weight cutoff        WCut        ... 1.0000e-14
Partially contracted basis set               ... on
Rotationally invariant grid construction     ... off
Angular grids for H and He will be reduced by one unit

Total number of grid points                  ...    27077
Total number of batches                      ...      243
Average number of points per batch           ...      111
Average number of grid points per atom       ...      576
UseSFitting                                  ... on

GRIDX 2
-------
General Integration Accuracy     IntAcc      ... 4.020
Radial Grid Type                 RadialGrid  ... OptM3 with GC (2021)
Angular Grid (max. ang.)         AngularGrid ... 2 (Lebedev-110)
Angular grid pruning method      GridPruning ... 4 (adaptive)
Weight generation scheme         WeightScheme... mBecke (2022)
Basis function cutoff            BFCut       ... 1.0000e-10
Integration weight cutoff        WCut        ... 1.0000e-14
Partially contracted basis set               ... on
Rotationally invariant grid construction     ... off
Angular grids for H and He will be reduced by one unit

Total number of grid points                  ...    54452
Total number of batches                      ...      451
Average number of points per batch           ...      120
Average number of grid points per atom       ...     1159
UseSFitting                                  ... on

GRIDX 3
-------
General Integration Accuracy     IntAcc      ... 4.338
Radial Grid Type                 RadialGrid  ... OptM3 with GC (2021)
Angular Grid (max. ang.)         AngularGrid ... 3 (Lebedev-194)
Angular grid pruning method      GridPruning ... 4 (adaptive)
Weight generation scheme         WeightScheme... mBecke (2022)
Basis function cutoff            BFCut       ... 1.0000e-10
Integration weight cutoff        WCut        ... 1.0000e-14
Partially contracted basis set               ... on
Rotationally invariant grid construction     ... off
Angular grids for H and He will be reduced by one unit

Total number of grid points                  ...   118659
Total number of batches                      ...      950
Average number of points per batch           ...      124
Average number of grid points per atom       ...     2525
UseSFitting                                  ... on
Initializing property integral containers    ... done (  0.0 sec)

SHARK setup successfully completed in   4.8 seconds

Maximum memory used throughout the entire STARTUP-calculation: 87.7 MB


           ************************************************************
           *        Program running with 6 parallel MPI-processes     *
           *              working on a common directory               *
           ************************************************************
-------------------------------------------------------------------------------
                                 ORCA GUESS
                   Start orbitals & Density for SCF / CASSCF
-------------------------------------------------------------------------------

------------
SCF SETTINGS
------------
Hamiltonian:
 Density Functional     Method          .... DFT(GTOs)
 Exchange Functional    Exchange        .... M062X
 Correlation Functional Correlation     .... M062X
 Gradients option       PostSCFGGA      .... off
 Hybrid DFT is turned on
   Fraction HF Exchange ScalHFX         ....  0.540000
   Scaling of DF-GGA-X  ScalDFX         ....  0.460000
   Scaling of DF-GGA-C  ScalDFC         ....  1.000000
   Scaling of DF-LDA-C  ScalLDAC        ....  1.000000
   Perturbative correction              ....  0.000000
 RI-approximation to the Coulomb term is turned on
   Number of AuxJ basis functions       .... 1279
   RIJ-COSX (HFX calculated with COS-X)).... on


General Settings:
 Integral files         IntName         .... data/single_point_PO_M06-2x/80970/80970
 Hartree-Fock type      HFTyp           .... RHF
 Total Charge           Charge          ....    0
 Multiplicity           Mult            ....    1
 Number of Electrons    NEL             ....  158
 Basis Dimension        Dim             ....  788
 Nuclear Repulsion      ENuc            ....   1798.7139302505 Eh

Convergence Acceleration:
 AO-DIIS                CNVDIIS         .... on
   Start iteration      DIISMaxIt       ....    12
   Startup error        DIISStart       ....  0.200000
   # of expansion vecs  DIISMaxEq       ....     5
   Bias factor          DIISBfac        ....   1.050
   Max. coefficient     DIISMaxC        ....  10.000
 MO-DIIS                CNVKDIIS        .... off
 Trust-Rad. Augm. Hess. CNVTRAH         .... auto
   Auto Start mean grad. ratio tolernc. ....  1.125000
   Auto Start start iteration           ....    50
   Auto Start num. interpolation iter.  ....    10
   Max. Number of Micro iterations      ....    24
   Max. Number of Macro iterations      .... Maxiter - #DIIS iter
   Number of Davidson start vectors     ....     2
   Converg. threshold    (grad. norm)   ....   5.000e-05
   Grad. Scal. Fac. for Micro threshold ....   0.100
   Minimum threshold for Micro iter.    ....   1.000e-02
   NR start threshold (gradient norm)   ....   1.000e-04
   Initial trust radius                 ....   0.400
   Minimum AH scaling param. (alpha)    ....   1.000
   Maximum AH scaling param. (alpha)    .... 1000.000
   Quad. conv. algorithm                .... NR
   White noise on init. David. guess    .... on
   Maximum white noise                  ....   0.010
   Pseudo random numbers                .... off
   Inactive MOs                         .... canonical
   Orbital update algorithm             .... Taylor
   Preconditioner                       .... Diag
   Full preconditioner red. dimension   ....   250
 SOSCF                  CNVSOSCF        .... on
   Start iteration      SOSCFMaxIt      ....   150
   Startup grad/error   SOSCFStart      ....  0.003300
   Hessian update       SOSCFHessUp     .... L-BFGS
 Level Shifting         CNVShift        .... on
   Level shift para.    LevelShift      ....    0.2500
   Turn off err/grad.   ShiftErr        ....    0.0010
 Zerner damping         CNVZerner       .... off
 Static damping         CNVDamp         .... on
   Fraction old density DampFac         ....    0.7000
   Max. Damping (<1)    DampMax         ....    0.9800
   Min. Damping (>=0)   DampMin         ....    0.0000
   Turn off err/grad.   DampErr         ....    0.1000

SCF Procedure:
 Maximum # iterations   MaxIter         ....   125
 SCF integral mode      SCFMode         .... Direct
   Integral package                     .... SHARK and LIBINT hybrid scheme
 Reset frequency        DirectResetFreq ....    20
 Integral Threshold     Thresh          ....  1.000e-10 Eh
 Primitive CutOff       TCut            ....  1.000e-11 Eh

Convergence Tolerance:
 Convergence Check Mode ConvCheckMode   .... Total+1el-Energy
 Convergence forced     ConvForced      .... 0
 Energy Change          TolE            ....  1.000e-06 Eh
 1-El. energy change                    ....  1.000e-03 Eh
 Orbital Gradient       TolG            ....  5.000e-05
 Orbital Rotation angle TolX            ....  5.000e-05
 DIIS Error             TolErr          ....  1.000e-05

------------------------------
INITIAL GUESS: MODEL POTENTIAL
------------------------------
Loading Hartree-Fock densities                     ... done
Calculating cut-offs                               ... done
Initializing the effective Hamiltonian             ... done
Setting up the integral package (SHARK)            ... done
Starting the Coulomb interaction                   ... done (   0.6 sec)
Making the grid                                    ... done (   0.3 sec)
Mapping shells                                     ... done
Starting the XC term evaluation                    ... done (   0.5 sec)
  promolecular density results
     # of electrons  =    158.002010427
     EX              =   -130.706446194
     EC              =     -5.340369728
     EX+EC           =   -136.046815922
Transforming the Hamiltonian                       ... done (   0.1 sec)
Diagonalizing the Hamiltonian                      ... done (   0.1 sec)
Back transforming the eigenvectors                 ... done (   0.1 sec)
Now organizing SCF variables                       ... done
                      ------------------
                      INITIAL GUESS DONE (   1.8 sec)
                      ------------------
             **** ENERGY FILE WAS UPDATED (data/single_point_PO_M06-2x/80970/80970.en.tmp) ****
Finished Guess after   2.1 sec
Maximum memory used throughout the entire GUESS-calculation: 64.4 MB


           ************************************************************
           *        Program running with 6 parallel MPI-processes     *
           *              working on a common directory               *
           ************************************************************

-------------------------------------------------------------------------------------------
                                      ORCA LEAN-SCF
                              memory conserving SCF solver
-------------------------------------------------------------------------------------------

----------------------------------------D-I-I-S--------------------------------------------
Iteration    Energy (Eh)           Delta-E    RMSDP     MaxDP     DIISErr   Damp  Time(sec)
-------------------------------------------------------------------------------------------
               ***  Starting incremental Fock matrix formation  ***
    1    -1118.0904827526048848     0.00e+00  1.33e-03  1.22e-01  3.66e-01  0.700  19.8
    2    -1118.3773168236300535    -2.87e-01  1.09e-03  1.15e-01  1.59e-01  0.700  11.3
                               ***Turning on AO-DIIS***
    3    -1118.5043255200750991    -1.27e-01  5.90e-04  2.93e-02  4.62e-02  0.700  11.0
    4    -1118.5800570961507674    -7.57e-02  1.31e-03  5.68e-02  3.21e-02  0.000  10.4
    5    -1118.7440790579928489    -1.64e-01  1.36e-04  2.05e-02  3.82e-03  0.000  10.9
                              *** Initializing SOSCF ***
---------------------------------------S-O-S-C-F--------------------------------------
Iteration    Energy (Eh)           Delta-E    RMSDP     MaxDP     MaxGrad    Time(sec)
--------------------------------------------------------------------------------------
    6    -1118.7444971494467154    -4.18e-04  4.53e-05  4.43e-03  9.97e-04    10.2
               *** Restarting incremental Fock matrix formation ***
    7    -1118.7444911225754822     6.03e-06  9.48e-05  7.79e-03  1.22e-04    20.6
    8    -1118.7444938319006269    -2.71e-06  2.56e-05  2.07e-03  1.77e-04    14.5
    9    -1118.7444963391933470    -2.51e-06  2.16e-05  1.85e-03  2.77e-05    12.7
   10    -1118.7444964530088782    -1.14e-07  2.37e-06  1.86e-04  1.73e-05    12.6
                 **** Energy Check signals convergence ****

               *****************************************************
               *                     SUCCESS                       *
               *           SCF CONVERGED AFTER  10 CYCLES          *
               *****************************************************

Recomputing exchange energy using gridx3       ... done (   30.959 sec)
Old exchange energy                            :    -72.260297336 Eh
New exchange energy                            :    -72.260330571 Eh
Exchange energy change after final integration :     -0.000033235 Eh
Total energy after final integration           :  -1118.744529688 Eh
             **** ENERGY FILE WAS UPDATED (data/single_point_PO_M06-2x/80970/80970.en.tmp) ****

----------------
TOTAL SCF ENERGY
----------------

Total Energy       :      -1118.74452968753781 Eh          -30442.58632 eV

Components:
Nuclear Repulsion  :       1798.71393025045995 Eh           48945.49438 eV
Electronic Energy  :      -2917.45842670346883 Eh          -79388.07980 eV
One Electron Energy:      -5099.63906424133984 Eh         -138768.23378 eV
Two Electron Energy:       2182.18063753787101 Eh           59380.15398 eV

Virial components:
Potential Energy   :      -2231.65201836717279 Eh          -60726.33869 eV
Kinetic Energy     :       1112.90748867963498 Eh           30283.75236 eV
Virial Ratio       :          2.00524485733745

DFT components:
N(Alpha)           :       78.999999643482 electrons
N(Beta)            :       78.999999643482 electrons
N(Total)           :      157.999999286964 electrons
E(XC)              :      -67.114057655375 Eh       

---------------
SCF CONVERGENCE
---------------

  Last Energy change         ...    1.1382e-07  Tolerance :   1.0000e-06
  Last MAX-Density change    ...    1.8642e-04  Tolerance :   1.0000e-05
  Last RMS-Density change    ...    2.3708e-06  Tolerance :   1.0000e-06
  Last DIIS Error            ...    9.9721e-04  Tolerance :   1.0000e-05
  Last Orbital Gradient      ...    1.7322e-05  Tolerance :   5.0000e-05
  Last Orbital Rotation      ...    2.1820e-05  Tolerance :   5.0000e-05


----------------
ORBITAL ENERGIES
----------------

  NO   OCC          E(Eh)            E(eV) 
   0   2.0000     -78.080914     -2124.6897 
   1   2.0000     -19.556532      -532.1603 
   2   2.0000     -10.563099      -287.4365 
   3   2.0000     -10.558836      -287.3205 
   4   2.0000     -10.557896      -287.2949 
   5   2.0000     -10.555767      -287.2370 
   6   2.0000     -10.555059      -287.2177 
   7   2.0000     -10.553687      -287.1804 
   8   2.0000     -10.550369      -287.0901 
   9   2.0000     -10.548741      -287.0458 
  10   2.0000     -10.546555      -286.9864 
  11   2.0000     -10.541443      -286.8473 
  12   2.0000     -10.539899      -286.8052 
  13   2.0000     -10.536791      -286.7207 
  14   2.0000     -10.535928      -286.6972 
  15   2.0000     -10.535571      -286.6875 
  16   2.0000     -10.535519      -286.6860 
  17   2.0000     -10.534479      -286.6578 
  18   2.0000     -10.534421      -286.6562 
  19   2.0000     -10.533077      -286.6196 
  20   2.0000      -6.888181      -187.4369 
  21   2.0000      -5.005317      -136.2016 
  22   2.0000      -5.004813      -136.1879 
  23   2.0000      -5.003445      -136.1506 
  24   2.0000      -1.051841       -28.6221 
  25   2.0000      -0.962159       -26.1817 
  26   2.0000      -0.937632       -25.5143 
  27   2.0000      -0.932639       -25.3784 
  28   2.0000      -0.861814       -23.4512 
  29   2.0000      -0.847284       -23.0558 
  30   2.0000      -0.841701       -22.9039 
  31   2.0000      -0.838161       -22.8075 
  32   2.0000      -0.836233       -22.7551 
  33   2.0000      -0.834261       -22.7014 
  34   2.0000      -0.727777       -19.8038 
  35   2.0000      -0.700062       -19.0497 
  36   2.0000      -0.697728       -18.9861 
  37   2.0000      -0.690940       -18.8014 
  38   2.0000      -0.685447       -18.6520 
  39   2.0000      -0.683190       -18.5905 
  40   2.0000      -0.636462       -17.3190 
  41   2.0000      -0.634039       -17.2531 
  42   2.0000      -0.616423       -16.7737 
  43   2.0000      -0.582858       -15.8604 
  44   2.0000      -0.551457       -15.0059 
  45   2.0000      -0.548031       -14.9127 
  46   2.0000      -0.525603       -14.3024 
  47   2.0000      -0.523664       -14.2496 
  48   2.0000      -0.517736       -14.0883 
  49   2.0000      -0.509725       -13.8703 
  50   2.0000      -0.507504       -13.8099 
  51   2.0000      -0.505561       -13.7570 
  52   2.0000      -0.502795       -13.6818 
  53   2.0000      -0.492293       -13.3960 
  54   2.0000      -0.491360       -13.3706 
  55   2.0000      -0.470185       -12.7944 
  56   2.0000      -0.455455       -12.3935 
  57   2.0000      -0.452416       -12.3109 
  58   2.0000      -0.445084       -12.1113 
  59   2.0000      -0.444436       -12.0937 
  60   2.0000      -0.438125       -11.9220 
  61   2.0000      -0.429839       -11.6965 
  62   2.0000      -0.424845       -11.5606 
  63   2.0000      -0.417937       -11.3726 
  64   2.0000      -0.410492       -11.1700 
  65   2.0000      -0.404702       -11.0125 
  66   2.0000      -0.402793       -10.9606 
  67   2.0000      -0.400128       -10.8880 
  68   2.0000      -0.393481       -10.7072 
  69   2.0000      -0.378026       -10.2866 
  70   2.0000      -0.375594       -10.2204 
  71   2.0000      -0.371862       -10.1189 
  72   2.0000      -0.365227        -9.9383 
  73   2.0000      -0.360342        -9.8054 
  74   2.0000      -0.357648        -9.7321 
  75   2.0000      -0.322436        -8.7739 
  76   2.0000      -0.318604        -8.6697 
  77   2.0000      -0.314547        -8.5593 
  78   2.0000      -0.306596        -8.3429 
  79   0.0000      -0.003920        -0.1067 
  80   0.0000       0.009157         0.2492 
  81   0.0000       0.046926         1.2769 
  82   0.0000       0.067760         1.8439 
  83   0.0000       0.070247         1.9115 
  84   0.0000       0.076959         2.0942 
  85   0.0000       0.082350         2.2409 
  86   0.0000       0.087850         2.3905 
  87   0.0000       0.091687         2.4949 
  88   0.0000       0.097823         2.6619 
  89   0.0000       0.100052         2.7226 
*Only the first 10 virtual orbitals were printed.

                    ********************************
                    * MULLIKEN POPULATION ANALYSIS *
                    ********************************

-----------------------
MULLIKEN ATOMIC CHARGES
-----------------------
   0 C :   -0.273189
   1 C :   -0.277965
   2 C :   -0.370194
   3 C :   -0.176823
   4 C :   -0.372396
   5 C :   -0.276712
   6 P :    0.658576
   7 O :   -0.600716
   8 C :   -0.216018
   9 C :   -0.368801
  10 C :   -0.273640
  11 C :   -0.274842
  12 C :   -0.273445
  13 C :   -0.350945
  14 C :   -0.127201
  15 C :   -0.208509
  16 C :   -0.151964
  17 C :   -0.134450
  18 C :   -0.138910
  19 C :   -0.131980
  20 H :    0.145069
  21 H :    0.143294
  22 H :    0.148412
  23 H :    0.143542
  24 H :    0.164257
  25 H :    0.170853
  26 H :    0.185941
  27 H :    0.174087
  28 H :    0.187353
  29 H :    0.145550
  30 H :    0.148302
  31 H :    0.173070
  32 H :    0.198220
  33 H :    0.153749
  34 H :    0.145675
  35 H :    0.141213
  36 H :    0.149257
  37 H :    0.143571
  38 H :    0.140065
  39 H :    0.145904
  40 H :    0.168909
  41 H :    0.195880
  42 H :    0.185653
  43 H :    0.146782
  44 H :    0.148279
  45 H :    0.149710
  46 H :    0.197529
Sum of atomic charges:   -0.0000000

--------------------------------
MULLIKEN REDUCED ORBITAL CHARGES
--------------------------------
  0 C s       :     3.271383  s :     3.271383
      pz      :     0.902501  p :     2.909808
      px      :     0.960557
      py      :     1.046750
      dz2     :     0.020398  d :     0.087017
      dxz     :     0.018435
      dyz     :     0.019270
      dx2y2   :     0.012765
      dxy     :     0.016150
      f0      :     0.000815  f :     0.004981
      f+1     :     0.001242
      f-1     :     0.000858
      f+2     :     0.000479
      f-2     :     0.000425
      f+3     :     0.000548
      f-3     :     0.000613

  1 C s       :     3.290276  s :     3.290276
      pz      :     1.056081  p :     2.896028
      px      :     0.879112
      py      :     0.960836
      dz2     :     0.023231  d :     0.086678
      dxz     :     0.013220
      dyz     :     0.007137
      dx2y2   :     0.027445
      dxy     :     0.015645
      f0      :     0.000796  f :     0.004982
      f+1     :     0.000802
      f-1     :     0.000285
      f+2     :     0.000479
      f-2     :     0.000700
      f+3     :     0.001162
      f-3     :     0.000757

  2 C s       :     3.304891  s :     3.304891
      pz      :     0.876662  p :     2.971639
      px      :     1.034305
      py      :     1.060671
      dz2     :     0.013211  d :     0.088595
      dxz     :     0.023875
      dyz     :     0.020826
      dx2y2   :     0.019628
      dxy     :     0.011055
      f0      :     0.001014  f :     0.005070
      f+1     :     0.000906
      f-1     :     0.000845
      f+2     :     0.000353
      f-2     :     0.000594
      f+3     :     0.000701
      f-3     :     0.000657

  3 C s       :     3.146507  s :     3.146507
      pz      :     0.899754  p :     2.927135
      px      :     0.981110
      py      :     1.046271
      dz2     :     0.022614  d :     0.097914
      dxz     :     0.020166
      dyz     :     0.021674
      dx2y2   :     0.016809
      dxy     :     0.016649
      f0      :     0.000824  f :     0.005268
      f+1     :     0.001373
      f-1     :     0.000939
      f+2     :     0.000412
      f-2     :     0.000504
      f+3     :     0.000695
      f-3     :     0.000522

  4 C s       :     3.339348  s :     3.339348
      pz      :     1.085902  p :     2.939639
      px      :     0.883133
      py      :     0.970604
      dz2     :     0.022541  d :     0.088239
      dxz     :     0.014584
      dyz     :     0.008077
      dx2y2   :     0.027847
      dxy     :     0.015190
      f0      :     0.000773  f :     0.005171
      f+1     :     0.000876
      f-1     :     0.000296
      f+2     :     0.000500
      f-2     :     0.000721
      f+3     :     0.001221
      f-3     :     0.000784

  5 C s       :     3.284733  s :     3.284733
      pz      :     0.912993  p :     2.901067
      px      :     0.969176
      py      :     1.018898
      dz2     :     0.013639  d :     0.085948
      dxz     :     0.023227
      dyz     :     0.021051
      dx2y2   :     0.017731
      dxy     :     0.010300
      f0      :     0.001030  f :     0.004963
      f+1     :     0.000872
      f-1     :     0.000819
      f+2     :     0.000369
      f-2     :     0.000553
      f+3     :     0.000669
      f-3     :     0.000651

  6 P s       :     5.312680  s :     5.312680
      pz      :     2.602561  p :     8.292819
      px      :     2.877010
      py      :     2.813247
      dz2     :     0.109071  d :     0.670003
      dxz     :     0.196284
      dyz     :     0.198682
      dx2y2   :     0.077974
      dxy     :     0.087992
      f0      :     0.008443  f :     0.065923
      f+1     :     0.018305
      f-1     :     0.018308
      f+2     :     0.005975
      f-2     :     0.005283
      f+3     :     0.006288
      f-3     :     0.003320

  7 O s       :     3.873261  s :     3.873261
      pz      :     1.378374  p :     4.701922
      px      :     1.662090
      py      :     1.661459
      dz2     :     0.009684  d :     0.024298
      dxz     :     0.007196
      dyz     :     0.007001
      dx2y2   :     0.000243
      dxy     :     0.000175
      f0      :     0.000515  f :     0.001236
      f+1     :     0.000350
      f-1     :     0.000332
      f+2     :     0.000019
      f-2     :     0.000018
      f+3     :     0.000001
      f-3     :     0.000001

  8 C s       :     3.163888  s :     3.163888
      pz      :     1.003733  p :     2.949425
      px      :     0.991675
      py      :     0.954017
      dz2     :     0.022752  d :     0.097438
      dxz     :     0.013621
      dyz     :     0.015095
      dx2y2   :     0.021915
      dxy     :     0.024056
      f0      :     0.000767  f :     0.005268
      f+1     :     0.000539
      f-1     :     0.000645
      f+2     :     0.000574
      f-2     :     0.000593
      f+3     :     0.001399
      f-3     :     0.000750

  9 C s       :     3.326694  s :     3.326694
      pz      :     1.061241  p :     2.949147
      px      :     1.005387
      py      :     0.882519
      dz2     :     0.027057  d :     0.087873
      dxz     :     0.007887
      dyz     :     0.011010
      dx2y2   :     0.016344
      dxy     :     0.025576
      f0      :     0.000841  f :     0.005087
      f+1     :     0.000553
      f-1     :     0.000543
      f+2     :     0.000653
      f-2     :     0.000480
      f+3     :     0.001149
      f-3     :     0.000869

 10 C s       :     3.284413  s :     3.284413
      pz      :     1.013145  p :     2.897498
      px      :     0.875728
      py      :     1.008625
      dz2     :     0.026009  d :     0.086745
      dxz     :     0.013747
      dyz     :     0.004825
      dx2y2   :     0.028014
      dxy     :     0.014151
      f0      :     0.000799  f :     0.004983
      f+1     :     0.000803
      f-1     :     0.000290
      f+2     :     0.000467
      f-2     :     0.000637
      f+3     :     0.001151
      f-3     :     0.000836

 11 C s       :     3.273445  s :     3.273445
      pz      :     1.041026  p :     2.909276
      px      :     0.965348
      py      :     0.902902
      dz2     :     0.022008  d :     0.087120
      dxz     :     0.010158
      dyz     :     0.012424
      dx2y2   :     0.020017
      dxy     :     0.022512
      f0      :     0.000832  f :     0.005001
      f+1     :     0.000379
      f-1     :     0.000601
      f+2     :     0.000569
      f-2     :     0.000568
      f+3     :     0.001212
      f-3     :     0.000841

 12 C s       :     3.281621  s :     3.281621
      pz      :     1.010236  p :     2.900331
      px      :     0.963104
      py      :     0.926991
      dz2     :     0.026705  d :     0.086504
      dxz     :     0.006650
      dyz     :     0.011224
      dx2y2   :     0.015259
      dxy     :     0.026666
      f0      :     0.000792  f :     0.004990
      f+1     :     0.000545
      f-1     :     0.000577
      f+2     :     0.000648
      f-2     :     0.000451
      f+3     :     0.001093
      f-3     :     0.000884

 13 C s       :     3.326335  s :     3.326335
      pz      :     1.056934  p :     2.932678
      px      :     0.870207
      py      :     1.005537
      dz2     :     0.026332  d :     0.086838
      dxz     :     0.013297
      dyz     :     0.005765
      dx2y2   :     0.026792
      dxy     :     0.014653
      f0      :     0.000847  f :     0.005094
      f+1     :     0.000791
      f-1     :     0.000284
      f+2     :     0.000491
      f-2     :     0.000659
      f+3     :     0.001222
      f-3     :     0.000800

 14 C s       :     3.264548  s :     3.264548
      pz      :     0.856117  p :     2.780877
      px      :     0.989511
      py      :     0.935249
      dz2     :     0.017342  d :     0.074698
      dxz     :     0.019988
      dyz     :     0.016453
      dx2y2   :     0.010141
      dxy     :     0.010774
      f0      :     0.001143  f :     0.007079
      f+1     :     0.001238
      f-1     :     0.001642
      f+2     :     0.000840
      f-2     :     0.000627
      f+3     :     0.000814
      f-3     :     0.000774

 15 C s       :     3.197801  s :     3.197801
      pz      :     0.920567  p :     2.935874
      px      :     0.958932
      py      :     1.056376
      dz2     :     0.011600  d :     0.068298
      dxz     :     0.014524
      dyz     :     0.022083
      dx2y2   :     0.006944
      dxy     :     0.013148
      f0      :     0.000936  f :     0.006536
      f+1     :     0.001038
      f-1     :     0.001518
      f+2     :     0.000853
      f-2     :     0.000366
      f+3     :     0.001035
      f-3     :     0.000790

 16 C s       :     3.228949  s :     3.228949
      pz      :     0.994807  p :     2.856326
      px      :     0.965223
      py      :     0.896297
      dz2     :     0.013377  d :     0.060379
      dxz     :     0.005627
      dyz     :     0.014612
      dx2y2   :     0.008561
      dxy     :     0.018201
      f0      :     0.000923  f :     0.006310
      f+1     :     0.000268
      f-1     :     0.001282
      f+2     :     0.000995
      f-2     :     0.000753
      f+3     :     0.001181
      f-3     :     0.000909

 17 C s       :     3.226663  s :     3.226663
      pz      :     0.894740  p :     2.840437
      px      :     0.952552
      py      :     0.993145
      dz2     :     0.012394  d :     0.061071
      dxz     :     0.019174
      dyz     :     0.015329
      dx2y2   :     0.007824
      dxy     :     0.006351
      f0      :     0.001098  f :     0.006279
      f+1     :     0.001106
      f-1     :     0.001386
      f+2     :     0.000771
      f-2     :     0.000623
      f+3     :     0.000564
      f-3     :     0.000730

 18 C s       :     3.225569  s :     3.225569
      pz      :     0.926609  p :     2.847777
      px      :     0.966153
      py      :     0.955015
      dz2     :     0.011494  d :     0.059335
      dxz     :     0.013748
      dyz     :     0.015317
      dx2y2   :     0.007689
      dxy     :     0.011087
      f0      :     0.000949  f :     0.006229
      f+1     :     0.001052
      f-1     :     0.001395
      f+2     :     0.000824
      f-2     :     0.000311
      f+3     :     0.000961
      f-3     :     0.000736

 19 C s       :     3.199286  s :     3.199286
      pz      :     1.043113  p :     2.863279
      px      :     0.916717
      py      :     0.903449
      dz2     :     0.015263  d :     0.062918
      dxz     :     0.005714
      dyz     :     0.015015
      dx2y2   :     0.007896
      dxy     :     0.019030
      f0      :     0.000843  f :     0.006498
      f+1     :     0.000217
      f-1     :     0.001496
      f+2     :     0.000973
      f-2     :     0.000753
      f+3     :     0.001219
      f-3     :     0.000996

 20 H s       :     0.836347  s :     0.836347
      pz      :     0.003760  p :     0.018584
      px      :     0.009020
      py      :     0.005804

 21 H s       :     0.838454  s :     0.838454
      pz      :     0.004723  p :     0.018252
      px      :     0.003812
      py      :     0.009716

 22 H s       :     0.833273  s :     0.833273
      pz      :     0.004088  p :     0.018315
      px      :     0.003530
      py      :     0.010696

 23 H s       :     0.837852  s :     0.837852
      pz      :     0.011472  p :     0.018605
      px      :     0.003672
      py      :     0.003461

 24 H s       :     0.817126  s :     0.817126
      pz      :     0.005094  p :     0.018617
      px      :     0.008915
      py      :     0.004608

 25 H s       :     0.810260  s :     0.810260
      pz      :     0.004785  p :     0.018886
      px      :     0.003409
      py      :     0.010693

 26 H s       :     0.794084  s :     0.794084
      pz      :     0.004879  p :     0.019974
      px      :     0.004241
      py      :     0.010854

 27 H s       :     0.807524  s :     0.807524
      pz      :     0.004100  p :     0.018389
      px      :     0.003346
      py      :     0.010943

 28 H s       :     0.793363  s :     0.793363
      pz      :     0.011975  p :     0.019284
      px      :     0.003907
      py      :     0.003401

 29 H s       :     0.835801  s :     0.835801
      pz      :     0.005205  p :     0.018649
      px      :     0.008820
      py      :     0.004624

 30 H s       :     0.833408  s :     0.833408
      pz      :     0.004982  p :     0.018290
      px      :     0.003384
      py      :     0.009924

 31 H s       :     0.807244  s :     0.807244
      pz      :     0.011913  p :     0.019686
      px      :     0.004171
      py      :     0.003602

 32 H s       :     0.783059  s :     0.783059
      pz      :     0.012153  p :     0.018721
      px      :     0.003250
      py      :     0.003318

 33 H s       :     0.827546  s :     0.827546
      pz      :     0.003982  p :     0.018705
      px      :     0.008964
      py      :     0.005759

 34 H s       :     0.835685  s :     0.835685
      pz      :     0.003911  p :     0.018641
      px      :     0.003576
      py      :     0.011154

 35 H s       :     0.840563  s :     0.840563
      pz      :     0.011439  p :     0.018224
      px      :     0.003396
      py      :     0.003389

 36 H s       :     0.832408  s :     0.832408
      pz      :     0.011432  p :     0.018335
      px      :     0.003534
      py      :     0.003368

 37 H s       :     0.837848  s :     0.837848
      pz      :     0.004528  p :     0.018582
      px      :     0.009289
      py      :     0.004765

 38 H s       :     0.841728  s :     0.841728
      pz      :     0.011443  p :     0.018207
      px      :     0.003354
      py      :     0.003410

 39 H s       :     0.835451  s :     0.835451
      pz      :     0.003836  p :     0.018646
      px      :     0.008828
      py      :     0.005982

 40 H s       :     0.812224  s :     0.812224
      pz      :     0.003979  p :     0.018867
      px      :     0.003572
      py      :     0.011316

 41 H s       :     0.785169  s :     0.785169
      pz      :     0.012319  p :     0.018951
      px      :     0.003287
      py      :     0.003345

 42 H s       :     0.794599  s :     0.794599
      pz      :     0.007327  p :     0.019748
      px      :     0.004182
      py      :     0.008238

 43 H s       :     0.833530  s :     0.833530
      pz      :     0.012684  p :     0.019688
      px      :     0.003818
      py      :     0.003185

 44 H s       :     0.832072  s :     0.832072
      pz      :     0.003723  p :     0.019649
      px      :     0.003931
      py      :     0.011996

 45 H s       :     0.830583  s :     0.830583
      pz      :     0.007335  p :     0.019707
      px      :     0.004077
      py      :     0.008295

 46 H s       :     0.781677  s :     0.781677
      pz      :     0.013488  p :     0.020795
      px      :     0.003456
      py      :     0.003851



                     *******************************
                     * LOEWDIN POPULATION ANALYSIS *
                     *******************************

----------------------
LOEWDIN ATOMIC CHARGES
----------------------
   0 C :   -0.271576
   1 C :   -0.267039
   2 C :   -0.268061
   3 C :   -0.339146
   4 C :   -0.259536
   5 C :   -0.268618
   6 P :    0.665662
   7 O :   -0.322897
   8 C :   -0.340848
   9 C :   -0.263665
  10 C :   -0.269163
  11 C :   -0.271179
  12 C :   -0.269489
  13 C :   -0.259888
  14 C :   -0.234976
  15 C :   -0.145166
  16 C :   -0.143323
  17 C :   -0.134265
  18 C :   -0.137025
  19 C :   -0.120037
  20 H :    0.137833
  21 H :    0.140608
  22 H :    0.140853
  23 H :    0.138224
  24 H :    0.138790
  25 H :    0.147434
  26 H :    0.163363
  27 H :    0.146873
  28 H :    0.150973
  29 H :    0.139402
  30 H :    0.141057
  31 H :    0.151490
  32 H :    0.153540
  33 H :    0.138394
  34 H :    0.139137
  35 H :    0.139067
  36 H :    0.142646
  37 H :    0.137334
  38 H :    0.138731
  39 H :    0.139575
  40 H :    0.144961
  41 H :    0.153834
  42 H :    0.147846
  43 H :    0.148144
  44 H :    0.148253
  45 H :    0.149211
  46 H :    0.162663

-------------------------------
LOEWDIN REDUCED ORBITAL CHARGES
-------------------------------
  0 C s       :     2.786121  s :     2.786121
      pz      :     1.020423  p :     3.057060
      px      :     1.009021
      py      :     1.027616
      dz2     :     0.098351  d :     0.391081
      dxz     :     0.082515
      dyz     :     0.079933
      dx2y2   :     0.057074
      dxy     :     0.073209
      f0      :     0.005259  f :     0.037313
      f+1     :     0.009291
      f-1     :     0.006125
      f+2     :     0.005479
      f-2     :     0.003812
      f+3     :     0.003374
      f-3     :     0.003973

  1 C s       :     2.786145  s :     2.786145
      pz      :     1.016950  p :     3.051786
      px      :     1.016252
      py      :     1.018584
      dz2     :     0.098576  d :     0.391842
      dxz     :     0.065950
      dyz     :     0.034923
      dx2y2   :     0.111496
      dxy     :     0.080897
      f0      :     0.004598  f :     0.037266
      f+1     :     0.005375
      f-1     :     0.001955
      f+2     :     0.005404
      f-2     :     0.006526
      f+3     :     0.008014
      f-3     :     0.005395

  2 C s       :     2.782489  s :     2.782489
      pz      :     1.003387  p :     3.053113
      px      :     1.018569
      py      :     1.031157
      dz2     :     0.076682  d :     0.394859
      dxz     :     0.098332
      dyz     :     0.084844
      dx2y2   :     0.077712
      dxy     :     0.057289
      f0      :     0.007013  f :     0.037600
      f+1     :     0.006636
      f-1     :     0.005893
      f+2     :     0.004379
      f-2     :     0.004775
      f+3     :     0.004728
      f-3     :     0.004178

  3 C s       :     2.782006  s :     2.782006
      pz      :     1.017161  p :     3.073560
      px      :     1.031172
      py      :     1.025227
      dz2     :     0.105824  d :     0.443990
      dxz     :     0.095556
      dyz     :     0.085167
      dx2y2   :     0.075889
      dxy     :     0.081554
      f0      :     0.005424  f :     0.039591
      f+1     :     0.009702
      f-1     :     0.006214
      f+2     :     0.005441
      f-2     :     0.004498
      f+3     :     0.004311
      f-3     :     0.004002

  4 C s       :     2.782529  s :     2.782529
      pz      :     1.025682  p :     3.047033
      px      :     1.000702
      py      :     1.020650
      dz2     :     0.094294  d :     0.392433
      dxz     :     0.068508
      dyz     :     0.035062
      dx2y2   :     0.115057
      dxy     :     0.079512
      f0      :     0.004378  f :     0.037541
      f+1     :     0.005513
      f-1     :     0.001938
      f+2     :     0.005601
      f-2     :     0.006598
      f+3     :     0.008093
      f-3     :     0.005420

  5 C s       :     2.785289  s :     2.785289
      pz      :     1.014586  p :     3.053488
      px      :     1.012770
      py      :     1.026132
      dz2     :     0.076868  d :     0.392438
      dxz     :     0.095656
      dyz     :     0.085347
      dx2y2   :     0.076669
      dxy     :     0.057899
      f0      :     0.006924  f :     0.037403
      f+1     :     0.006590
      f-1     :     0.005773
      f+2     :     0.004485
      f-2     :     0.004797
      f+3     :     0.004622
      f-3     :     0.004212

  6 P s       :     4.657944  s :     4.657944
      pz      :     2.727379  p :     8.283595
      px      :     2.783559
      py      :     2.772657
      dz2     :     0.254526  d :     1.172124
      dxz     :     0.302910
      dyz     :     0.299281
      dx2y2   :     0.151615
      dxy     :     0.163791
      f0      :     0.041097  f :     0.220676
      f+1     :     0.054476
      f-1     :     0.054914
      f+2     :     0.019626
      f-2     :     0.017976
      f+3     :     0.020036
      f-3     :     0.012552

  7 O s       :     3.540290  s :     3.540290
      pz      :     1.531091  p :     4.738983
      px      :     1.604283
      py      :     1.603609
      dz2     :     0.024334  d :     0.041550
      dxz     :     0.008679
      dyz     :     0.007925
      dx2y2   :     0.000327
      dxy     :     0.000286
      f0      :     0.001111  f :     0.002075
      f+1     :     0.000473
      f-1     :     0.000417
      f+2     :     0.000030
      f-2     :     0.000040
      f+3     :     0.000003
      f-3     :     0.000002

  8 C s       :     2.781909  s :     2.781909
      pz      :     1.020087  p :     3.077259
      px      :     1.030356
      py      :     1.026815
      dz2     :     0.097381  d :     0.442021
      dxz     :     0.066345
      dyz     :     0.064422
      dx2y2   :     0.103910
      dxy     :     0.109964
      f0      :     0.005362  f :     0.039659
      f+1     :     0.002990
      f-1     :     0.004135
      f+2     :     0.005829
      f-2     :     0.005932
      f+3     :     0.009636
      f-3     :     0.005776

  9 C s       :     2.782501  s :     2.782501
      pz      :     1.040493  p :     3.049964
      px      :     1.014585
      py      :     0.994886
      dz2     :     0.103745  d :     0.393826
      dxz     :     0.040197
      dyz     :     0.052815
      dx2y2   :     0.081457
      dxy     :     0.115611
      f0      :     0.004646  f :     0.037374
      f+1     :     0.003454
      f-1     :     0.003721
      f+2     :     0.006525
      f-2     :     0.005339
      f+3     :     0.007486
      f-3     :     0.006203

 10 C s       :     2.785580  s :     2.785580
[...]
      px      :     0.012324
      py      :     0.011781

 29 H s       :     0.805023  s :     0.805023
      pz      :     0.015366  p :     0.055574
      px      :     0.024565
      py      :     0.015643

 30 H s       :     0.803896  s :     0.803896
      pz      :     0.014952  p :     0.055047
      px      :     0.011832
      py      :     0.028263

 31 H s       :     0.790793  s :     0.790793
      pz      :     0.031728  p :     0.057717
      px      :     0.013665
      py      :     0.012324

 32 H s       :     0.789632  s :     0.789632
      pz      :     0.034074  p :     0.056828
      px      :     0.011541
      py      :     0.011214

 33 H s       :     0.805370  s :     0.805370
      pz      :     0.014225  p :     0.056236
      px      :     0.024643
      py      :     0.017368

 34 H s       :     0.805274  s :     0.805274
      pz      :     0.013778  p :     0.055590
      px      :     0.011808
      py      :     0.030004

 35 H s       :     0.805995  s :     0.805995
      pz      :     0.031641  p :     0.054939
      px      :     0.011695
      py      :     0.011603

 36 H s       :     0.802104  s :     0.802104
      pz      :     0.031968  p :     0.055250
      px      :     0.011714
      py      :     0.011568

 37 H s       :     0.807156  s :     0.807156
      pz      :     0.015600  p :     0.055510
      px      :     0.025329
      py      :     0.014581

 38 H s       :     0.806376  s :     0.806376
      pz      :     0.031621  p :     0.054893
      px      :     0.011645
      py      :     0.011628

 39 H s       :     0.804853  s :     0.804853
      pz      :     0.013541  p :     0.055571
      px      :     0.024478
      py      :     0.017552

 40 H s       :     0.798208  s :     0.798208
      pz      :     0.014285  p :     0.056831
      px      :     0.011751
      py      :     0.030795

 41 H s       :     0.788976  s :     0.788976
      pz      :     0.034370  p :     0.057189
      px      :     0.011273
      py      :     0.011546

 42 H s       :     0.795484  s :     0.795484
      pz      :     0.020807  p :     0.056670
      px      :     0.013218
      py      :     0.022645

 43 H s       :     0.795967  s :     0.795967
      pz      :     0.032856  p :     0.055889
      px      :     0.012042
      py      :     0.010991

 44 H s       :     0.795976  s :     0.795976
      pz      :     0.012309  p :     0.055771
      px      :     0.012172
      py      :     0.031289

 45 H s       :     0.794927  s :     0.794927
      pz      :     0.020602  p :     0.055861
      px      :     0.012562
      py      :     0.022698

 46 H s       :     0.778413  s :     0.778413
      pz      :     0.035722  p :     0.058924
      px      :     0.011128
      py      :     0.012074



                      *****************************
                      * MAYER POPULATION ANALYSIS *
                      *****************************

  NA   - Mulliken gross atomic population
  ZA   - Total nuclear charge
  QA   - Mulliken gross atomic charge
  VA   - Mayer's total valence
  BVA  - Mayer's bonded valence
  FA   - Mayer's free valence

  ATOM       NA         ZA         QA         VA         BVA        FA
  0 C      6.2732     6.0000    -0.2732     3.7412     3.7412    -0.0000
  1 C      6.2780     6.0000    -0.2780     3.7963     3.7963     0.0000
  2 C      6.3702     6.0000    -0.3702     3.7194     3.7194     0.0000
  3 C      6.1768     6.0000    -0.1768     3.4713     3.4713    -0.0000
  4 C      6.3724     6.0000    -0.3724     3.7768     3.7768    -0.0000
  5 C      6.2767     6.0000    -0.2767     3.7588     3.7588    -0.0000
  6 P     14.3414    15.0000     0.6586     4.8001     4.8001     0.0000
  7 O      8.6007     8.0000    -0.6007     1.9819     1.9819    -0.0000
  8 C      6.2160     6.0000    -0.2160     3.5530     3.5530     0.0000
  9 C      6.3688     6.0000    -0.3688     3.7436     3.7436    -0.0000
 10 C      6.2736     6.0000    -0.2736     3.7705     3.7705    -0.0000
 11 C      6.2748     6.0000    -0.2748     3.7475     3.7475     0.0000
 12 C      6.2734     6.0000    -0.2734     3.7590     3.7590     0.0000
 13 C      6.3509     6.0000    -0.3509     3.7352     3.7352    -0.0000
 14 C      6.1272     6.0000    -0.1272     3.7092     3.7092    -0.0000
 15 C      6.2085     6.0000    -0.2085     3.9025     3.9025     0.0000
 16 C      6.1520     6.0000    -0.1520     4.0132     4.0132     0.0000
 17 C      6.1344     6.0000    -0.1344     3.9375     3.9375    -0.0000
 18 C      6.1389     6.0000    -0.1389     3.9205     3.9205    -0.0000
 19 C      6.1320     6.0000    -0.1320     3.9213     3.9213    -0.0000
 20 H      0.8549     1.0000     0.1451     0.9559     0.9559     0.0000
 21 H      0.8567     1.0000     0.1433     0.9578     0.9578    -0.0000
 22 H      0.8516     1.0000     0.1484     0.9566     0.9566     0.0000
 23 H      0.8565     1.0000     0.1435     0.9559     0.9559     0.0000
 24 H      0.8357     1.0000     0.1643     0.9491     0.9491     0.0000
 25 H      0.8291     1.0000     0.1709     0.9502     0.9502     0.0000
 26 H      0.8141     1.0000     0.1859     0.9385     0.9385    -0.0000
 27 H      0.8259     1.0000     0.1741     0.9457     0.9457    -0.0000
 28 H      0.8126     1.0000     0.1874     0.9691     0.9691     0.0000
 29 H      0.8545     1.0000     0.1455     0.9575     0.9575    -0.0000
 30 H      0.8517     1.0000     0.1483     0.9554     0.9554     0.0000
 31 H      0.8269     1.0000     0.1731     0.9366     0.9366    -0.0000
 32 H      0.8018     1.0000     0.1982     0.9586     0.9586    -0.0000
 33 H      0.8463     1.0000     0.1537     0.9539     0.9539    -0.0000
 34 H      0.8543     1.0000     0.1457     0.9558     0.9558    -0.0000
 35 H      0.8588     1.0000     0.1412     0.9563     0.9563     0.0000
 36 H      0.8507     1.0000     0.1493     0.9569     0.9569     0.0000
 37 H      0.8564     1.0000     0.1436     0.9561     0.9561     0.0000
 38 H      0.8599     1.0000     0.1401     0.9559     0.9559     0.0000
 39 H      0.8541     1.0000     0.1459     0.9564     0.9564     0.0000
 40 H      0.8311     1.0000     0.1689     0.9557     0.9557     0.0000
 41 H      0.8041     1.0000     0.1959     0.9616     0.9616    -0.0000
 42 H      0.8143     1.0000     0.1857     0.9438     0.9438     0.0000
 43 H      0.8532     1.0000     0.1468     0.9657     0.9657     0.0000
 44 H      0.8517     1.0000     0.1483     0.9632     0.9632    -0.0000
 45 H      0.8503     1.0000     0.1497     0.9655     0.9655    -0.0000
 46 H      0.8025     1.0000     0.1975     0.9763     0.9763     0.0000

  Mayer bond orders larger than 0.100000
B(  0-C ,  1-C ) :   0.9218 B(  0-C ,  5-C ) :   0.9154 B(  0-C , 20-H ) :   0.9818 
B(  0-C , 21-H ) :   0.9785 B(  1-C ,  2-C ) :   0.9326 B(  1-C , 22-H ) :   0.9846 
B(  1-C , 23-H ) :   0.9826 B(  2-C ,  3-C ) :   0.8410 B(  2-C , 24-H ) :   0.9811 
B(  2-C , 25-H ) :   0.9630 B(  3-C ,  4-C ) :   0.8984 B(  3-C ,  6-P ) :   0.8826 
B(  3-C , 26-H ) :   0.9352 B(  4-C ,  5-C ) :   0.9135 B(  4-C , 27-H ) :   0.9749 
B(  4-C , 28-H ) :   0.9741 B(  5-C , 29-H ) :   0.9870 B(  5-C , 30-H ) :   0.9817 
B(  6-P ,  7-O ) :   1.9444 B(  6-P ,  8-C ) :   0.8829 B(  6-P , 14-C ) :   0.8962 
B(  8-C ,  9-C ) :   0.8779 B(  8-C , 13-C ) :   0.8928 B(  8-C , 31-H ) :   0.9340 
B(  9-C , 10-C ) :   0.9189 B(  9-C , 32-H ) :   0.9717 B(  9-C , 33-H ) :   0.9787 
B( 10-C , 11-C ) :   0.9232 B( 10-C , 34-H ) :   0.9853 B( 10-C , 35-H ) :   0.9817 
B( 11-C , 12-C ) :   0.9204 B( 11-C , 36-H ) :   0.9777 B( 11-C , 37-H ) :   0.9827 
B( 12-C , 13-C ) :   0.9101 B( 12-C , 38-H ) :   0.9810 B( 12-C , 39-H ) :   0.9858 
B( 13-C , 40-H ) :   0.9780 B( 13-C , 41-H ) :   0.9728 B( 14-C , 15-C ) :   1.3320 
B( 14-C , 19-C ) :   1.4085 B( 15-C , 16-C ) :   1.4936 B( 15-C , 42-H ) :   0.9223 
B( 16-C , 17-C ) :   1.4426 B( 16-C , 43-H ) :   0.9445 B( 17-C , 18-C ) :   1.4369 
B( 17-C , 44-H ) :   0.9467 B( 18-C , 19-C ) :   1.4336 B( 18-C , 45-H ) :   0.9474 
B( 19-C , 46-H ) :   0.9081 

-------
TIMINGS
-------

Total SCF time: 0 days 0 hours 2 min 46 sec 

Total time                  ....     166.012 sec
Sum of individual times     ....     166.069 sec  (100.0%)

SCF preparation             ....       0.357 sec  (  0.2%)
Fock matrix formation       ....     160.973 sec  ( 97.0%)
  Startup                   ....       0.155 sec  (  0.1% of F)
  Split-RI-J                ....      11.601 sec  (  7.2% of F)
  Chain of spheres X        ....     115.227 sec  ( 71.6% of F)
  XC integration            ....      33.571 sec  ( 20.9% of F)
    Basis function eval.    ....       4.727 sec  ( 14.1% of XC)
    Density eval.           ....      14.657 sec  ( 43.7% of XC)
    XC-Functional eval.     ....       0.556 sec  (  1.7% of XC)
    XC-Potential eval.      ....      12.077 sec  ( 36.0% of XC)
Diagonalization             ....       0.000 sec  (  0.0%)
Density matrix formation    ....       0.394 sec  (  0.2%)
Total Energy calculation    ....       0.136 sec  (  0.1%)
Population analysis         ....       0.263 sec  (  0.2%)
Orbital Transformation      ....       0.553 sec  (  0.3%)
Orbital Orthonormalization  ....       0.000 sec  (  0.0%)
DIIS solution               ....       2.276 sec  (  1.4%)
SOSCF solution              ....       1.117 sec  (  0.7%)
Finished LeanSCF after 166.1 sec

Maximum memory used throughout the entire LEANSCF-calculation: 126.2 MB


-------------------------------------------------------------------------------
                          DFT DISPERSION CORRECTION                            
                                                                               
                              DFTD3 V3.1  Rev 1                                
                              USING zero damping                               
-------------------------------------------------------------------------------
The M062X functional is recognized
Active option DFTDOPT                   ...         3   

molecular C6(AA) [au] = 20815.615413 


            DFT-D V3
 parameters
 s6 scaling factor         :     1.0000 
 rs6 scaling factor        :     1.6190 
 s8 scaling factor         :     0.0000 
 rs8 scaling factor        :     1.0000 
 Damping factor alpha6     :    14.0000 
 Damping factor alpha8     :    16.0000 
 ad hoc parameters k1-k3   :    16.0000     1.3333    -4.0000 

 Edisp/kcal,au: -2.159336486370  -0.003441121362 
 E6   /kcal   :  -2.159336486 
 E8   /kcal   :  -0.000000000 
 % E8         :   0.000000000 

-------------------------   ----------------
Dispersion correction           -0.003441121
-------------------------   ----------------


-------------------------   --------------------
FINAL SINGLE POINT ENERGY     -1118.747970808900
-------------------------   --------------------



           ************************************************************
           *        Program running with 6 parallel MPI-processes     *
           *              working on a common directory               *
           ************************************************************

------------------------------------------------------------------------------
                              ORCA PROPERTY CALCULATIONS
------------------------------------------------------------------------------

GBWName                                 ... data/single_point_PO_M06-2x/80970/80970.gbw
Number of atoms                         ...     47
Number of basis functions               ...    788
Max core memory                         ...   1024 MB

Electric properties:
Dipole moment                           ... YES
Quadrupole moment                       ...  NO
Static polarizability (Dipole/Dipole)   ...  NO
Static polarizability (Dipole/Quad.)    ...  NO
Static polarizability (Quad./Quad.)     ...  NO
Static polarizability (Velocity)        ...  NO

Atomic electric properties:
Dipole moment                           ...  NO
Quadrupole moment                       ...  NO
Static polarizability                   ...  NO

Choice of electric origin               ... Center of mass
Position of electric origin             ...    -0.005701     0.524286    -0.355446

General magnetic properties:
Magnetizability                         ...  NO

EPR properties:
g-Tensor (aka g-matrix)                 ...  NO
Zero-Field splitting spin-orbit         ...  NO
Zero-field splitting spin-spin          ...  NO
Hyperfine couplings                     ...  NO (   0 nuclei)
Quadrupole couplings                    ...  NO (   0 nuclei)
Contact density                         ...  NO (   0 nuclei)

NMR properties:
Chemical shifts                         ...  NO (   0 nuclei)
Spin-rotation constants                 ...  NO (   0 nuclei)
Spin-spin couplings                     ...  NO (   0 nuclei,    0 pairs)

Choice of magnetic origin               ... GIAO
Position of magnetic origin             ...     0.000000     0.000000     0.000000

Properties with geometric perturbations:
SCF Hessian                             ...  NO
IR spectrum                             ...  NO
VCD spectrum                            ...  NO
X-ray spectroscopy properties:
SCF XES/XAS/RIXS spectra                ...  NO


-------------
DIPOLE MOMENT
-------------

Method             : SCF
Type of density    : Electron Density
Multiplicity       :   1
Irrep              :   0
Energy             : -1118.7445296875378062 Eh
Relativity type    : 
Basis              : AO
                                X                 Y                 Z
Electronic contribution:      0.270506748      13.441509237      -6.152361066
Nuclear contribution   :     -0.048718295     -13.425612698       7.703247202
                        -----------------------------------------
Total Dipole Moment    :      0.221788454       0.015896539       1.550886137
                        -----------------------------------------
Magnitude (a.u.)       :      1.566745234
Magnitude (Debye)      :      3.982349901



--------------------
Rotational spectrum 
--------------------
 
Rotational constants in cm-1:             0.011535             0.008743             0.006093 
Rotational constants in MHz :           345.819194           262.097521           182.671054 

Dipole components along the rotational axes: 
x,y,z [a.u.] :     0.283594     0.036480     1.540433 
x,y,z [Debye]:     0.720838     0.092725     3.915470 

 

Dipole moment calculation done in   0.0 sec 

Maximum memory used throughout the entire PROP-calculation: 66.9 MB

--------------------------------
SUGGESTED CITATIONS FOR THIS RUN
--------------------------------

Below you find a list of papers that are relevant to this ORCA run
We neither can nor want to force you to cite these papers, but we appreciate if you do
You receive ORCA, which is the product of decades of hard work by many enthusiastic individuals, for free
The only thing we kindly ask in return is that you cite our papers,
We deeply appreciate it, if you show your appreciation for ORCA by not just citing the generic ORCA reference.

Please note that relegating all ORCA citations to the supporting information does *not* help us.
SI sections are not indexed - citations you put there will not count into any citation statistics
But we need these citations in order to attract the funding resources that allow us to do what we are doing

Therefore, if you are a happy ORCA user, please consider citing a few of the papers listed below in the main body of your paper

In addition to the list printed below, the program has created the file data/single_point_PO_M06-2x/80970/80970.bibtex that contains the list in bibtex format
You can import this file easily into all common literature databanks and citation aid programs


List of essential papers. We consider these as the minimum necessary citations

  1. Neese,F.
     Software update: the ORCA program system, version 5.0
     WIRES Comput. Molec. Sci., 2022 12(1)e1606
     doi.org/10.1002/wcms.1606

List of papers to cite with high priority. The work reported in these papers was absolutely
necessary for this run to complete.
Our perspective: the developers of density functionals and basis sets usually get cited in chemistry papers
Good! But without the algorithms to do something with them, the functionals or basis sets would not do anything.
Hence, in our opinion, the algorithm design and method developments papers are equally worthy of getting cited

  1. Neese,F.
     An improvement of the resolution of the identity approximation for the formation of the Coulomb matrix
     J. Comp. Chem., 2003 24(14)1740-1747
     doi.org/10.1002/jcc.10318
  2. Neese,F.; Wennmohs,F.; Hansen,A.; Becker,U.
     Efficient, approximate and parallel Hartree-Fock and hybrid DFT calculations. A 'chain-of-spheres' algorithm for the Hartree-Fock exchange
     Chem. Phys., 2009 356(1-3)98-109
     doi.org/10.1016/j.chemphys.2008.10.036
  3. Helmich-Paris,B.; de Souza,B.; Neese,F.; Izsák,R.
     An improved chain of spheres for exchange algorithm
     J. Chem. Phys., 2021 155 104109
     doi.org/doi: 10.1063/5.0058766.
  4. Neese,F.
     The SHARK Integral Generation and Digestion System
     J. Comp. Chem., 2022  1-16
     doi.org/10.1002/jcc.26942
  5. Grimme,S.; Antony,J.; Ehrlich,S.; Krieg,H.
     A consistent and accurate ab initio parametrization of density functional dispersion correction (DFT-D) for the 94 elements H-Pu
     J. Chem. Phys., 2010 132 154104-XXXX
     doi.org/10.1063/1.3382344

List of suggested additional citations. These are papers that are important in the 'surrounding' of 
of this run, or papers that preceded the highly important papers. If you like your results we are grateful for a citation.

  1. Izsak,R.; Neese,F.
     An overlap fitted chain of spheres exchange method
     J. Chem. Phys., 2011 135 144105
     doi.org/10.1063/1.3646921
  2. Izsak,R.; Hansen,A.; Neese,F.
     The resolution of identity and chain of spheres approximations for the LPNO-CCSD singles Fock term
     Molec. Phys., 2012 110 2413-2417
     doi.org/10.1080/00268976.2012.687466
  3. Neese,F.
     The ORCA program system
     WIRES Comput. Molec. Sci., 2012 2(1)73-78
     doi.org/10.1002/wcms.81
  4. Izsak,R.; Neese,F.; Klopper,W.
     Robust fitting techniques in the chain of spheres approximation to the Fock exchange: The role of the complementary space
     J. Chem. Phys., 2013 139 
     doi.org/10.1063/1.4819264
  5. Neese,F.
     Software update: the ORCA program system, version 4.0
     WIRES Comput. Molec. Sci., 2018 8(1)1-6
     doi.org/10.1002/wcms.1327
  6. Neese,F.; Wennmohs,F.; Becker,U.; Riplinger,C.
     The ORCA quantum chemistry program package
     J. Chem. Phys., 2020 152 Art. No. L224108
     doi.org/10.1063/5.0004608

List of optional additional citations

  1. Neese,F.
     Approximate second-order SCF convergence for spin unrestricted wavefunctions
     Chem. Phys. Lett., 2000 325(1-3)93-98
     doi.org/10.1016/s0009-2614(00)00662-x

Timings for individual modules:

Sum of individual times          ...      173.756 sec (=   2.896 min)
Startup calculation              ...        4.955 sec (=   0.083 min)   2.9 %
SCF iterations                   ...      168.455 sec (=   2.808 min)  96.9 %
Property calculations            ...        0.346 sec (=   0.006 min)   0.2 %
                             ****ORCA TERMINATED NORMALLY****
TOTAL RUN TIME: 0 days 0 hours 2 minutes 54 seconds 20 msec
