
                                 *****************
                                 * O   R   C   A *
                                 *****************

                                            #,                                       
                                            ###                                      
                                            ####                                     
                                            #####                                    
                                            ######                                   
                                           ########,                                 
                                     ,,################,,,,,                         
                               ,,#################################,,                 
                          ,,##########################################,,             
                       ,#########################################, ''#####,          
                    ,#############################################,,   '####,        
                  ,##################################################,,,,####,       
                ,###########''''           ''''###############################       
              ,#####''   ,,,,##########,,,,          '''####'''          '####       
            ,##' ,,,,###########################,,,                        '##       
           ' ,,###''''                  '''############,,,                           
         ,,##''                                '''############,,,,        ,,,,,,###''
      ,#''                                            '''#######################'''  
     '                                                          ''''####''''         
             ,#######,   #######,   ,#######,      ##                                
            ,#'     '#,  ##    ##  ,#'     '#,    #''#        ,####,   ,####,        
            ##       ##  ##   ,#'  ##            #'  '#       #'       #'  '#        
            ##       ##  #######   ##           ,######,      #####,   #    #        
            '#,     ,#'  ##    ##  '#,     ,#' ,#      #,     #,   #   #,  ,#        
             '#######'   ##     ##  '#######'  #'      '#     '####' # '####'        



                #########################################################
                #                        -***-                          #
                #          Department of theory and spectroscopy        #
                #                                                       #
                #                      Frank Neese                      #
                #                                                       #
                #     Directorship, Architecture, Infrastructure        #
                #                    SHARK, DRIVERS                     #
                #        Core code/Algorithms in most modules           #
                #                                                       #
                #        Max Planck Institute fuer Kohlenforschung      #
                #                Kaiser Wilhelm Platz 1                 #
                #                 D-45470 Muelheim/Ruhr                 #
                #                      Germany                          #
                #                                                       #
                #                  All rights reserved                  #
                #                        -***-                          #
                #########################################################


                         Program Version 6.0.0  -   RELEASE   -


 With contributions from (in alphabetic order):
   Daniel Aravena         : Magnetic Suceptibility
   Michael Atanasov       : Ab Initio Ligand Field Theory (pilot matlab implementation)
   Alexander A. Auer      : GIAO ZORA, VPT2 properties, NMR spectrum
   Ute Becker             : All parallelization in ORCA, NUMFREQ, NUMCALC
   Giovanni Bistoni       : ED, misc. LED, open-shell LED, HFLD
   Martin Brehm           : Molecular dynamics
   Dmytro Bykov           : pre 5.0 version of the SCF Hessian
   Marcos Casanova-Páez   : Triplet and SCS-CIS(D). UHF-(DLPNO)-IP/EA/STEOM-CCSD. UHF-CVS-IP/STEOM-CCSD
   Vijay G. Chilkuri      : MRCI spin determinant printing, contributions to CSF-ICE
   Pauline Colinet        : FMM embedding
   Dipayan Datta          : RHF DLPNO-CCSD density
   Achintya Kumar Dutta   : EOM-CC, STEOM-CC
   Nicolas Foglia         : Exact transition moments, OPA infrastructure, MCD improvements
   Dmitry Ganyushin       : Spin-Orbit,Spin-Spin,Magnetic field MRCI
   Miquel Garcia          : C-PCM and meta-GGA Hessian, CCSD/C-PCM, Gaussian charge scheme
   Tiago L. C. Gouveia    : GS-ROHF, GS-ROCIS
   Yang Guo               : DLPNO-NEVPT2, F12-NEVPT2, CIM, IAO-localization
   Andreas Hansen         : Spin unrestricted coupled pair/coupled cluster methods
   Ingolf Harden          : AUTO-CI MPn and infrastructure 
   Benjamin Helmich-Paris : MC-RPA, TRAH-(SCF,CASSCF), AVAS, COSX integrals, SCF dyn. polar.
   Lee Huntington         : MR-EOM, pCC
   Robert Izsak           : Overlap fitted RIJCOSX, COSX-SCS-MP3, EOM
   Riya Kayal             : Wick's Theorem for AUTO-CI, AUTO-CI UHF-CCSDT
   Emily Kempfer          : AUTO-CI, RHF CISDT and CCSDT
   Christian Kollmar      : KDIIS, OOCD, Brueckner-CCSD(T), CCSD density, CASPT2, CASPT2-K, improved NEVPT2
   Axel Koslowski         : Symmetry handling
   Simone Kossmann        : Meta GGA functionals, TD-DFT gradient, OOMP2, (MP2 Hessian; deprecated post 5.0)
   Lucas Lang             : DCDCAS
   Marvin Lechner         : AUTO-CI (C++ implementation), FIC-MRCC
   Spencer Leger          : CASSCF response
   Dagmar Lenk            : GEPOL surface, SMD, ORCA-2-JSON
   Dimitrios Liakos       : Extrapolation schemes; Compound Job, initial MDCI parallelization
   Dimitrios Manganas     : Further ROCIS development; embedding schemes. LFT, Crystal Embedding
   Dimitrios Pantazis     : SARC Basis sets
   Anastasios Papadopoulos: AUTO-CI, single reference methods and gradients
   Taras Petrenko         : pre 6.0 DFT Hessian and TD-DFT gradient, (ASA, deprecated), ECA, 1-Electron XAS/XES, NRVS
   Peter Pinski           : DLPNO-MP2, DLPNO-MP2 Gradient
   Christoph Reimann      : Effective Core Potentials
   Marius Retegan         : Local ZFS, SOC
   Christoph Riplinger    : Optimizer, TS searches, QM/MM, DLPNO-CCSD(T), (RO)-DLPNO pert. Triples
   Michael Roemelt        : Original ROCIS implementation
   Masaaki Saitow         : Open-shell DLPNO-CCSD energy and density
   Barbara Sandhoefer     : DKH picture change effects
   Kantharuban Sivalingam : CASSCF convergence/infrastructure, NEVPT2 and variants, FIC-MRCI
   Bernardo de Souza      : ESD, SOC TD-DFT
   Georgi Stoychev        : AutoAux, RI-MP2 NMR, DLPNO-MP2 response, X2C
   Van Anh Tran           : RI-MP2 g-tensors
   Willem Van den Heuvel  : Paramagnetic NMR
   Zikuan Wang            : NOTCH, Electric field optimization 
   Frank Wennmohs         : Technical directorship and infrastructure
   Hang Xu                : AUTO-CI-Response properties 


 We gratefully acknowledge several colleagues who have allowed us to
 interface, adapt or use parts of their codes:
   Stefan Grimme, W. Hujo, H. Kruse, P. Pracht,  : VdW corrections, initial TS optimization,
                  C. Bannwarth, S. Ehlert,         DFT functionals, gCP, sTDA/sTD-DF
                  L. Wittmann, M. Mueller
   Ed Valeev, F. Pavosevic, A. Kumar             : LibInt (2-el integral package), F12 methods
   Garnet Chan, S. Sharma, J. Yang, R. Olivares  : DMRG
   Ulf Ekstrom                                   : XCFun DFT Library
   Mihaly Kallay                                 : mrcc  (arbitrary order and MRCC methods)
   Frank Weinhold                                : gennbo (NPA and NBO analysis)
   Simon Mueller                                 : openCOSMO-RS
   Christopher J. Cramer and Donald G. Truhlar   : smd solvation model
   Lars Goerigk                                  : TD-DFT with DH, B97 family of functionals
   V. Asgeirsson, H. Jonsson                     : NEB implementation
   FAccTs GmbH                                   : IRC, NEB, NEB-TS, DLPNO-Multilevel, CI-OPT
                                                   MM, QMMM, 2- and 3-layer-ONIOM, Crystal-QMMM,
                                                   LR-CPCM, SF, NACMEs, symmetry and pop. for TD-DFT,
                                                   nearIR, NL-DFT gradient (VV10), updates on ESD,
                                                   ML-optimized integration grids, MBIS, APM,
                                                   GOAT, DOCKER, SOLVATOR, interface openCOSMO-RS
   S Lehtola, MJT Oliveira, MAL Marques          : LibXC Library
   Liviu Ungur et al                             : ANISO software


 Your calculation uses the libint2 library for the computation of 2-el integrals
 For citations please refer to: http://libint.valeyev.net

 Your ORCA version has been built with support for libXC version: 6.2.2
 For citations please refer to: https://libxc.gitlab.io

 This ORCA versions uses:
   CBLAS   interface :  Fast vector & matrix operations
   LAPACKE interface :  Fast linear algebra routines
   Shared memory     :  Shared parallel matrices


Your calculation utilizes the atom-pairwise dispersion correction
with the Becke-Johnson damping scheme (D3BJ)


Warning: RI is on but no J-basis has been assigned. Assigning Def2/J (nothing to worry about!)
================================================================================

----- Orbital basis set information -----
Your calculation utilizes the basis: def2-SVP
   F. Weigend and R. Ahlrichs, Phys. Chem. Chem. Phys. 7, 3297 (2005).

----- AuxJ basis set information -----
Your calculation utilizes the auxiliary basis: def2/J
   F. Weigend, Phys. Chem. Chem. Phys. 8, 1057 (2006).

================================================================================
                                        WARNINGS
                       Please study these warnings very carefully!
================================================================================


WARNING: Geometry Optimization
  ===> : Switching off AutoStart
         For restart on a previous wavefunction, please use MOREAD

================================================================================
                                       INPUT FILE
================================================================================
NAME = data/geom_opt_P_BP86/75226/75226.inp
|  1> ! RI BP86 def2-SVP D3BJ TIGHTSCF Opt
|  2> %pal
|  3> nprocs 6
|  4> end
|  5> 
|  6> * xyz 0 1
|  7> C     -0.586997    3.982932   -0.560630
|  8> C     -0.244866    2.793783    0.325001
|  9> C     -0.639828    1.476080   -0.340673
| 10> P     -0.296546    0.010697    0.741283
| 11> C     -0.849364   -1.355828   -0.382471
| 12> C     -2.371564   -1.477163   -0.442822
| 13> C     -2.797152   -2.639466   -1.327919
| 14> C      1.540212   -0.122092    0.530319
| 15> C      2.129635   -1.299061    1.306711
| 16> C      3.643346   -1.352815    1.160898
| 17> H     -0.297299    4.917020   -0.069175
| 18> H     -0.058204    3.924165   -1.517332
| 19> H     -1.661954    4.025209   -0.763175
| 20> H      0.829948    2.813638    0.538422
| 21> H     -0.762703    2.906045    1.285568
| 22> H     -1.712691    1.498699   -0.560521
| 23> H     -0.115716    1.363717   -1.296435
| 24> H     -0.442832   -1.198147   -1.387790
| 25> H     -0.434086   -2.298345   -0.009528
| 26> H     -2.818824   -0.556448   -0.834499
| 27> H     -2.782295   -1.628174    0.563132
| 28> H     -3.888846   -2.711198   -1.360030
| 29> H     -2.435204   -2.505140   -2.352275
| 30> H     -2.405820   -3.587731   -0.945821
| 31> H      1.787054   -0.209884   -0.533712
| 32> H      1.996976    0.805050    0.893159
| 33> H      1.878319   -1.217750    2.371454
| 34> H      1.709585   -2.247116    0.951863
| 35> H      4.107499   -0.438911    1.545196
| 36> H      4.048086   -2.200842    1.722155
| 37> H      3.932131   -1.470923    0.111609
| 38> **                         ****END OF INPUT****
================================================================================

                       *****************************
                       * Geometry Optimization Run *
                       *****************************

Geometry optimization settings:
Update method            Update   .... BFGS
Choice of coordinates    CoordSys .... (2022) Redundant Internals
Initial Hessian          InHess   .... Almloef's Model
Max. no of cycles        MaxIter  .... 93

Convergence Tolerances:
Energy Change            TolE     ....  5.0000e-06 Eh
Max. Gradient            TolMAXG  ....  3.0000e-04 Eh/bohr
RMS Gradient             TolRMSG  ....  1.0000e-04 Eh/bohr
Max. Displacement        TolMAXD  ....  4.0000e-03 bohr
RMS Displacement         TolRMSD  ....  2.0000e-03 bohr
Strict Convergence                .... False

------------------------------------------------------------------------------
                        ORCA OPTIMIZATION COORDINATE SETUP
------------------------------------------------------------------------------

The optimization will be done in redundant internal coordinates (2022)
Making redundant internal coordinates   ...  (2022 redundants) done
Evaluating the initial hessian          ...  (Almloef) done
Evaluating the coordinates              ...  done
Calculating the B-matrix                .... done
Calculating the G-matrix                .... done
Diagonalizing the G-matrix              .... done
Small eigenvalue found = 7.331e-03
Small eigenvalue found = 7.675e-03
Small eigenvalue found = 1.578e-02
The first mode is                       ....   51
The number of degrees of freedom        ....   87

    -----------------------------------------------------------------
                    Redundant Internal Coordinates


    -----------------------------------------------------------------
         Definition                    Initial Value    Approx d2E/dq
    -----------------------------------------------------------------
      1. B(C   1,C   0)                  1.5217         0.385187   
      2. B(C   2,C   1)                  1.5282         0.376025   
      3. B(P   3,C   2)                  1.8536         0.382467   
      4. B(C   4,P   3)                  1.8536         0.382466   
      5. B(C   5,C   4)                  1.5282         0.376025   
      6. B(C   6,C   5)                  1.5217         0.385188   
      7. B(C   7,P   3)                  1.8536         0.382467   
      8. B(C   8,C   7)                  1.5282         0.376024   
      9. B(C   9,C   8)                  1.5217         0.385187   
     10. B(H  10,C   0)                  1.0945         0.354170   
     11. B(H  11,C   0)                  1.0947         0.353944   
     12. B(H  12,C   0)                  1.0947         0.353950   
     13. B(H  13,C   1)                  1.0960         0.352278   
     14. B(H  14,C   1)                  1.0970         0.350936   
     15. B(H  15,C   2)                  1.0954         0.353040   
     16. B(H  16,C   2)                  1.0958         0.352495   
     17. B(H  17,C   4)                  1.0958         0.352497   
     18. B(H  18,C   4)                  1.0954         0.353039   
     19. B(H  19,C   5)                  1.0960         0.352278   
     20. B(H  20,C   5)                  1.0970         0.350935   
     21. B(H  21,C   6)                  1.0945         0.354171   
     22. B(H  22,C   6)                  1.0947         0.353944   
     23. B(H  23,C   6)                  1.0947         0.353949   
     24. B(H  24,C   7)                  1.0958         0.352495   
     25. B(H  25,C   7)                  1.0954         0.353040   
     26. B(H  26,C   8)                  1.0970         0.350935   
     27. B(H  27,C   8)                  1.0960         0.352278   
     28. B(H  28,C   9)                  1.0947         0.353950   
     29. B(H  29,C   9)                  1.0945         0.354170   
     30. B(H  30,C   9)                  1.0947         0.353944   
     31. A(C   1,C   0,H  11)          110.9827         0.325032   
     32. A(H  10,C   0,H  11)          108.0818         0.289299   
     33. A(H  10,C   0,H  12)          108.0610         0.289300   
     34. A(C   1,C   0,H  12)          111.0176         0.325033   
     35. A(H  11,C   0,H  12)          108.3436         0.289271   
     36. A(C   1,C   0,H  10)          110.2482         0.325066   
     37. A(H  13,C   1,H  14)          106.8916         0.288670   
     38. A(C   0,C   1,H  14)          108.8757         0.324576   
     39. A(C   0,C   1,H  13)          108.6434         0.324780   
     40. A(C   2,C   1,H  14)          110.3435         0.323296   
     41. A(C   0,C   1,C   2)          111.2354         0.365668   
     42. A(C   2,C   1,H  13)          110.7259         0.323499   
     43. A(H  15,C   2,H  16)          107.1885         0.288968   
     44. A(C   1,C   2,H  16)          110.1647         0.323531   
     45. A(P   3,C   2,H  16)          109.8443         0.344438   
     46. A(P   3,C   2,H  15)          108.3527         0.344527   
     47. A(C   1,C   2,H  15)          108.8293         0.323613   
     48. A(C   1,C   2,P   3)          112.3052         0.388693   
     49. A(C   2,P   3,C   7)          100.0040         0.415409   
     50. A(C   4,P   3,C   7)          100.0040         0.415409   
     51. A(C   2,P   3,C   4)          100.0040         0.415409   
     52. A(H  17,C   4,H  18)          107.1885         0.288969   
     53. A(C   5,C   4,H  18)          108.8293         0.323613   
     54. A(P   3,C   4,H  18)          108.3526         0.344527   
     55. A(C   5,C   4,H  17)          110.1648         0.323532   
     56. A(P   3,C   4,H  17)          109.8443         0.344438   
     57. A(P   3,C   4,C   5)          112.3052         0.388693   
     58. A(C   4,C   5,H  19)          110.7259         0.323499   
     59. A(C   4,C   5,C   6)          111.2354         0.365668   
     60. A(C   6,C   5,H  20)          108.8757         0.324576   
     61. A(C   4,C   5,H  20)          110.3436         0.323296   
     62. A(C   6,C   5,H  19)          108.6434         0.324780   
     63. A(H  19,C   5,H  20)          106.8915         0.288670   
     64. A(H  22,C   6,H  23)          108.3436         0.289271   
     65. A(H  21,C   6,H  23)          108.0609         0.289300   
     66. A(C   5,C   6,H  23)          111.0176         0.325033   
     67. A(H  21,C   6,H  22)          108.0818         0.289299   
     68. A(C   5,C   6,H  22)          110.9827         0.325032   
     69. A(C   5,C   6,H  21)          110.2482         0.325066   
     70. A(H  24,C   7,H  25)          107.1885         0.288968   
     71. A(C   8,C   7,H  25)          108.8294         0.323613   
     72. A(P   3,C   7,H  25)          108.3526         0.344527   
     73. A(C   8,C   7,H  24)          110.1647         0.323531   
     74. A(P   3,C   7,H  24)          109.8443         0.344438   
     75. A(P   3,C   7,C   8)          112.3052         0.388693   
     76. A(H  26,C   8,H  27)          106.8916         0.288670   
     77. A(C   9,C   8,H  27)          108.6434         0.324780   
     78. A(C   7,C   8,H  27)          110.7259         0.323499   
     79. A(C   9,C   8,H  26)          108.8757         0.324576   
     80. A(C   7,C   8,H  26)          110.3435         0.323296   
     81. A(C   7,C   8,C   9)          111.2353         0.365668   
     82. A(H  29,C   9,H  30)          108.0818         0.289299   
     83. A(H  28,C   9,H  30)          108.3436         0.289271   
     84. A(C   8,C   9,H  30)          110.9827         0.325032   
     85. A(H  28,C   9,H  29)          108.0610         0.289300   
     86. A(C   8,C   9,H  29)          110.2481         0.325066   
     87. A(C   8,C   9,H  28)          111.0177         0.325033   
     88. D(H  13,C   1,C   0,H  11)     61.8753         0.011809   
     89. D(C   2,C   1,C   0,H  12)     60.3081         0.011809   
     90. D(C   2,C   1,C   0,H  10)   -179.9738         0.011809   
     91. D(H  13,C   1,C   0,H  10)    -57.8463         0.011809   
     92. D(H  13,C   1,C   0,H  12)   -177.5645         0.011809   
     93. D(C   2,C   1,C   0,H  11)    -60.2522         0.011809   
     94. D(P   3,C   2,C   1,C   0)   -177.7683         0.011282   
     95. D(H  15,C   2,C   1,H  14)     63.1435         0.011282   
     96. D(H  15,C   2,C   1,C   0)    -57.8038         0.011282   
     97. D(H  15,C   2,C   1,H  13)   -178.7163         0.011282   
     98. D(P   3,C   2,C   1,H  13)     61.3192         0.011282   
     99. D(P   3,C   2,C   1,H  14)    -56.8210         0.011282   
    100. D(C   4,P   3,C   2,H  16)    -55.7979         0.003475   
    101. D(C   4,P   3,C   2,H  15)     60.9927         0.003475   
    102. D(C   4,P   3,C   2,C   1)   -178.7663         0.003475   
    103. D(C   7,P   3,C   2,H  15)    163.1291         0.003475   
    104. D(C   7,P   3,C   2,C   1)    -76.6299         0.003475   
    105. D(H  18,C   4,P   3,C   2)    163.1290         0.003475   
    106. D(H  17,C   4,P   3,C   7)    -55.7979         0.003475   
    107. D(H  17,C   4,P   3,C   2)     46.3384         0.003475   
    108. D(C   5,C   4,P   3,C   7)   -178.7663         0.003475   
    109. D(C   5,C   4,P   3,C   2)    -76.6300         0.003475   
    110. D(H  19,C   5,C   4,H  18)   -178.7163         0.011282   
    111. D(H  19,C   5,C   4,H  17)    -61.4686         0.011282   
    112. D(H  19,C   5,C   4,P   3)     61.3193         0.011282   
    113. D(C   6,C   5,C   4,H  18)    -57.8037         0.011282   
    114. D(C   6,C   5,C   4,H  17)     59.4440         0.011282   
    115. D(C   6,C   5,C   4,P   3)   -177.7681         0.011282   
    116. D(H  21,C   6,C   5,H  20)     58.2212         0.011809   
    117. D(H  21,C   6,C   5,H  19)    -57.8464         0.011809   
    118. D(H  21,C   6,C   5,C   4)   -179.9739         0.011809   
    119. D(H  22,C   6,C   5,H  20)    177.9429         0.011809   
    120. D(H  22,C   6,C   5,H  19)     61.8753         0.011809   
    121. D(H  22,C   6,C   5,C   4)    -60.2522         0.011809   
    122. D(H  25,C   7,P   3,C   2)     60.9927         0.003475   
    123. D(H  24,C   7,P   3,C   4)     46.3384         0.003475   
    124. D(H  24,C   7,P   3,C   2)    -55.7979         0.003475   
    125. D(C   8,C   7,P   3,C   4)    -76.6299         0.003475   
    126. D(C   8,C   7,P   3,C   2)   -178.7662         0.003475   
    127. D(H  26,C   8,C   7,H  25)     63.1437         0.011282   
    128. D(H  26,C   8,C   7,H  24)   -179.6086         0.011282   
    129. D(H  26,C   8,C   7,P   3)    -56.8208         0.011282   
    130. D(C   9,C   8,C   7,H  25)    -57.8036         0.011282   
    131. D(C   9,C   8,C   7,H  24)     59.4441         0.011282   
    132. D(C   9,C   8,C   7,P   3)   -177.7681         0.011282   
    133. D(H  29,C   9,C   8,H  27)    -57.8464         0.011809   
    134. D(H  29,C   9,C   8,H  26)     58.2213         0.011809   
    135. D(H  29,C   9,C   8,C   7)   -179.9739         0.011809   
    136. D(H  28,C   9,C   8,H  27)   -177.5645         0.011809   
    137. D(H  28,C   9,C   8,H  26)    -61.4968         0.011809   
    138. D(H  28,C   9,C   8,C   7)     60.3080         0.011809   
    -----------------------------------------------------------------

Number of atoms                         .... 31
Number of degrees of freedom            .... 138


         *************************************************************
         *                GEOMETRY OPTIMIZATION CYCLE   1            *
         *************************************************************
---------------------------------
CARTESIAN COORDINATES (ANGSTROEM)
---------------------------------
  C     -0.586997    3.982932   -0.560630
  C     -0.244866    2.793783    0.325001
  C     -0.639828    1.476080   -0.340673
  P     -0.296546    0.010697    0.741283
  C     -0.849364   -1.355828   -0.382471
  C     -2.371564   -1.477163   -0.442822
  C     -2.797152   -2.639466   -1.327919
  C      1.540212   -0.122092    0.530319
  C      2.129635   -1.299061    1.306711
  C      3.643346   -1.352815    1.160898
  H     -0.297299    4.917020   -0.069175
  H     -0.058204    3.924165   -1.517332
  H     -1.661954    4.025209   -0.763175
  H      0.829948    2.813638    0.538422
  H     -0.762703    2.906045    1.285568
  H     -1.712691    1.498699   -0.560521
  H     -0.115716    1.363717   -1.296435
  H     -0.442832   -1.198147   -1.387790
  H     -0.434086   -2.298345   -0.009528
  H     -2.818824   -0.556448   -0.834499
  H     -2.782295   -1.628174    0.563132
  H     -3.888846   -2.711198   -1.360030
  H     -2.435204   -2.505140   -2.352275
  H     -2.405820   -3.587731   -0.945821
  H      1.787054   -0.209884   -0.533712
  H      1.996976    0.805050    0.893159
  H      1.878319   -1.217750    2.371454
  H      1.709585   -2.247116    0.951863
  H      4.107499   -0.438911    1.545196
  H      4.048086   -2.200842    1.722155
  H      3.932131   -1.470923    0.111609

----------------------------
CARTESIAN COORDINATES (A.U.)
----------------------------
  NO LB      ZA    FRAG     MASS         X           Y           Z
   0 C     6.0000    0    12.011   -1.109264    7.526651   -1.059437
   1 C     6.0000    0    12.011   -0.462730    5.279485    0.614163
   2 C     6.0000    0    12.011   -1.209100    2.789387   -0.643779
   3 P    15.0000    0    30.974   -0.560391    0.020214    1.400822
   4 C     6.0000    0    12.011   -1.605065   -2.562144   -0.722765
   5 C     6.0000    0    12.011   -4.481606   -2.791434   -0.836812
   6 C     6.0000    0    12.011   -5.285851   -4.987868   -2.509403
   7 C     6.0000    0    12.011    2.910579   -0.230720    1.002158
   8 C     6.0000    0    12.011    4.024427   -2.454870    2.469326
   9 C     6.0000    0    12.011    6.884926   -2.556450    2.193779
  10 H     1.0000    0     1.008   -0.561814    9.291821   -0.130722
  11 H     1.0000    0     1.008   -0.109990    7.415597   -2.867342
  12 H     1.0000    0     1.008   -3.140638    7.606543   -1.442192
  13 H     1.0000    0     1.008    1.568374    5.317005    1.017470
  14 H     1.0000    0     1.008   -1.441300    5.491629    2.429371
  15 H     1.0000    0     1.008   -3.236517    2.832131   -1.059231
  16 H     1.0000    0     1.008   -0.218672    2.577052   -2.449907
  17 H     1.0000    0     1.008   -0.836831   -2.264170   -2.622543
  18 H     1.0000    0     1.008   -0.820304   -4.343243   -0.018005
  19 H     1.0000    0     1.008   -5.326805   -1.051534   -1.576975
  20 H     1.0000    0     1.008   -5.257776   -3.076803    1.064165
  21 H     1.0000    0     1.008   -7.348854   -5.123422   -2.570084
  22 H     1.0000    0     1.008   -4.601869   -4.734029   -4.445156
  23 H     1.0000    0     1.008   -4.546341   -6.779829   -1.787343
  24 H     1.0000    0     1.008    3.377043   -0.396623   -1.008570
  25 H     1.0000    0     1.008    3.773738    1.521324    1.687826
  26 H     1.0000    0     1.008    3.549509   -2.301214    4.481399
  27 H     1.0000    0     1.008    3.230647   -4.246434    1.798760
  28 H     1.0000    0     1.008    7.762048   -0.829422    2.919997
  29 H     1.0000    0     1.008    7.649774   -4.158989    3.254401
  30 H     1.0000    0     1.008    7.430651   -2.779642    0.210910

--------------------------------
INTERNAL COORDINATES (ANGSTROEM)
--------------------------------
 C      0   0   0     0.000000000000     0.00000000     0.00000000
 C      1   0   0     1.521667254535     0.00000000     0.00000000
 C      2   1   0     1.528220550814   111.23535169     0.00000000
 P      3   2   1     1.853596141059   112.30523329   182.23173342
 C      4   3   2     1.853596873450   100.00395849   181.23370885
 C      5   4   3     1.528220293487   112.30523444   283.37004780
 C      6   5   4     1.521666885019   111.23535151   182.23187678
 C      4   3   2     1.853596147596   100.00398421   283.37008424
 C      8   4   3     1.528221200466   112.30519990   181.23377837
 C      9   8   4     1.521667478461   111.23533613   182.23193611
 H      1   2   3     1.094519684598   110.24821118   180.02617694
 H      1   2   3     1.094693707821   110.98271820   299.74782727
 H      1   2   3     1.094689167574   111.01759494    60.30806512
 H      2   1   3     1.095978046706   108.64336010   122.12748051
 H      2   1   3     1.097017263630   108.87568628   238.19512566
 H      3   2   1     1.095390240523   108.82928879   302.19622680
 H      3   2   1     1.095810126325   110.16473744    59.44384328
 H      5   4   3     1.095809224521   109.84430003    46.33842879
 H      5   4   3     1.095390612440   108.35259977   163.12902892
 H      6   5   4     1.095978326042   110.72591529    61.31931235
 H      6   5   4     1.097017650997   110.34355228   303.17922332
 H      7   6   5     1.094519248703   110.24823107   180.02613189
 H      7   6   5     1.094694041144   110.98273278   299.74778042
 H      7   6   5     1.094689968006   111.01763434    60.30804024
 H      8   4   3     1.095810374649   109.84431804   304.20206236
 H      8   4   3     1.095389659190   108.35264731    60.99270831
 H      9   8   4     1.097018170600   110.34348122   303.17919444
 H      9   8   4     1.095977823055   110.72593979    61.31927525
 H     10   9   8     1.094688760072   111.01767231    60.30799096
 H     10   9   8     1.094519840102   110.24814291   180.02610285
 H     10   9   8     1.094693418912   110.98272201   299.74770932

---------------------------
INTERNAL COORDINATES (A.U.)
---------------------------
 C      0   0   0     0.000000000000     0.00000000     0.00000000
 C      1   0   0     2.875534378026     0.00000000     0.00000000
 C      2   1   0     2.887918313268   111.23535169     0.00000000
 P      3   2   1     3.502789069495   112.30523329   182.23173342
 C      4   3   2     3.502790453514   100.00395849   181.23370885
 C      5   4   3     2.887917826992   112.30523444   283.37004780
 C      6   5   4     2.875533679742   111.23535151   182.23187678
 C      4   3   2     3.502789081847   100.00398421   283.37008424
 C      8   4   3     2.887919540933   112.30519990   181.23377837
 C      9   8   4     2.875534801186   111.23533613   182.23193611
 H      1   2   3     2.068342452077   110.24821118   180.02617694
 H      1   2   3     2.068671308308   110.98271820   299.74782727
 H      1   2   3     2.068662728484   111.01759494    60.30806512
 H      2   1   3     2.071098357065   108.64336010   122.12748051
 H      2   1   3     2.073062192444   108.87568628   238.19512566
 H      3   2   1     2.069987564359   108.82928879   302.19622680
 H      3   2   1     2.070781033532   110.16473744    59.44384328
 H      5   4   3     2.070779329370   109.84430003    46.33842879
 H      5   4   3     2.069988267180   108.35259977   163.12902892
 H      6   5   4     2.071098884933   110.72591529    61.31931235
 H      6   5   4     2.073062924461   110.34355228   303.17922332
 H      7   6   5     2.068341628354   110.24823107   180.02613189
 H      7   6   5     2.068671938198   110.98273278   299.74778042
 H      7   6   5     2.068664241082   111.01763434    60.30804024
 H      8   4   3     2.070781502797   109.84431804   304.20206236
 H      8   4   3     2.069986465798   108.35264731    60.99270831
 H      9   8   4     2.073063906369   110.34348122   303.17919444
 H      9   8   4     2.071097934426   110.72593979    61.31927525
 H     10   9   8     2.068661958419   111.01767231    60.30799096
 H     10   9   8     2.068342745937   110.24814291   180.02610285
 H     10   9   8     2.068670762350   110.98272201   299.74770932

---------------------
BASIS SET INFORMATION
---------------------
There are 3 groups of distinct atoms

 Group   1 Type C   : 7s4p1d contracted to 3s2p1d pattern {511/31/1}
 Group   2 Type P   : 10s7p1d contracted to 4s3p1d pattern {5311/511/1}
 Group   3 Type H   : 4s1p contracted to 2s1p pattern {31/1}

Atom   0C    basis set group =>   1
Atom   1C    basis set group =>   1
Atom   2C    basis set group =>   1
Atom   3P    basis set group =>   2
Atom   4C    basis set group =>   1
Atom   5C    basis set group =>   1
Atom   6C    basis set group =>   1
Atom   7C    basis set group =>   1
Atom   8C    basis set group =>   1
Atom   9C    basis set group =>   1
Atom  10H    basis set group =>   3
Atom  11H    basis set group =>   3
Atom  12H    basis set group =>   3
Atom  13H    basis set group =>   3
Atom  14H    basis set group =>   3
Atom  15H    basis set group =>   3
Atom  16H    basis set group =>   3
Atom  17H    basis set group =>   3
Atom  18H    basis set group =>   3
Atom  19H    basis set group =>   3
Atom  20H    basis set group =>   3
Atom  21H    basis set group =>   3
Atom  22H    basis set group =>   3
Atom  23H    basis set group =>   3
Atom  24H    basis set group =>   3
Atom  25H    basis set group =>   3
Atom  26H    basis set group =>   3
Atom  27H    basis set group =>   3
Atom  28H    basis set group =>   3
Atom  29H    basis set group =>   3
Atom  30H    basis set group =>   3
---------------------------------
AUXILIARY/J BASIS SET INFORMATION
---------------------------------
There are 3 groups of distinct atoms

 Group   1 Type C   : 12s5p4d2f1g contracted to 6s4p3d1f1g pattern {711111/2111/211/2/1}
 Group   2 Type P   : 14s5p5d2f1g contracted to 8s4p3d1f1g pattern {71111111/2111/311/2/1}
 Group   3 Type H   : 5s2p1d contracted to 3s1p1d pattern {311/2/1}

Atom   0C    basis set group =>   1
Atom   1C    basis set group =>   1
Atom   2C    basis set group =>   1
Atom   3P    basis set group =>   2
Atom   4C    basis set group =>   1
Atom   5C    basis set group =>   1
Atom   6C    basis set group =>   1
Atom   7C    basis set group =>   1
Atom   8C    basis set group =>   1
Atom   9C    basis set group =>   1
Atom  10H    basis set group =>   3
Atom  11H    basis set group =>   3
Atom  12H    basis set group =>   3
Atom  13H    basis set group =>   3
Atom  14H    basis set group =>   3
Atom  15H    basis set group =>   3
Atom  16H    basis set group =>   3
Atom  17H    basis set group =>   3
Atom  18H    basis set group =>   3
Atom  19H    basis set group =>   3
Atom  20H    basis set group =>   3
Atom  21H    basis set group =>   3
Atom  22H    basis set group =>   3
Atom  23H    basis set group =>   3
Atom  24H    basis set group =>   3
Atom  25H    basis set group =>   3
Atom  26H    basis set group =>   3
Atom  27H    basis set group =>   3
Atom  28H    basis set group =>   3
Atom  29H    basis set group =>   3
Atom  30H    basis set group =>   3


           ************************************************************
           *        Program running with 6 parallel MPI-processes     *
           *              working on a common directory               *
           ************************************************************
------------------------------------------------------------------------------
                             ORCA STARTUP CALCULATIONS
                           -- RI-GTO INTEGRALS CHOSEN --
------------------------------------------------------------------------------
------------------------------------------------------------------------------
                   ___                                                        
                  /   \      - P O W E R E D   B Y -                         
                 /     \                                                     
                 |  |  |   _    _      __       _____    __    __             
                 |  |  |  | |  | |    /  \     |  _  \  |  |  /  |          
                  \  \/   | |  | |   /    \    | | | |  |  | /  /          
                 / \  \   | |__| |  /  /\  \   | |_| |  |  |/  /          
                |  |  |   |  __  | /  /__\  \  |    /   |      \           
                |  |  |   | |  | | |   __   |  |    \   |  |\   \          
                \     /   | |  | | |  |  |  |  | |\  \  |  | \   \       
                 \___/    |_|  |_| |__|  |__|  |_| \__\ |__|  \__/        
                                                                              
                      - O R C A' S   B I G   F R I E N D -                    
                                      &                                       
                       - I N T E G R A L  F E E D E R -                       
                                                                              
 v1 FN, 2020, v2 2021, v3 2022-2024                                           
------------------------------------------------------------------------------


----------------------
SHARK INTEGRAL PACKAGE
----------------------

Number of atoms                             ...     31
Number of basis functions                   ...    249
Number of shells                            ...    125
Maximum angular momentum                    ...      2
Integral batch strategy                     ... SHARK/LIBINT Hybrid
RI-J (if used) integral strategy            ... SPLIT-RIJ (Revised 2003 algorithm where possible)
Printlevel                                  ...      1
Contraction scheme used                     ... SEGMENTED contraction
Prescreening option                         ... SCHWARTZ
   Thresh                                   ... 2.500e-11
   Tcut                                     ... 2.500e-12
   Tpresel                                  ... 2.500e-12 
Coulomb Range Separation                    ... NOT USED
Exchange Range Separation                   ... NOT USED
Multipole approximations                    ... NOT USED
Finite Nucleus Model                        ... NOT USED
CABS basis                                  ... NOT available
Auxiliary Coulomb fitting basis             ... AVAILABLE
   # of basis functions in Aux-J            ...    723
   # of shells in Aux-J                     ...    257
   Maximum angular momentum in Aux-J        ...      4
Auxiliary J/K fitting basis                 ... NOT available
Auxiliary Correlation fitting basis         ... NOT available
Auxiliary 'external' fitting basis          ... NOT available

Checking pre-screening integrals            ... done (  0.0 sec) Dimension = 125
Check shell pair data                       ... done (  0.0 sec)
Shell pair information
Shell pair cut-off parameter TPreSel        ...   2.5e-12
Total number of shell pairs                 ...      7875
Shell pairs after pre-screening             ...      6575
Total number of primitive shell pairs       ...     26999
Primitive shell pairs kept                  ...     15694
          la=0 lb=0:   2368 shell pairs
          la=1 lb=0:   2567 shell pairs
          la=1 lb=1:    695 shell pairs
          la=2 lb=0:    598 shell pairs
          la=2 lb=1:    306 shell pairs
          la=2 lb=2:     41 shell pairs

Calculating one electron integrals          ... done (  0.0 sec)
Calculating RI/J V-Matrix + Cholesky decomp.... done (  0.0 sec)
Calculating Nuclear repulsion               ... done (  0.0 sec) ENN=    648.219070590509 Eh

Diagonalization of the overlap matrix:
Smallest eigenvalue                        ... 1.437e-03
Time for diagonalization                   ...    0.007 sec
Threshold for overlap eigenvalues          ... 1.000e-07
Number of eigenvalues below threshold      ... 0
Time for construction of square roots      ...    0.007 sec
Total time needed                          ...    0.014 sec

-------------------
DFT GRID GENERATION
-------------------

General Integration Accuracy     IntAcc      ... 4.388
Radial Grid Type                 RadialGrid  ... OptM3 with GC (2021)
Angular Grid (max. ang.)         AngularGrid ... 4 (Lebedev-302)
Angular grid pruning method      GridPruning ... 4 (adaptive)
Weight generation scheme         WeightScheme... mBecke (2022)
Basis function cutoff            BFCut       ... 1.0000e-11
Integration weight cutoff        WCut        ... 1.0000e-14
Partially contracted basis set               ... off
Rotationally invariant grid construction     ... off
Angular grids for H and He will be reduced by one unit

Total number of grid points                  ...   128112
Total number of batches                      ...     2017
Average number of points per batch           ...       63
Average number of grid points per atom       ...     4133
Initializing property integral containers    ... done (  0.0 sec)

SHARK setup successfully completed in   0.8 seconds

Maximum memory used throughout the entire STARTUP-calculation: 34.3 MB


           ************************************************************
           *        Program running with 6 parallel MPI-processes     *
           *              working on a common directory               *
           ************************************************************
-------------------------------------------------------------------------------
                                 ORCA GUESS
                   Start orbitals & Density for SCF / CASSCF
-------------------------------------------------------------------------------

------------
SCF SETTINGS
------------
Hamiltonian:
 Density Functional     Method          .... DFT(GTOs)
 Exchange Functional    Exchange        .... B88
   X-Alpha parameter    XAlpha          ....  0.666667
   Becke's b parameter  XBeta           ....  0.004200
 Correlation Functional Correlation     .... P86
 LDA part of GGA corr.  LDAOpt          .... PW91-LDA
 Gradients option       PostSCFGGA      .... off
   NL short-range parameter             ....  4.400000
 RI-approximation to the Coulomb term is turned on
   Number of AuxJ basis functions       .... 723


General Settings:
 Integral files         IntName         .... data/geom_opt_P_BP86/75226/75226
 Hartree-Fock type      HFTyp           .... RHF
 Total Charge           Charge          ....    0
 Multiplicity           Mult            ....    1
 Number of Electrons    NEL             ....   90
 Basis Dimension        Dim             ....  249
 Nuclear Repulsion      ENuc            ....    648.2190705905 Eh

Convergence Acceleration:
 AO-DIIS                CNVDIIS         .... on
   Start iteration      DIISMaxIt       ....    12
   Startup error        DIISStart       ....  0.200000
   # of expansion vecs  DIISMaxEq       ....     5
   Bias factor          DIISBfac        ....   1.050
   Max. coefficient     DIISMaxC        ....  10.000
 MO-DIIS                CNVKDIIS        .... off
 Trust-Rad. Augm. Hess. CNVTRAH         .... auto
   Auto Start mean grad. ratio tolernc. ....  1.125000
   Auto Start start iteration           ....    50
   Auto Start num. interpolation iter.  ....    10
   Max. Number of Micro iterations      ....    24
   Max. Number of Macro iterations      .... Maxiter - #DIIS iter
   Number of Davidson start vectors     ....     2
   Converg. threshold    (grad. norm)   ....   1.000e-05
   Grad. Scal. Fac. for Micro threshold ....   0.100
   Minimum threshold for Micro iter.    ....   1.000e-02
   NR start threshold (gradient norm)   ....   1.000e-04
   Initial trust radius                 ....   0.400
   Minimum AH scaling param. (alpha)    ....   1.000
   Maximum AH scaling param. (alpha)    .... 1000.000
   Quad. conv. algorithm                .... NR
   White noise on init. David. guess    .... on
   Maximum white noise                  ....   0.010
   Pseudo random numbers                .... off
   Inactive MOs                         .... canonical
   Orbital update algorithm             .... Taylor
   Preconditioner                       .... Diag
   Full preconditioner red. dimension   ....   250
 SOSCF                  CNVSOSCF        .... on
   Start iteration      SOSCFMaxIt      ....   150
   Startup grad/error   SOSCFStart      ....  0.003300
   Hessian update       SOSCFHessUp     .... L-BFGS
 Level Shifting         CNVShift        .... on
   Level shift para.    LevelShift      ....    0.2500
   Turn off err/grad.   ShiftErr        ....    0.0010
 Zerner damping         CNVZerner       .... off
 Static damping         CNVDamp         .... on
   Fraction old density DampFac         ....    0.7000
   Max. Damping (<1)    DampMax         ....    0.9800
   Min. Damping (>=0)   DampMin         ....    0.0000
   Turn off err/grad.   DampErr         ....    0.1000

SCF Procedure:
 Maximum # iterations   MaxIter         ....   125
 SCF integral mode      SCFMode         .... Direct
   Integral package                     .... SHARK and LIBINT hybrid scheme
 Reset frequency        DirectResetFreq ....    20
 Integral Threshold     Thresh          ....  2.500e-11 Eh
 Primitive CutOff       TCut            ....  2.500e-12 Eh

Convergence Tolerance:
 Convergence Check Mode ConvCheckMode   .... Total+1el-Energy
 Convergence forced     ConvForced      .... 0
 Energy Change          TolE            ....  1.000e-08 Eh
 1-El. energy change                    ....  1.000e-05 Eh
 Orbital Gradient       TolG            ....  1.000e-05
 Orbital Rotation angle TolX            ....  1.000e-05
 DIIS Error             TolErr          ....  5.000e-07

------------------------------
INITIAL GUESS: MODEL POTENTIAL
------------------------------
Loading Hartree-Fock densities                     ... done
Calculating cut-offs                               ... done
Initializing the effective Hamiltonian             ... done
Setting up the integral package (SHARK)            ... done
Starting the Coulomb interaction                   ... done (   0.1 sec)
Making the grid                                    ... done (   0.2 sec)
Mapping shells                                     ... done
Starting the XC term evaluation                    ... done (   0.1 sec)
  promolecular density results
     # of electrons  =     89.983213604
     EX              =    -75.170248505
     EC              =     -3.299991040
     EX+EC           =    -78.470239545
Transforming the Hamiltonian                       ... done (   0.0 sec)
Diagonalizing the Hamiltonian                      ... done (   0.0 sec)
Back transforming the eigenvectors                 ... done (   0.0 sec)
Now organizing SCF variables                       ... done
                      ------------------
                      INITIAL GUESS DONE (   0.4 sec)
                      ------------------
             **** ENERGY FILE WAS UPDATED (data/geom_opt_P_BP86/75226/75226.en.tmp) ****
Finished Guess after   0.5 sec
Maximum memory used throughout the entire GUESS-calculation: 17.6 MB


           ************************************************************
           *        Program running with 6 parallel MPI-processes     *
           *              working on a common directory               *
           ************************************************************

-------------------------------------------------------------------------------------------
                                      ORCA LEAN-SCF
                              memory conserving SCF solver
-------------------------------------------------------------------------------------------

----------------------------------------D-I-I-S--------------------------------------------
Iteration    Energy (Eh)           Delta-E    RMSDP     MaxDP     DIISErr   Damp  Time(sec)
-------------------------------------------------------------------------------------------
               ***  Starting incremental Fock matrix formation  ***
    1    -696.2743789678960411     0.00e+00  2.78e-03  7.67e-02  1.63e-01  0.700   0.5
    2    -696.4462390298350556    -1.72e-01  1.99e-03  5.41e-02  7.76e-02  0.700   0.4
                               ***Turning on AO-DIIS***
    3    -696.5048614298760867    -5.86e-02  8.77e-04  4.35e-02  2.17e-02  0.700   0.4
    4    -696.5390932144556473    -3.42e-02  1.53e-03  9.47e-02  7.55e-03  0.000   0.4
    5    -696.6172166000934567    -7.81e-02  3.22e-04  1.08e-02  7.66e-03  0.000   0.5
                              *** Initializing SOSCF ***
---------------------------------------S-O-S-C-F--------------------------------------
Iteration    Energy (Eh)           Delta-E    RMSDP     MaxDP     MaxGrad    Time(sec)
--------------------------------------------------------------------------------------
    6    -696.6180977034772468    -8.81e-04  1.18e-04  1.89e-03  1.84e-03     0.4
               *** Restarting incremental Fock matrix formation ***
    7    -696.6181745676948367    -7.69e-05  9.74e-05  2.88e-03  3.02e-04     0.5
    8    -696.6181759156241924    -1.35e-06  2.77e-05  1.31e-03  2.95e-04     0.4
    9    -696.6181822821955620    -6.37e-06  1.36e-05  6.04e-04  3.93e-05     0.4
   10    -696.6181823531704822    -7.10e-08  7.02e-06  4.79e-04  4.18e-05     0.4
   11    -696.6181824827812079    -1.30e-07  2.82e-06  9.60e-05  1.08e-05     0.4
   12    -696.6181824861172345    -3.34e-09  9.73e-07  2.11e-05  5.69e-06     0.4
                 **** Energy Check signals convergence ****

               *****************************************************
               *                     SUCCESS                       *
               *           SCF CONVERGED AFTER  12 CYCLES          *
               *****************************************************

             **** ENERGY FILE WAS UPDATED (data/geom_opt_P_BP86/75226/75226.en.tmp) ****

----------------
TOTAL SCF ENERGY
----------------

Total Energy       :       -696.61818248611723 Eh          -18955.94445 eV

Components:
Nuclear Repulsion  :        648.21907059050898 Eh           17638.93766 eV
Electronic Energy  :      -1344.83725307662621 Eh          -36594.88210 eV
One Electron Energy:      -2235.94121226844709 Eh          -60843.05359 eV
Two Electron Energy:        891.10395919182088 Eh           24248.17148 eV

Virial components:
Potential Energy   :      -1387.62552298787614 Eh          -37759.21012 eV
Kinetic Energy     :        691.00734050175890 Eh           18803.26567 eV
Virial Ratio       :          2.00811980084073

DFT components:
N(Alpha)           :       45.000001282004 electrons
N(Beta)            :       45.000001282004 electrons
N(Total)           :       90.000002564009 electrons
E(X)               :      -76.660992609834 Eh       
E(C)               :       -3.294516970678 Eh       
E(XC)              :      -79.955509580512 Eh       

---------------
SCF CONVERGENCE
---------------

  Last Energy change         ...    3.3360e-09  Tolerance :   1.0000e-08
  Last MAX-Density change    ...    2.1070e-05  Tolerance :   1.0000e-07
  Last RMS-Density change    ...    9.7259e-07  Tolerance :   5.0000e-09
  Last DIIS Error            ...    1.8416e-03  Tolerance :   5.0000e-07
  Last Orbital Gradient      ...    5.6873e-06  Tolerance :   1.0000e-05
  Last Orbital Rotation      ...    1.0600e-05  Tolerance :   1.0000e-05


----------------
ORBITAL ENERGIES
----------------

  NO   OCC          E(Eh)            E(eV) 
   0   2.0000     -76.317828     -2076.7137 
   1   2.0000      -9.909299      -269.6457 
   2   2.0000      -9.909290      -269.6455 
   3   2.0000      -9.909285      -269.6454 
   4   2.0000      -9.905980      -269.5554 
   5   2.0000      -9.905976      -269.5553 
   6   2.0000      -9.905916      -269.5537 
   7   2.0000      -9.900886      -269.4168 
   8   2.0000      -9.900882      -269.4167 
   9   2.0000      -9.900880      -269.4166 
  10   2.0000      -6.288971      -171.1316 
  11   2.0000      -4.510322      -122.7321 
  12   2.0000      -4.510321      -122.7321 
  13   2.0000      -4.506548      -122.6294 
  14   2.0000      -0.726004       -19.7556 
  15   2.0000      -0.706894       -19.2356 
  16   2.0000      -0.706891       -19.2355 
  17   2.0000      -0.646750       -17.5990 
  18   2.0000      -0.604206       -16.4413 
  19   2.0000      -0.604205       -16.4412 
  20   2.0000      -0.534586       -14.5468 
  21   2.0000      -0.521825       -14.1996 
  22   2.0000      -0.521822       -14.1995 
  23   2.0000      -0.472703       -12.8629 
  24   2.0000      -0.418824       -11.3968 
  25   2.0000      -0.418819       -11.3966 
  26   2.0000      -0.418606       -11.3909 
  27   2.0000      -0.382704       -10.4139 
  28   2.0000      -0.382703       -10.4139 
  29   2.0000      -0.372555       -10.1378 
  30   2.0000      -0.358739        -9.7618 
  31   2.0000      -0.358736        -9.7617 
  32   2.0000      -0.349072        -9.4987 
  33   2.0000      -0.340658        -9.2698 
  34   2.0000      -0.340657        -9.2697 
  35   2.0000      -0.324642        -8.8339 
  36   2.0000      -0.303414        -8.2563 
  37   2.0000      -0.301431        -8.2024 
  38   2.0000      -0.301430        -8.2023 
  39   2.0000      -0.297245        -8.0885 
  40   2.0000      -0.288120        -7.8401 
  41   2.0000      -0.288118        -7.8401 
  42   2.0000      -0.260452        -7.0873 
  43   2.0000      -0.260450        -7.0872 
  44   2.0000      -0.185773        -5.0551 
  45   0.0000       0.028289         0.7698 
  46   0.0000       0.028295         0.7699 
  47   0.0000       0.037372         1.0169 
  48   0.0000       0.057168         1.5556 
  49   0.0000       0.057170         1.5557 
  50   0.0000       0.057929         1.5763 
  51   0.0000       0.071432         1.9438 
  52   0.0000       0.071443         1.9441 
  53   0.0000       0.085219         2.3189 
  54   0.0000       0.096622         2.6292 
  55   0.0000       0.096634         2.6295 
*Only the first 10 virtual orbitals were printed.

                    ********************************
                    * MULLIKEN POPULATION ANALYSIS *
                    ********************************

-----------------------
MULLIKEN ATOMIC CHARGES
-----------------------
   0 C :   -0.034350
   1 C :   -0.026282
   2 C :   -0.160554
   3 P :    0.115220
   4 C :   -0.160591
   5 C :   -0.026384
   6 C :   -0.034312
   7 C :   -0.160716
   8 C :   -0.026294
   9 C :   -0.034327
  10 H :    0.024615
  11 H :    0.021107
  12 H :    0.022906
  13 H :    0.021364
  14 H :    0.027263
  15 H :    0.041268
  16 H :    0.024296
  17 H :    0.024347
  18 H :    0.041241
  19 H :    0.021374
  20 H :    0.027263
  21 H :    0.024600
  22 H :    0.021139
  23 H :    0.022891
  24 H :    0.024367
  25 H :    0.041282
  26 H :    0.027277
  27 H :    0.021376
  28 H :    0.022902
  29 H :    0.024595
  30 H :    0.021117
Sum of atomic charges:   -0.0000000

--------------------------------
MULLIKEN REDUCED ORBITAL CHARGES
--------------------------------
  0 C s       :     3.003526  s :     3.003526
      pz      :     0.999674  p :     3.003916
      px      :     1.013323
      py      :     0.990920
      dz2     :     0.005777  d :     0.026908
      dxz     :     0.004915
      dyz     :     0.005581
      dx2y2   :     0.007894
      dxy     :     0.002741

  1 C s       :     3.009957  s :     3.009957
      pz      :     1.015583  p :     2.980862
      px      :     1.017374
      py      :     0.947905
      dz2     :     0.007420  d :     0.035464
      dxz     :     0.005530
      dyz     :     0.007669
      dx2y2   :     0.010072
      dxy     :     0.004773

  2 C s       :     3.082790  s :     3.082790
      pz      :     1.025774  p :     3.049340
      px      :     1.021603
      py      :     1.001964
      dz2     :     0.006328  d :     0.028424
      dxz     :     0.004507
      dyz     :     0.006353
      dx2y2   :     0.007791
      dxy     :     0.003446

  3 P s       :     5.816101  s :     5.816101
      pz      :     3.246541  p :     8.902836
      px      :     2.862394
      py      :     2.793901
      dz2     :     0.021618  d :     0.165843
      dxz     :     0.020821
      dyz     :     0.048276
      dx2y2   :     0.049077
      dxy     :     0.026051

  4 C s       :     3.082788  s :     3.082788
      pz      :     1.016079  p :     3.049379
      px      :     1.004656
      py      :     1.028644
      dz2     :     0.006281  d :     0.028424
      dxz     :     0.006296
      dyz     :     0.004013
      dx2y2   :     0.005902
      dxy     :     0.005933

  5 C s       :     3.009958  s :     3.009958
      pz      :     1.013988  p :     2.980962
      px      :     0.960333
      py      :     1.006641
      dz2     :     0.007689  d :     0.035464
      dxz     :     0.006751
      dyz     :     0.005380
      dx2y2   :     0.008112
      dxy     :     0.007533

  6 C s       :     3.003501  s :     3.003501
      pz      :     1.004086  p :     3.003903
      px      :     1.003621
      py      :     0.996197
      dz2     :     0.008007  d :     0.026908
      dxz     :     0.002825
      dyz     :     0.004630
      dx2y2   :     0.007954
      dxy     :     0.003491

  7 C s       :     3.082840  s :     3.082840
      pz      :     1.012558  p :     3.049451
      px      :     1.021247
      py      :     1.015645
      dz2     :     0.008360  d :     0.028425
      dxz     :     0.004291
      dyz     :     0.004310
      dx2y2   :     0.006567
      dxy     :     0.004897

  8 C s       :     3.009919  s :     3.009919
      pz      :     1.013162  p :     2.980911
      px      :     0.979878
      py      :     0.987872
      dz2     :     0.008949  d :     0.035464
      dxz     :     0.005685
      dyz     :     0.004438
      dx2y2   :     0.008564
      dxy     :     0.007827

  9 C s       :     3.003530  s :     3.003530
      pz      :     1.011107  p :     3.003889
      px      :     0.982817
      py      :     1.009965
      dz2     :     0.005964  d :     0.026908
      dxz     :     0.005250
      dyz     :     0.003840
      dx2y2   :     0.005255
      dxy     :     0.006600

 10 H s       :     0.952633  s :     0.952633
      pz      :     0.006514  p :     0.022752
      px      :     0.005855
      py      :     0.010383

 11 H s       :     0.955977  s :     0.955977
      pz      :     0.010886  p :     0.022916
      px      :     0.007127
      py      :     0.004903

 12 H s       :     0.954201  s :     0.954201
      pz      :     0.005409  p :     0.022893
      px      :     0.012580
      py      :     0.004904

 13 H s       :     0.956731  s :     0.956731
      pz      :     0.005222  p :     0.021905
      px      :     0.012381
      py      :     0.004302

 14 H s       :     0.951126  s :     0.951126
      pz      :     0.010710  p :     0.021611
      px      :     0.006782
      py      :     0.004119

 15 H s       :     0.936005  s :     0.936005
      pz      :     0.005290  p :     0.022727
      px      :     0.012706
      py      :     0.004731

 16 H s       :     0.953288  s :     0.953288
      pz      :     0.010770  p :     0.022416
      px      :     0.007030
      py      :     0.004616

 17 H s       :     0.953237  s :     0.953237
      pz      :     0.011619  p :     0.022416
      px      :     0.005388
      py      :     0.005410

 18 H s       :     0.936031  s :     0.936031
      pz      :     0.006254  p :     0.022727
      px      :     0.005808
      py      :     0.010665

 19 H s       :     0.956720  s :     0.956720
      pz      :     0.006086  p :     0.021906
      px      :     0.005571
      py      :     0.010249

 20 H s       :     0.951126  s :     0.951126
      pz      :     0.011559  p :     0.021611
      px      :     0.005189
      py      :     0.004864

 21 H s       :     0.952648  s :     0.952648
      pz      :     0.005125  p :     0.022752
      px      :     0.012716
      py      :     0.004911

 22 H s       :     0.955947  s :     0.955947
      pz      :     0.011787  p :     0.022914
      px      :     0.006223
      py      :     0.004904

 23 H s       :     0.954216  s :     0.954216
      pz      :     0.005921  p :     0.022893
      px      :     0.006326
      py      :     0.010647

 24 H s       :     0.953216  s :     0.953216
      pz      :     0.012404  p :     0.022417
      px      :     0.005330
      py      :     0.004683

 25 H s       :     0.935990  s :     0.935990
      pz      :     0.006028  p :     0.022728
      px      :     0.006158
      py      :     0.010542

 26 H s       :     0.951111  s :     0.951111
      pz      :     0.012136  p :     0.021612
      px      :     0.004815
      py      :     0.004661

 27 H s       :     0.956720  s :     0.956720
      pz      :     0.005885  p :     0.021904
      px      :     0.005731
      py      :     0.010288

 28 H s       :     0.954204  s :     0.954204
      pz      :     0.006448  p :     0.022894
      px      :     0.005917
      py      :     0.010528

 29 H s       :     0.952652  s :     0.952652
      pz      :     0.007329  p :     0.022753
      px      :     0.005609
      py      :     0.009815

 30 H s       :     0.955968  s :     0.955968
      pz      :     0.012213  p :     0.022915
      px      :     0.005049
      py      :     0.005653



                     *******************************
                     * LOEWDIN POPULATION ANALYSIS *
                     *******************************

----------------------
LOEWDIN ATOMIC CHARGES
----------------------
   0 C :   -0.067574
   1 C :   -0.056282
   2 C :   -0.182318
   3 P :    0.437944
   4 C :   -0.182325
   5 C :   -0.056294
   6 C :   -0.067569
   7 C :   -0.182342
   8 C :   -0.056288
   9 C :   -0.067564
  10 H :    0.026552
  11 H :    0.023899
  12 H :    0.024307
  13 H :    0.020924
  14 H :    0.025598
  15 H :    0.023696
  16 H :    0.015219
  17 H :    0.015230
  18 H :    0.023690
  19 H :    0.020926
  20 H :    0.025598
  21 H :    0.026550
  22 H :    0.023909
  23 H :    0.024304
  24 H :    0.015230
  25 H :    0.023698
  26 H :    0.025602
  27 H :    0.020928
  28 H :    0.024302
  29 H :    0.026549
  30 H :    0.023901

-------------------------------
LOEWDIN REDUCED ORBITAL CHARGES
-------------------------------
  0 C s       :     2.841253  s :     2.841253
      pz      :     1.053634  p :     3.155741
      px      :     1.065221
      py      :     1.036887
      dz2     :     0.013948  d :     0.070580
      dxz     :     0.012507
      dyz     :     0.016359
      dx2y2   :     0.021550
      dxy     :     0.006216

  1 C s       :     2.838848  s :     2.838848
      pz      :     1.050742  p :     3.128281
      px      :     1.061473
      py      :     1.016066
      dz2     :     0.017394  d :     0.089153
      dxz     :     0.013703
      dyz     :     0.020989
      dx2y2   :     0.026867
      dxy     :     0.010201

  2 C s       :     2.895423  s :     2.895423
      pz      :     1.079567  p :     3.214050
      px      :     1.076063
      py      :     1.058421
      dz2     :     0.015056  d :     0.072845
      dxz     :     0.011846
      dyz     :     0.017351
      dx2y2   :     0.021362
      dxy     :     0.007230

  3 P s       :     5.312017  s :     5.312017
      pz      :     3.335789  p :     9.029958
      px      :     2.887090
      py      :     2.807078
      dz2     :     0.027124  d :     0.220081
      dxz     :     0.025107
      dyz     :     0.066000
      dx2y2   :     0.068543
      dxy     :     0.033307

  4 C s       :     2.895421  s :     2.895421
      pz      :     1.084961  p :     3.214059
      px      :     1.043527
      py      :     1.085571
      dz2     :     0.016846  d :     0.072845
      dxz     :     0.013809
      dyz     :     0.011662
      dx2y2   :     0.017057
      dxy     :     0.013472

  5 C s       :     2.838845  s :     2.838845
      pz      :     1.059107  p :     3.128297
      px      :     1.021905
      py      :     1.047286
      dz2     :     0.019176  d :     0.089152
      dxz     :     0.015255
      dyz     :     0.015238
      dx2y2   :     0.022335
      dxy     :     0.017149

  6 C s       :     2.841251  s :     2.841251
      pz      :     1.053546  p :     3.155738
      px      :     1.060319
      py      :     1.041872
      dz2     :     0.019561  d :     0.070580
      dxz     :     0.007359
      dyz     :     0.013801
      dx2y2   :     0.020836
      dxy     :     0.009023

  7 C s       :     2.895422  s :     2.895422
      pz      :     1.071334  p :     3.214075
      px      :     1.086250
      py      :     1.056491
      dz2     :     0.020810  d :     0.072845
      dxz     :     0.010047
      dyz     :     0.011928
      dx2y2   :     0.017387
      dxy     :     0.012672

  8 C s       :     2.838847  s :     2.838847
      pz      :     1.057651  p :     3.128288
      px      :     1.030118
      py      :     1.040519
      dz2     :     0.022975  d :     0.089152
      dxz     :     0.012414
      dyz     :     0.012358
      dx2y2   :     0.022949
      dxy     :     0.018457

  9 C s       :     2.841254  s :     2.841254
      pz      :     1.066691  p :     3.155731
      px      :     1.023358
      py      :     1.065682
      dz2     :     0.016645  d :     0.070580
      dxz     :     0.011664
      dyz     :     0.010601
      dx2y2   :     0.016113
      dxy     :     0.015557

 10 H s       :     0.907615  s :     0.907615
      pz      :     0.018329  p :     0.065833
      px      :     0.014702
      py      :     0.032803

 11 H s       :     0.910444  s :     0.910444
      pz      :     0.033532  p :     0.065658
      px      :     0.018912
      py      :     0.013213

 12 H s       :     0.910133  s :     0.910133
      pz      :     0.013956  p :     0.065560
      px      :     0.038538
      py      :     0.013066

 13 H s       :     0.912540  s :     0.912540
      pz      :     0.014330  p :     0.066536
      px      :     0.038661
      py      :     0.013545

 14 H s       :     0.908019  s :     0.908019
      pz      :     0.034250  p :     0.066383
      px      :     0.018866
      py      :     0.013267

 15 H s       :     0.905583  s :     0.905583
      pz      :     0.015238  p :     0.070722
      px      :     0.040063
      py      :     0.015421

 16 H s       :     0.913496  s :     0.913496
      pz      :     0.036947  p :     0.071285
      px      :     0.019130
      py      :     0.015208

 17 H s       :     0.913483  s :     0.913483
      pz      :     0.038973  p :     0.071287
      px      :     0.017188
      py      :     0.015125

 18 H s       :     0.905589  s :     0.905589
      pz      :     0.016817  p :     0.070721
      px      :     0.018012
      py      :     0.035891

 19 H s       :     0.912537  s :     0.912537
      pz      :     0.016714  p :     0.066536
      px      :     0.017591
      py      :     0.032231

 20 H s       :     0.908018  s :     0.908018
      pz      :     0.036150  p :     0.066384
      px      :     0.016538
      py      :     0.013696

 21 H s       :     0.907617  s :     0.907617
      pz      :     0.013168  p :     0.065833
      px      :     0.039236
      py      :     0.013429

 22 H s       :     0.910434  s :     0.910434
      pz      :     0.036362  p :     0.065657
      px      :     0.015853
      py      :     0.013441

 23 H s       :     0.910136  s :     0.910136
      pz      :     0.016075  p :     0.065560
      px      :     0.016278
      py      :     0.033207

 24 H s       :     0.913482  s :     0.913482
      pz      :     0.039698  p :     0.071287
      px      :     0.018247
      py      :     0.013343

 25 H s       :     0.905580  s :     0.905580
      pz      :     0.015972  p :     0.070722
      px      :     0.021207
      py      :     0.033543

 26 H s       :     0.908014  s :     0.908014
      pz      :     0.038605  p :     0.066384
      px      :     0.014903
      py      :     0.012876

 27 H s       :     0.912535  s :     0.912535
      pz      :     0.015862  p :     0.066537
      px      :     0.017689
      py      :     0.032986

 28 H s       :     0.910138  s :     0.910138
      pz      :     0.016017  p :     0.065560
      px      :     0.018104
      py      :     0.031439

 29 H s       :     0.907618  s :     0.907618
      pz      :     0.019783  p :     0.065833
      px      :     0.017385
      py      :     0.028665

 30 H s       :     0.910441  s :     0.910441
      pz      :     0.037311  p :     0.065657
      px      :     0.015219
      py      :     0.013127



                      *****************************
                      * MAYER POPULATION ANALYSIS *
                      *****************************

  NA   - Mulliken gross atomic population
  ZA   - Total nuclear charge
  QA   - Mulliken gross atomic charge
  VA   - Mayer's total valence
  BVA  - Mayer's bonded valence
  FA   - Mayer's free valence

  ATOM       NA         ZA         QA         VA         BVA        FA
  0 C      6.0344     6.0000    -0.0344     4.0369     4.0369    -0.0000
  1 C      6.0263     6.0000    -0.0263     4.1001     4.1001    -0.0000
  2 C      6.1606     6.0000    -0.1606     3.9464     3.9464    -0.0000
  3 P     14.8848    15.0000     0.1152     3.0803     3.0803    -0.0000
  4 C      6.1606     6.0000    -0.1606     3.9465     3.9465    -0.0000
  5 C      6.0264     6.0000    -0.0264     4.1002     4.1002    -0.0000
  6 C      6.0343     6.0000    -0.0343     4.0369     4.0369    -0.0000
  7 C      6.1607     6.0000    -0.1607     3.9465     3.9465    -0.0000
  8 C      6.0263     6.0000    -0.0263     4.1001     4.1001    -0.0000
  9 C      6.0343     6.0000    -0.0343     4.0369     4.0369    -0.0000
 10 H      0.9754     1.0000     0.0246     0.9835     0.9835    -0.0000
 11 H      0.9789     1.0000     0.0211     0.9908     0.9908    -0.0000
 12 H      0.9771     1.0000     0.0229     0.9908     0.9908    -0.0000
 13 H      0.9786     1.0000     0.0214     0.9831     0.9831    -0.0000
 14 H      0.9727     1.0000     0.0273     0.9826     0.9826    -0.0000
 15 H      0.9587     1.0000     0.0413     0.9892     0.9892    -0.0000
 16 H      0.9757     1.0000     0.0243     0.9873     0.9873    -0.0000
 17 H      0.9757     1.0000     0.0243     0.9873     0.9873    -0.0000
 18 H      0.9588     1.0000     0.0412     0.9892     0.9892    -0.0000
 19 H      0.9786     1.0000     0.0214     0.9831     0.9831    -0.0000
 20 H      0.9727     1.0000     0.0273     0.9826     0.9826    -0.0000
 21 H      0.9754     1.0000     0.0246     0.9835     0.9835    -0.0000
 22 H      0.9789     1.0000     0.0211     0.9908     0.9908    -0.0000
 23 H      0.9771     1.0000     0.0229     0.9908     0.9908    -0.0000
 24 H      0.9756     1.0000     0.0244     0.9873     0.9873    -0.0000
 25 H      0.9587     1.0000     0.0413     0.9892     0.9892    -0.0000
 26 H      0.9727     1.0000     0.0273     0.9827     0.9827    -0.0000
 27 H      0.9786     1.0000     0.0214     0.9831     0.9831    -0.0000
 28 H      0.9771     1.0000     0.0229     0.9908     0.9908    -0.0000
 29 H      0.9754     1.0000     0.0246     0.9835     0.9835    -0.0000
 30 H      0.9789     1.0000     0.0211     0.9908     0.9908    -0.0000

  Mayer bond orders larger than 0.100000
B(  0-C ,  1-C ) :   1.1177 B(  0-C , 10-H ) :   0.9617 B(  0-C , 11-H ) :   0.9669 
B(  0-C , 12-H ) :   0.9678 B(  1-C ,  2-C ) :   1.0717 B(  1-C , 13-H ) :   0.9380 
B(  1-C , 14-H ) :   0.9379 B(  2-C ,  3-P ) :   0.9690 B(  2-C , 15-H ) :   0.9358 
B(  2-C , 16-H ) :   0.9201 B(  3-P ,  4-C ) :   0.9689 B(  3-P ,  7-C ) :   0.9690 
B(  4-C ,  5-C ) :   1.0718 B(  4-C , 17-H ) :   0.9201 B(  4-C , 18-H ) :   0.9358 
B(  5-C ,  6-C ) :   1.1177 B(  5-C , 19-H ) :   0.9380 B(  5-C , 20-H ) :   0.9379 
B(  6-C , 21-H ) :   0.9617 B(  6-C , 22-H ) :   0.9669 B(  6-C , 23-H ) :   0.9678 
B(  7-C ,  8-C ) :   1.0718 B(  7-C , 24-H ) :   0.9201 B(  7-C , 25-H ) :   0.9358 
B(  8-C ,  9-C ) :   1.1177 B(  8-C , 26-H ) :   0.9379 B(  8-C , 27-H ) :   0.9380 
B(  9-C , 28-H ) :   0.9678 B(  9-C , 29-H ) :   0.9617 B(  9-C , 30-H ) :   0.9669 


-------
TIMINGS
-------

Total SCF time: 0 days 0 hours 0 min 5 sec 

Total time                  ....       5.390 sec
Sum of individual times     ....       5.337 sec  ( 99.0%)

SCF preparation             ....       0.086 sec  (  1.6%)
Fock matrix formation       ....       4.775 sec  ( 88.6%)
  Startup                   ....       0.030 sec  (  0.6% of F)
  Split-RI-J                ....       1.413 sec  ( 29.6% of F)
  XC integration            ....       3.206 sec  ( 67.1% of F)
    Basis function eval.    ....       0.929 sec  ( 29.0% of XC)
    Density eval.           ....       0.786 sec  ( 24.5% of XC)
    XC-Functional eval.     ....       0.120 sec  (  3.7% of XC)
    XC-Potential eval.      ....       0.787 sec  ( 24.5% of XC)
Diagonalization             ....       0.000 sec  (  0.0%)
Density matrix formation    ....       0.065 sec  (  1.2%)
Total Energy calculation    ....       0.029 sec  (  0.5%)
Population analysis         ....       0.043 sec  (  0.8%)
Orbital Transformation      ....       0.041 sec  (  0.8%)
Orbital Orthonormalization  ....       0.000 sec  (  0.0%)
DIIS solution               ....       0.187 sec  (  3.5%)
SOSCF solution              ....       0.111 sec  (  2.1%)
Finished LeanSCF after   5.4 sec

Maximum memory used throughout the entire LEANSCF-calculation: 25.2 MB


-------------------------------------------------------------------------------
                          DFT DISPERSION CORRECTION                            
                                                                               
                              DFTD3 V3.1  Rev 1                                
                          USING Becke-Johnson damping                          
-------------------------------------------------------------------------------
The BP86 functional is recognized
Active option DFTDOPT                   ...         4   

molecular C6(AA) [au] = 7634.543929 


            DFT-D V3
 parameters
 s6 scaling factor         :     1.0000 
 a1 scaling factor         :     0.3946 
 s8 scaling factor         :     3.2822 
 a2 scaling factor         :     4.8516 
 ad hoc parameters k1-k3   :    16.0000     1.3333    -4.0000 

 Edisp/kcal,au: -28.928472280273  -0.046100450097 
 E6   /kcal   : -11.191558514 
 E8   /kcal   : -17.736913767 
 % E8         :  61.312998470 

-------------------------   ----------------
Dispersion correction           -0.046100450
-------------------------   ----------------


-------------------------   --------------------
FINAL SINGLE POINT ENERGY      -696.664282936214
-------------------------   --------------------



           ************************************************************
           *        Program running with 6 parallel MPI-processes     *
           *              working on a common directory               *
           ************************************************************
------------------------------------------------------------------------------
                         ORCA SCF GRADIENT CALCULATION
------------------------------------------------------------------------------

Nuc. rep. gradient        (SHARK) ... done (  0.0 sec)
HCore & Overlap gradient  (SHARK) ... done (  0.1 sec)
Split-RIJ-J gradient      (SHARK) ... done (  0.5 sec)
XC gradient                       ... done (  2.3 sec)
Dispersion correction             ... done (  0.1 sec)

-------------------
DISPERSION GRADIENT
-------------------

   1   C   :   -0.000053639    0.000480336   -0.000108082
   2   C   :   -0.000100555    0.000523350    0.000044462
   3   C   :   -0.000100606    0.000416691   -0.000078569
   4   P   :   -0.000175629    0.000006335    0.000451216
   5   C   :   -0.000269834   -0.000314825   -0.000134168
   6   C   :   -0.000417657   -0.000327191   -0.000067023
   7   C   :   -0.000321235   -0.000318874   -0.000201019
   8   C   :    0.000404466   -0.000103094    0.000125321
   9   C   :    0.000425997   -0.000192832    0.000259472
  10   C   :    0.000456452   -0.000164405    0.000099517
  11   H   :    0.000002498    0.000190245   -0.000009621
  12   H   :    0.000019221    0.000205716   -0.000123842
  13   H   :   -0.000090355    0.000203002   -0.000060343
  14   H   :    0.000083432    0.000278014    0.000058857
  15   H   :   -0.000075397    0.000225612    0.000149586
  16   H   :   -0.000164809    0.000159710   -0.000056383
  17   H   :    0.000018790    0.000127247   -0.000208342
  18   H   :   -0.000006020   -0.000117813   -0.000214558
  19   H   :   -0.000052191   -0.000230379   -0.000007071
  20   H   :   -0.000280753   -0.000052638   -0.000078255
  21   H   :   -0.000234986   -0.000123334    0.000092367
  22   H   :   -0.000150865   -0.000096273   -0.000065292
  23   H   :   -0.000111911   -0.000128595   -0.000170190
  24   H   :   -0.000108007   -0.000193778   -0.000061643
  25   H   :    0.000204072   -0.000017256   -0.000134194
  26   H   :    0.000206851    0.000071035    0.000089526
  27   H   :    0.000125751   -0.000095618    0.000232390
  28   H   :    0.000166614   -0.000224268    0.000098287
  29   H   :    0.000220996   -0.000010041    0.000063838
  30   H   :    0.000156398   -0.000094261    0.000054278
  31   H   :    0.000222910   -0.000081818   -0.000040522

Difference to translation invariance:
           :   -0.0000000000   -0.0000000000   -0.0000000000

Difference to rotation invariance:
           :   -0.0000000000   -0.0000000000   -0.0000000000

Norm of the Dispersion gradient    ...    0.0019202821
RMS gradient                       ...    0.0001991240
MAX gradient                       ...    0.0005233499

------------------
CARTESIAN GRADIENT
------------------

   1   C   :   -0.003221794    0.001177543   -0.005712087
   2   C   :    0.005633846   -0.001199106    0.009940777
   3   C   :   -0.005451635   -0.001730038   -0.009482782
   4   P   :    0.005011516   -0.000095964   -0.012983425
   5   C   :    0.007734251   -0.006654809   -0.004228630
   6   C   :   -0.005664023    0.008393666    0.005408888
[...]
      py      :     2.808188
      dz2     :     0.025255  d :     0.206179
      dxz     :     0.023655
      dyz     :     0.063115
      dx2y2   :     0.063711
      dxy     :     0.030443

  4 C s       :     2.910900  s :     2.910900
      pz      :     1.080574  p :     3.205469
      px      :     1.041802
      py      :     1.083093
      dz2     :     0.015908  d :     0.069821
      dxz     :     0.013440
      dyz     :     0.010978
      dx2y2   :     0.015755
      dxy     :     0.013740

  5 C s       :     2.850546  s :     2.850546
      pz      :     1.056540  p :     3.124716
      px      :     1.023298
      py      :     1.044878
      dz2     :     0.019600  d :     0.086144
      dxz     :     0.013919
      dyz     :     0.014033
      dx2y2   :     0.021376
      dxy     :     0.017217

  6 C s       :     2.855393  s :     2.855393
      pz      :     1.051934  p :     3.151517
      px      :     1.058739
      py      :     1.040844
      dz2     :     0.019297  d :     0.067384
      dxz     :     0.006644
      dyz     :     0.012792
      dx2y2   :     0.019384
      dxy     :     0.009267

  7 C s       :     2.910950  s :     2.910950
      pz      :     1.069148  p :     3.205456
      px      :     1.081514
      py      :     1.054793
      dz2     :     0.020414  d :     0.069841
      dxz     :     0.009308
      dyz     :     0.011119
      dx2y2   :     0.016861
      dxy     :     0.012139

  8 C s       :     2.850470  s :     2.850470
      pz      :     1.056638  p :     3.124782
      px      :     1.027155
      py      :     1.040989
      dz2     :     0.021991  d :     0.086157
      dxz     :     0.012353
      dyz     :     0.011441
      dx2y2   :     0.021719
      dxy     :     0.018653

  9 C s       :     2.855382  s :     2.855382
      pz      :     1.065923  p :     3.151486
      px      :     1.020730
      py      :     1.064834
      dz2     :     0.016045  d :     0.067387
      dxz     :     0.011077
      dyz     :     0.009704
      dx2y2   :     0.015214
      dxy     :     0.015348

 10 H s       :     0.907329  s :     0.907329
      pz      :     0.017420  p :     0.063392
      px      :     0.013642
      py      :     0.032330

 11 H s       :     0.910403  s :     0.910403
      pz      :     0.032228  p :     0.063150
      px      :     0.018789
      py      :     0.012133

 12 H s       :     0.910188  s :     0.910188
      pz      :     0.013651  p :     0.063093
      px      :     0.037403
      py      :     0.012039

 13 H s       :     0.913334  s :     0.913334
      pz      :     0.013955  p :     0.063676
      px      :     0.037323
      py      :     0.012398

 14 H s       :     0.908672  s :     0.908672
      pz      :     0.033059  p :     0.063848
      px      :     0.018661
      py      :     0.012127

 15 H s       :     0.906757  s :     0.906757
      pz      :     0.014780  p :     0.067923
      px      :     0.038909
      py      :     0.014235

 16 H s       :     0.913853  s :     0.913853
      pz      :     0.035482  p :     0.067928
      px      :     0.018612
      py      :     0.013834

 17 H s       :     0.913760  s :     0.913760
      pz      :     0.037708  p :     0.067928
      px      :     0.016066
      py      :     0.014155

 18 H s       :     0.906730  s :     0.906730
      pz      :     0.015771  p :     0.067939
      px      :     0.017709
      py      :     0.034459

 19 H s       :     0.913345  s :     0.913345
      pz      :     0.015114  p :     0.063682
      px      :     0.016978
      py      :     0.031589

 20 H s       :     0.908691  s :     0.908691
      pz      :     0.035832  p :     0.063851
      px      :     0.015312
      py      :     0.012707

 21 H s       :     0.907331  s :     0.907331
      pz      :     0.012270  p :     0.063389
      px      :     0.038601
      py      :     0.012519

 22 H s       :     0.910393  s :     0.910393
      pz      :     0.035859  p :     0.063163
      px      :     0.014705
      py      :     0.012599

 23 H s       :     0.910196  s :     0.910196
      pz      :     0.014744  p :     0.063091
      px      :     0.015804
      py      :     0.032543

 24 H s       :     0.913846  s :     0.913846
      pz      :     0.039008  p :     0.067903
      px      :     0.016630
      py      :     0.012265

 25 H s       :     0.906680  s :     0.906680
      pz      :     0.014728  p :     0.067895
      px      :     0.019864
      py      :     0.033303

 26 H s       :     0.908639  s :     0.908639
      pz      :     0.037588  p :     0.063846
      px      :     0.013879
      py      :     0.012379

 27 H s       :     0.913329  s :     0.913329
      pz      :     0.014758  p :     0.063702
      px      :     0.016939
      py      :     0.032005

 28 H s       :     0.910182  s :     0.910182
      pz      :     0.014857  p :     0.063092
      px      :     0.017431
      py      :     0.030804

 29 H s       :     0.907331  s :     0.907331
      pz      :     0.019298  p :     0.063389
      px      :     0.016421
      py      :     0.027670

 30 H s       :     0.910395  s :     0.910395
      pz      :     0.036560  p :     0.063160
      px      :     0.014126
      py      :     0.012474



                      *****************************
                      * MAYER POPULATION ANALYSIS *
                      *****************************

  NA   - Mulliken gross atomic population
  ZA   - Total nuclear charge
  QA   - Mulliken gross atomic charge
  VA   - Mayer's total valence
  BVA  - Mayer's bonded valence
  FA   - Mayer's free valence

  ATOM       NA         ZA         QA         VA         BVA        FA
  0 C      6.0522     6.0000    -0.0522     4.0267     4.0267    -0.0000
  1 C      6.0295     6.0000    -0.0295     4.0854     4.0854     0.0000
  2 C      6.1799     6.0000    -0.1799     3.9381     3.9381    -0.0000
  3 P     14.8701    15.0000     0.1299     3.0662     3.0662    -0.0000
  4 C      6.1798     6.0000    -0.1798     3.9378     3.9378    -0.0000
  5 C      6.0300     6.0000    -0.0300     4.0857     4.0857    -0.0000
  6 C      6.0521     6.0000    -0.0521     4.0267     4.0267    -0.0000
  7 C      6.1797     6.0000    -0.1797     3.9377     3.9377    -0.0000
  8 C      6.0303     6.0000    -0.0303     4.0859     4.0859    -0.0000
  9 C      6.0520     6.0000    -0.0520     4.0268     4.0268    -0.0000
 10 H      0.9685     1.0000     0.0315     0.9826     0.9826    -0.0000
 11 H      0.9732     1.0000     0.0268     0.9885     0.9885    -0.0000
 12 H      0.9721     1.0000     0.0279     0.9887     0.9887    -0.0000
 13 H      0.9753     1.0000     0.0247     0.9822     0.9822     0.0000
 14 H      0.9692     1.0000     0.0308     0.9810     0.9810    -0.0000
 15 H      0.9549     1.0000     0.0451     0.9872     0.9872    -0.0000
 16 H      0.9687     1.0000     0.0313     0.9865     0.9865    -0.0000
 17 H      0.9685     1.0000     0.0315     0.9863     0.9863    -0.0000
 18 H      0.9547     1.0000     0.0453     0.9873     0.9873    -0.0000
 19 H      0.9752     1.0000     0.0248     0.9822     0.9822    -0.0000
 20 H      0.9692     1.0000     0.0308     0.9811     0.9811    -0.0000
 21 H      0.9685     1.0000     0.0315     0.9826     0.9826    -0.0000
 22 H      0.9732     1.0000     0.0268     0.9885     0.9885    -0.0000
 23 H      0.9720     1.0000     0.0280     0.9887     0.9887     0.0000
 24 H      0.9686     1.0000     0.0314     0.9864     0.9864    -0.0000
 25 H      0.9545     1.0000     0.0455     0.9868     0.9868     0.0000
 26 H      0.9691     1.0000     0.0309     0.9810     0.9810     0.0000
 27 H      0.9751     1.0000     0.0249     0.9823     0.9823     0.0000
 28 H      0.9720     1.0000     0.0280     0.9887     0.9887    -0.0000
 29 H      0.9685     1.0000     0.0315     0.9826     0.9826    -0.0000
 30 H      0.9733     1.0000     0.0267     0.9885     0.9885    -0.0000

  Mayer bond orders larger than 0.100000
B(  0-C ,  1-C ) :   1.1122 B(  0-C , 10-H ) :   0.9628 B(  0-C , 11-H ) :   0.9670 
B(  0-C , 12-H ) :   0.9677 B(  1-C ,  2-C ) :   1.0667 B(  1-C , 13-H ) :   0.9378 
B(  1-C , 14-H ) :   0.9383 B(  2-C ,  3-P ) :   0.9671 B(  2-C , 15-H ) :   0.9344 
B(  2-C , 16-H ) :   0.9224 B(  3-P ,  4-C ) :   0.9669 B(  3-P ,  7-C ) :   0.9669 
B(  4-C ,  5-C ) :   1.0668 B(  4-C , 17-H ) :   0.9224 B(  4-C , 18-H ) :   0.9343 
B(  5-C ,  6-C ) :   1.1122 B(  5-C , 19-H ) :   0.9377 B(  5-C , 20-H ) :   0.9383 
B(  6-C , 21-H ) :   0.9628 B(  6-C , 22-H ) :   0.9670 B(  6-C , 23-H ) :   0.9677 
B(  7-C ,  8-C ) :   1.0667 B(  7-C , 24-H ) :   0.9224 B(  7-C , 25-H ) :   0.9345 
B(  8-C ,  9-C ) :   1.1123 B(  8-C , 26-H ) :   0.9382 B(  8-C , 27-H ) :   0.9377 
B(  9-C , 28-H ) :   0.9678 B(  9-C , 29-H ) :   0.9628 B(  9-C , 30-H ) :   0.9669 


-------
TIMINGS
-------

Total SCF time: 0 days 0 hours 0 min 2 sec 

Total time                  ....       2.249 sec
Sum of individual times     ....       2.194 sec  ( 97.6%)

SCF preparation             ....       0.090 sec  (  4.0%)
Fock matrix formation       ....       1.878 sec  ( 83.5%)
  Startup                   ....       0.014 sec  (  0.7% of F)
  Split-RI-J                ....       0.580 sec  ( 30.9% of F)
  XC integration            ....       1.233 sec  ( 65.7% of F)
    Basis function eval.    ....       0.342 sec  ( 27.7% of XC)
    Density eval.           ....       0.309 sec  ( 25.1% of XC)
    XC-Functional eval.     ....       0.041 sec  (  3.3% of XC)
    XC-Potential eval.      ....       0.281 sec  ( 22.8% of XC)
Diagonalization             ....       0.000 sec  (  0.0%)
Density matrix formation    ....       0.025 sec  (  1.1%)
Total Energy calculation    ....       0.013 sec  (  0.6%)
Population analysis         ....       0.054 sec  (  2.4%)
Orbital Transformation      ....       0.019 sec  (  0.8%)
Orbital Orthonormalization  ....       0.000 sec  (  0.0%)
DIIS solution               ....       0.031 sec  (  1.4%)
SOSCF solution              ....       0.084 sec  (  3.7%)
Finished LeanSCF after   2.3 sec

Maximum memory used throughout the entire LEANSCF-calculation: 25.7 MB


-------------------------------------------------------------------------------
                          DFT DISPERSION CORRECTION                            
                                                                               
                              DFTD3 V3.1  Rev 1                                
                          USING Becke-Johnson damping                          
-------------------------------------------------------------------------------
The BP86 functional is recognized
Active option DFTDOPT                   ...         4   

molecular C6(AA) [au] = 7639.124260 


            DFT-D V3
 parameters
 s6 scaling factor         :     1.0000 
 a1 scaling factor         :     0.3946 
 s8 scaling factor         :     3.2822 
 a2 scaling factor         :     4.8516 
 ad hoc parameters k1-k3   :    16.0000     1.3333    -4.0000 

 Edisp/kcal,au: -28.476794280027  -0.045380655463 
 E6   /kcal   : -11.014450271 
 E8   /kcal   : -17.462344009 
 % E8         :  61.321312493 

-------------------------   ----------------
Dispersion correction           -0.045380655
-------------------------   ----------------


-------------------------   --------------------
FINAL SINGLE POINT ENERGY      -696.669939310278
-------------------------   --------------------

                                *** OPTIMIZATION RUN DONE ***



           ************************************************************
           *        Program running with 6 parallel MPI-processes     *
           *              working on a common directory               *
           ************************************************************

------------------------------------------------------------------------------
                              ORCA PROPERTY CALCULATIONS
------------------------------------------------------------------------------

GBWName                                 ... data/geom_opt_P_BP86/75226/75226.gbw
Number of atoms                         ...     31
Number of basis functions               ...    249
Max core memory                         ...   1024 MB

Electric properties:
Dipole moment                           ... YES
Quadrupole moment                       ...  NO
Static polarizability (Dipole/Dipole)   ...  NO
Static polarizability (Dipole/Quad.)    ...  NO
Static polarizability (Quad./Quad.)     ...  NO
Static polarizability (Velocity)        ...  NO

Atomic electric properties:
Dipole moment                           ...  NO
Quadrupole moment                       ...  NO
Static polarizability                   ...  NO

Choice of electric origin               ... Center of mass
Position of electric origin             ...    -0.133165     0.005600     0.303352

General magnetic properties:
Magnetizability                         ...  NO

EPR properties:
g-Tensor (aka g-matrix)                 ...  NO
Zero-Field splitting spin-orbit         ...  NO
Zero-field splitting spin-spin          ...  NO
Hyperfine couplings                     ...  NO (   0 nuclei)
Quadrupole couplings                    ...  NO (   0 nuclei)
Contact density                         ...  NO (   0 nuclei)

NMR properties:
Chemical shifts                         ...  NO (   0 nuclei)
Spin-rotation constants                 ...  NO (   0 nuclei)
Spin-spin couplings                     ...  NO (   0 nuclei,    0 pairs)

Choice of magnetic origin               ... GIAO
Position of magnetic origin             ...     0.000000     0.000000     0.000000

Properties with geometric perturbations:
SCF Hessian                             ...  NO
IR spectrum                             ...  NO
VCD spectrum                            ...  NO
X-ray spectroscopy properties:
SCF XES/XAS/RIXS spectra                ...  NO


-------------
DIPOLE MOMENT
-------------

Method             : SCF
Type of density    : Electron Density
Multiplicity       :   1
Irrep              :   0
Energy             :  -696.6245586548147912 Eh
Relativity type    : 
Basis              : AO
                                X                 Y                 Z
Electronic contribution:     -1.912110329       0.080589927       4.917529185
Nuclear contribution   :      2.063832464      -0.086834278      -5.303950316
                        -----------------------------------------
Total Dipole Moment    :      0.151722135      -0.006244352      -0.386421130
                        -----------------------------------------
Magnitude (a.u.)       :      0.415186570
Magnitude (Debye)      :      1.055320393



--------------------
Rotational spectrum 
--------------------
 
Rotational constants in cm-1:             0.025095             0.025024             0.013390 
Rotational constants in MHz :           752.319936           750.188267           401.434213 

Dipole components along the rotational axes: 
x,y,z [a.u.] :    -0.001070    -0.001183    -0.415184 
x,y,z [Debye]:    -0.002719    -0.003007    -1.055313 

 

Dipole moment calculation done in   0.0 sec 

Maximum memory used throughout the entire PROP-calculation: 12.2 MB

--------------------------------
SUGGESTED CITATIONS FOR THIS RUN
--------------------------------

Below you find a list of papers that are relevant to this ORCA run
We neither can nor want to force you to cite these papers, but we appreciate if you do
You receive ORCA, which is the product of decades of hard work by many enthusiastic individuals, for free
The only thing we kindly ask in return is that you cite our papers,
We deeply appreciate it, if you show your appreciation for ORCA by not just citing the generic ORCA reference.

Please note that relegating all ORCA citations to the supporting information does *not* help us.
SI sections are not indexed - citations you put there will not count into any citation statistics
But we need these citations in order to attract the funding resources that allow us to do what we are doing

Therefore, if you are a happy ORCA user, please consider citing a few of the papers listed below in the main body of your paper

In addition to the list printed below, the program has created the file data/geom_opt_P_BP86/75226/75226.bibtex that contains the list in bibtex format
You can import this file easily into all common literature databanks and citation aid programs


List of essential papers. We consider these as the minimum necessary citations

  1. Neese,F.
     Software update: the ORCA program system, version 5.0
     WIRES Comput. Molec. Sci., 2022 12(1)e1606
     doi.org/10.1002/wcms.1606

List of papers to cite with high priority. The work reported in these papers was absolutely
necessary for this run to complete.
Our perspective: the developers of density functionals and basis sets usually get cited in chemistry papers
Good! But without the algorithms to do something with them, the functionals or basis sets would not do anything.
Hence, in our opinion, the algorithm design and method developments papers are equally worthy of getting cited

  1. Neese,F.
     An improvement of the resolution of the identity approximation for the formation of the Coulomb matrix
     J. Comp. Chem., 2003 24(14)1740-1747
     doi.org/10.1002/jcc.10318
  2. Neese,F.
     The SHARK Integral Generation and Digestion System
     J. Comp. Chem., 2022  1-16
     doi.org/10.1002/jcc.26942
  3. Grimme,S.; Antony,J.; Ehrlich,S.; Krieg,H.
     A consistent and accurate ab initio parametrization of density functional dispersion correction (DFT-D) for the 94 elements H-Pu
     J. Chem. Phys., 2010 132 154104-XXXX
     doi.org/10.1063/1.3382344
  4. Grimme,S.; Ehrlich,S.; Goerigk,L.
     Effect of the damping function in dispersion corrected density functional theory
     J. Comput. Chem., 2011 32(7)1456-1465
     doi.org/10.1002/jcc.21759

List of suggested additional citations. These are papers that are important in the 'surrounding' of 
of this run, or papers that preceded the highly important papers. If you like your results we are grateful for a citation.

  1. Neese,F.
     The ORCA program system
     WIRES Comput. Molec. Sci., 2012 2(1)73-78
     doi.org/10.1002/wcms.81
  2. Neese,F.
     Software update: the ORCA program system, version 4.0
     WIRES Comput. Molec. Sci., 2018 8(1)1-6
     doi.org/10.1002/wcms.1327
  3. Neese,F.; Wennmohs,F.; Becker,U.; Riplinger,C.
     The ORCA quantum chemistry program package
     J. Chem. Phys., 2020 152 Art. No. L224108
     doi.org/10.1063/5.0004608

List of optional additional citations

  1. Neese,F.
     Approximate second-order SCF convergence for spin unrestricted wavefunctions
     Chem. Phys. Lett., 2000 325(1-3)93-98
     doi.org/10.1016/s0009-2614(00)00662-x

Timings for individual modules:

Sum of individual times          ...       48.942 sec (=   0.816 min)
Startup calculation              ...        6.176 sec (=   0.103 min)  12.6 %
SCF iterations                   ...       24.047 sec (=   0.401 min)  49.1 %
Property calculations            ...        0.149 sec (=   0.002 min)   0.3 %
SCF Gradient evaluation          ...       18.499 sec (=   0.308 min)  37.8 %
Geometry relaxation              ...        0.071 sec (=   0.001 min)   0.1 %
                             ****ORCA TERMINATED NORMALLY****
TOTAL RUN TIME: 0 days 0 hours 0 minutes 50 seconds 232 msec
