
                                 *****************
                                 * O   R   C   A *
                                 *****************

                                            #,                                       
                                            ###                                      
                                            ####                                     
                                            #####                                    
                                            ######                                   
                                           ########,                                 
                                     ,,################,,,,,                         
                               ,,#################################,,                 
                          ,,##########################################,,             
                       ,#########################################, ''#####,          
                    ,#############################################,,   '####,        
                  ,##################################################,,,,####,       
                ,###########''''           ''''###############################       
              ,#####''   ,,,,##########,,,,          '''####'''          '####       
            ,##' ,,,,###########################,,,                        '##       
           ' ,,###''''                  '''############,,,                           
         ,,##''                                '''############,,,,        ,,,,,,###''
      ,#''                                            '''#######################'''  
     '                                                          ''''####''''         
             ,#######,   #######,   ,#######,      ##                                
            ,#'     '#,  ##    ##  ,#'     '#,    #''#        ,####,   ,####,        
            ##       ##  ##   ,#'  ##            #'  '#       #'       #'  '#        
            ##       ##  #######   ##           ,######,      #####,   #    #        
            '#,     ,#'  ##    ##  '#,     ,#' ,#      #,     #,   #   #,  ,#        
             '#######'   ##     ##  '#######'  #'      '#     '####' # '####'        



                #########################################################
                #                        -***-                          #
                #          Department of theory and spectroscopy        #
                #                                                       #
                #                      Frank Neese                      #
                #                                                       #
                #     Directorship, Architecture, Infrastructure        #
                #                    SHARK, DRIVERS                     #
                #        Core code/Algorithms in most modules           #
                #                                                       #
                #        Max Planck Institute fuer Kohlenforschung      #
                #                Kaiser Wilhelm Platz 1                 #
                #                 D-45470 Muelheim/Ruhr                 #
                #                      Germany                          #
                #                                                       #
                #                  All rights reserved                  #
                #                        -***-                          #
                #########################################################


                         Program Version 6.0.0  -   RELEASE   -


 With contributions from (in alphabetic order):
   Daniel Aravena         : Magnetic Suceptibility
   Michael Atanasov       : Ab Initio Ligand Field Theory (pilot matlab implementation)
   Alexander A. Auer      : GIAO ZORA, VPT2 properties, NMR spectrum
   Ute Becker             : All parallelization in ORCA, NUMFREQ, NUMCALC
   Giovanni Bistoni       : ED, misc. LED, open-shell LED, HFLD
   Martin Brehm           : Molecular dynamics
   Dmytro Bykov           : pre 5.0 version of the SCF Hessian
   Marcos Casanova-Páez   : Triplet and SCS-CIS(D). UHF-(DLPNO)-IP/EA/STEOM-CCSD. UHF-CVS-IP/STEOM-CCSD
   Vijay G. Chilkuri      : MRCI spin determinant printing, contributions to CSF-ICE
   Pauline Colinet        : FMM embedding
   Dipayan Datta          : RHF DLPNO-CCSD density
   Achintya Kumar Dutta   : EOM-CC, STEOM-CC
   Nicolas Foglia         : Exact transition moments, OPA infrastructure, MCD improvements
   Dmitry Ganyushin       : Spin-Orbit,Spin-Spin,Magnetic field MRCI
   Miquel Garcia          : C-PCM and meta-GGA Hessian, CCSD/C-PCM, Gaussian charge scheme
   Tiago L. C. Gouveia    : GS-ROHF, GS-ROCIS
   Yang Guo               : DLPNO-NEVPT2, F12-NEVPT2, CIM, IAO-localization
   Andreas Hansen         : Spin unrestricted coupled pair/coupled cluster methods
   Ingolf Harden          : AUTO-CI MPn and infrastructure 
   Benjamin Helmich-Paris : MC-RPA, TRAH-(SCF,CASSCF), AVAS, COSX integrals, SCF dyn. polar.
   Lee Huntington         : MR-EOM, pCC
   Robert Izsak           : Overlap fitted RIJCOSX, COSX-SCS-MP3, EOM
   Riya Kayal             : Wick's Theorem for AUTO-CI, AUTO-CI UHF-CCSDT
   Emily Kempfer          : AUTO-CI, RHF CISDT and CCSDT
   Christian Kollmar      : KDIIS, OOCD, Brueckner-CCSD(T), CCSD density, CASPT2, CASPT2-K, improved NEVPT2
   Axel Koslowski         : Symmetry handling
   Simone Kossmann        : Meta GGA functionals, TD-DFT gradient, OOMP2, (MP2 Hessian; deprecated post 5.0)
   Lucas Lang             : DCDCAS
   Marvin Lechner         : AUTO-CI (C++ implementation), FIC-MRCC
   Spencer Leger          : CASSCF response
   Dagmar Lenk            : GEPOL surface, SMD, ORCA-2-JSON
   Dimitrios Liakos       : Extrapolation schemes; Compound Job, initial MDCI parallelization
   Dimitrios Manganas     : Further ROCIS development; embedding schemes. LFT, Crystal Embedding
   Dimitrios Pantazis     : SARC Basis sets
   Anastasios Papadopoulos: AUTO-CI, single reference methods and gradients
   Taras Petrenko         : pre 6.0 DFT Hessian and TD-DFT gradient, (ASA, deprecated), ECA, 1-Electron XAS/XES, NRVS
   Peter Pinski           : DLPNO-MP2, DLPNO-MP2 Gradient
   Christoph Reimann      : Effective Core Potentials
   Marius Retegan         : Local ZFS, SOC
   Christoph Riplinger    : Optimizer, TS searches, QM/MM, DLPNO-CCSD(T), (RO)-DLPNO pert. Triples
   Michael Roemelt        : Original ROCIS implementation
   Masaaki Saitow         : Open-shell DLPNO-CCSD energy and density
   Barbara Sandhoefer     : DKH picture change effects
   Kantharuban Sivalingam : CASSCF convergence/infrastructure, NEVPT2 and variants, FIC-MRCI
   Bernardo de Souza      : ESD, SOC TD-DFT
   Georgi Stoychev        : AutoAux, RI-MP2 NMR, DLPNO-MP2 response, X2C
   Van Anh Tran           : RI-MP2 g-tensors
   Willem Van den Heuvel  : Paramagnetic NMR
   Zikuan Wang            : NOTCH, Electric field optimization 
   Frank Wennmohs         : Technical directorship and infrastructure
   Hang Xu                : AUTO-CI-Response properties 


 We gratefully acknowledge several colleagues who have allowed us to
 interface, adapt or use parts of their codes:
   Stefan Grimme, W. Hujo, H. Kruse, P. Pracht,  : VdW corrections, initial TS optimization,
                  C. Bannwarth, S. Ehlert,         DFT functionals, gCP, sTDA/sTD-DF
                  L. Wittmann, M. Mueller
   Ed Valeev, F. Pavosevic, A. Kumar             : LibInt (2-el integral package), F12 methods
   Garnet Chan, S. Sharma, J. Yang, R. Olivares  : DMRG
   Ulf Ekstrom                                   : XCFun DFT Library
   Mihaly Kallay                                 : mrcc  (arbitrary order and MRCC methods)
   Frank Weinhold                                : gennbo (NPA and NBO analysis)
   Simon Mueller                                 : openCOSMO-RS
   Christopher J. Cramer and Donald G. Truhlar   : smd solvation model
   Lars Goerigk                                  : TD-DFT with DH, B97 family of functionals
   V. Asgeirsson, H. Jonsson                     : NEB implementation
   FAccTs GmbH                                   : IRC, NEB, NEB-TS, DLPNO-Multilevel, CI-OPT
                                                   MM, QMMM, 2- and 3-layer-ONIOM, Crystal-QMMM,
                                                   LR-CPCM, SF, NACMEs, symmetry and pop. for TD-DFT,
                                                   nearIR, NL-DFT gradient (VV10), updates on ESD,
                                                   ML-optimized integration grids, MBIS, APM,
                                                   GOAT, DOCKER, SOLVATOR, interface openCOSMO-RS
   S Lehtola, MJT Oliveira, MAL Marques          : LibXC Library
   Liviu Ungur et al                             : ANISO software


 Your calculation uses the libint2 library for the computation of 2-el integrals
 For citations please refer to: http://libint.valeyev.net

 Your ORCA version has been built with support for libXC version: 6.2.2
 For citations please refer to: https://libxc.gitlab.io

 This ORCA versions uses:
   CBLAS   interface :  Fast vector & matrix operations
   LAPACKE interface :  Fast linear algebra routines
   Shared memory     :  Shared parallel matrices


Your calculation utilizes the atom-pairwise dispersion correction
with the zero-damping scheme (D30)


XCFun DFT library Copyright 2009-2010 Ulf Ekstrom and contributors.
See http://admol.org/xcfun for more information.
This is free software; see the source code for copying conditions.
There is ABSOLUTELY NO WARRANTY; not even for MERCHANTABILITY or FITNESS FOR A PARTICULAR PURPOSE.
For details see the documentation.
Scientific users of this library should cite U. Ekstrom, L. Visscher, R. Bast, A. J. Thorvaldsen and K. Ruud;
J.Chem.Theor.Comp. 2010, DOI: 10.1021/ct100117s
XCFun Version 0.99 

Warning: RI is on but no J-basis has been assigned. Assigning Def2/J (nothing to worry about!)
================================================================================

----- Orbital basis set information -----
Your calculation utilizes the basis: def2-TZVP
   F. Weigend and R. Ahlrichs, Phys. Chem. Chem. Phys. 7, 3297 (2005).

----- AuxJ basis set information -----
Your calculation utilizes the auxiliary basis: def2/J
   F. Weigend, Phys. Chem. Chem. Phys. 8, 1057 (2006).

================================================================================
                                        WARNINGS
                       Please study these warnings very carefully!
================================================================================

WARNING: Functional chosen is sensitive to the integration grid.
         DEFGRID3 seems to be a minimum grid for robust results!

================================================================================
                                       INPUT FILE
================================================================================
NAME = data/single_point_P_M06-2x/300563/300563.inp
|  1> ! RIJCOSX M062X def2-TZVP D3ZERO NormalSCF
|  2> %pal
|  3> nprocs 6
|  4> end
|  5> 
|  6> * xyz 0 1
|  7>   C          -3.93987012348824      0.53981403753302      1.56370795150049
|  8>   C          -3.89676858365677      1.06327467944549      0.26043925252243
|  9>   C          -2.80716887138943      0.77382850721366     -0.57532792229110
| 10>   C          -1.73649204779049     -0.02064292416196     -0.10925571820005
| 11>   C          -1.78633261249721     -0.54190733590623      1.19967042339056
| 12>   C          -2.88594689479086     -0.26616326577198      2.02714372985063
| 13>   P          -0.36835530904987     -0.32075788147704     -1.32755656766777
| 14>   C           0.64346070705203     -1.63144232522991     -0.51668217478539
| 15>   C           2.02262669104159     -1.49686945290298     -0.25631132623326
| 16>   C           2.75864065700032     -2.57475114653586      0.26163143479584
| 17>   C           2.12876640779866     -3.80097423954240      0.52835262693705
| 18>   C           0.75663958067533     -3.94856906017581      0.26046383993987
| 19>   C           0.02198463415205     -2.87757437348783     -0.26861643703278
| 20>   C           0.66139488782521      1.19699343825235     -1.02179116553099
| 21>   C           1.02554226563319      1.99083808094315     -2.12743097569074
| 22>   C           1.75606034638494      3.18377331178537     -1.97932869354407
| 23>   C           2.13802387678838      3.60167546258325     -0.69331696556190
| 24>   C           1.79561241126629      2.82801466493714      0.43117293467481
| 25>   C           1.06661839506397      1.64099141564424      0.25403351592549
| 26>   F           0.77932338912366      0.92649814920310      1.34930896471202
| 27>   F           2.17206743445567      3.22794545328509      1.65109318551463
| 28>   F           2.82947491784622      4.73211849171032     -0.53700264802967
| 29>   F           2.08693199005732      3.92055670823345     -3.04540854028424
| 30>   F           0.67936187250337      1.62925657355144     -3.37002730091599
| 31>   H          -4.79819460416038      0.75651383929894      2.21799192923606
| 32>   H          -4.72193275877792      1.68945948032833     -0.11234277271685
| 33>   H          -2.78411198045655      1.16638716173746     -1.60523378188343
| 34>   H          -0.95755258615775     -1.15871570523296      1.57542205520434
| 35>   H          -2.91444463538088     -0.67764188802578      3.04801287867807
| 36>   H           2.53062449067019     -0.54230671092788     -0.46015406865021
| 37>   H           3.83387073504081     -2.45101163665686      0.46320625797921
| 38>   H           2.70627442806046     -4.64250757788503      0.94012131578843
| 39>   H           0.25428206160553     -4.90775183422773      0.45943552437320
| 40>   H          -1.05041017244886     -3.00835409753756     -0.48542076200471
| 41> **                         ****END OF INPUT****
================================================================================

                       ****************************
                       * Single Point Calculation *
                       ****************************

---------------------------------
CARTESIAN COORDINATES (ANGSTROEM)
---------------------------------
  C     -3.939870    0.539814    1.563708
  C     -3.896769    1.063275    0.260439
  C     -2.807169    0.773829   -0.575328
  C     -1.736492   -0.020643   -0.109256
  C     -1.786333   -0.541907    1.199670
  C     -2.885947   -0.266163    2.027144
  P     -0.368355   -0.320758   -1.327557
  C      0.643461   -1.631442   -0.516682
  C      2.022627   -1.496869   -0.256311
  C      2.758641   -2.574751    0.261631
  C      2.128766   -3.800974    0.528353
  C      0.756640   -3.948569    0.260464
  C      0.021985   -2.877574   -0.268616
  C      0.661395    1.196993   -1.021791
  C      1.025542    1.990838   -2.127431
  C      1.756060    3.183773   -1.979329
  C      2.138024    3.601675   -0.693317
  C      1.795612    2.828015    0.431173
  C      1.066618    1.640991    0.254034
  F      0.779323    0.926498    1.349309
  F      2.172067    3.227945    1.651093
  F      2.829475    4.732118   -0.537003
  F      2.086932    3.920557   -3.045409
  F      0.679362    1.629257   -3.370027
  H     -4.798195    0.756514    2.217992
  H     -4.721933    1.689459   -0.112343
  H     -2.784112    1.166387   -1.605234
  H     -0.957553   -1.158716    1.575422
  H     -2.914445   -0.677642    3.048013
  H      2.530624   -0.542307   -0.460154
  H      3.833871   -2.451012    0.463206
  H      2.706274   -4.642508    0.940121
  H      0.254282   -4.907752    0.459436
  H     -1.050410   -3.008354   -0.485421

----------------------------
CARTESIAN COORDINATES (A.U.)
----------------------------
  NO LB      ZA    FRAG     MASS         X           Y           Z
   0 C     6.0000    0    12.011   -7.445276    1.020101    2.954980
   1 C     6.0000    0    12.011   -7.363825    2.009298    0.492159
   2 C     6.0000    0    12.011   -5.304780    1.462324   -1.087212
   3 C     6.0000    0    12.011   -3.281494   -0.039009   -0.206463
   4 C     6.0000    0    12.011   -3.375679   -1.024056    2.267049
   5 C     6.0000    0    12.011   -5.453649   -0.502976    3.830746
   6 P    15.0000    0    30.974   -0.696091   -0.606145   -2.508718
   7 C     6.0000    0    12.011    1.215965   -3.082979   -0.976388
   8 C     6.0000    0    12.011    3.822211   -2.828673   -0.484358
   9 C     6.0000    0    12.011    5.213075   -4.865575    0.494412
  10 C     6.0000    0    12.011    4.022786   -7.182800    0.998442
  11 C     6.0000    0    12.011    1.429842   -7.461714    0.492205
  12 C     6.0000    0    12.011    0.041545   -5.437827   -0.507612
  13 C     6.0000    0    12.011    1.249855    2.261990   -1.930905
  14 C     6.0000    0    12.011    1.937994    3.762139   -4.020262
  15 C     6.0000    0    12.011    3.318473    6.016460   -3.740389
  16 C     6.0000    0    12.011    4.040280    6.806180   -1.310179
  17 C     6.0000    0    12.011    3.393216    5.344173    0.814799
  18 C     6.0000    0    12.011    2.015617    3.101024    0.480054
  19 F     9.0000    0    18.998    1.472708    1.750828    2.549824
  20 F     9.0000    0    18.998    4.104613    6.099933    3.120114
  21 F     9.0000    0    18.998    5.346933    8.942408   -1.014788
  22 F     9.0000    0    18.998    3.943730    7.408778   -5.754988
  23 F     9.0000    0    18.998    1.283808    3.078849   -6.368429
  24 H     1.0000    0     1.008   -9.067274    1.429604    4.191397
  25 H     1.0000    0     1.008   -8.923160    3.192616   -0.212297
  26 H     1.0000    0     1.008   -5.261209    2.204152   -3.033452
  27 H     1.0000    0     1.008   -1.809512   -2.189655    2.977116
  28 H     1.0000    0     1.008   -5.507502   -1.280558    5.759910
  29 H     1.0000    0     1.008    4.782187   -1.024811   -0.869565
  30 H     1.0000    0     1.008    7.244966   -4.631741    0.875333
  31 H     1.0000    0     1.008    5.114118   -8.773068    1.776572
  32 H     1.0000    0     1.008    0.480523   -9.274307    0.868207
  33 H     1.0000    0     1.008   -1.984988   -5.684965   -0.917312

--------------------------------
INTERNAL COORDINATES (ANGSTROEM)
--------------------------------
 C      0   0   0     0.000000000000     0.00000000     0.00000000
 C      1   0   0     1.405125648511     0.00000000     0.00000000
 C      2   1   0     1.403393526452   119.95662298     0.00000000
 C      3   2   1     1.412358670908   120.53519123   358.77643835
 C      4   3   2     1.409783073022   119.18133809     1.18725617
 C      5   4   3     1.403530703242   120.16177485   359.69905864
 P      4   3   2     1.856373907194   115.66248733   179.89897720
 C      7   4   3     1.843687240984   103.34142090   190.92838729
 C      8   7   4     1.409965123021   123.37924935   235.74721295
 C      9   8   7     1.404211596326   120.50064397   185.37818853
 C     10   9   8     1.404102858756   120.35109891   359.92630113
 C     11  10   9     1.405802497860   119.56036015     0.65542652
 C     12  11  10     1.402381349294   120.20039767   359.94732433
 C      7   4   3     1.859421151232    99.68714369    86.26143638
 C     14   7   4     1.408982618524   118.29287766   231.98006815
 C     15  14   7     1.406657533754   121.96581672   177.35496467
 C     16  15  14     1.405120817121   119.32482317     0.04159557
 C     17  16  15     1.407222149225   120.11199865     0.26904836
 C     18  17  16     1.404220368637   119.35765543   359.77188132
 F     19  18  17     1.338905283036   117.34200783   179.05915433
 F     18  17  16     1.337859648230   119.72423577   179.49150199
 F     17  16  15     1.334331349458   120.00343424   180.10293366
 F     16  15  14     1.337479740966   120.77903428   180.13026776
 F     15  14   7     1.339637144356   120.59771169   357.50084598
 H      1   2   3     1.100802998601   120.12351290   180.63518898
 H      2   1   3     1.100894980959   120.19712727   179.19300752
 H      3   2   1     1.102424599274   119.94407888   178.65969230
 H      5   4   3     1.099326241541   119.87793220   180.21936162
 H      6   5   4     1.101045229234   119.57025161   180.04642183
 H      9   8   7     1.100365237742   120.01102480     5.29879053
 H     10   9   8     1.100937598763   119.54898775   180.26627364
 H     11  10   9     1.100566820383   120.22816166   180.37873652
 H     12  11  10     1.100901631487   120.16006034   179.58593059
 H     13  12  11     1.101879336758   119.56659405   179.30199135

---------------------------
INTERNAL COORDINATES (A.U.)
---------------------------
 C      0   0   0     0.000000000000     0.00000000     0.00000000
 C      1   0   0     2.655302659434     0.00000000     0.00000000
 C      2   1   0     2.652029423113   119.95662298     0.00000000
 C      3   2   1     2.668971090886   120.53519123   358.77643835
 C      4   3   2     2.664103916250   119.18133809     1.18725617
 C      5   4   3     2.652288649677   120.16177485   359.69905864
 P      4   3   2     3.508038286754   115.66248733   179.89897720
 C      7   4   3     3.484063962065   103.34142090   190.92838729
 C      8   7   4     2.664447940891   123.37924935   235.74721295
 C      9   8   7     2.653575351133   120.50064397   185.37818853
 C     10   9   8     2.653369866905   120.35109891   359.92630113
 C     11  10   9     2.656581719337   119.56036015     0.65542652
 C     12  11  10     2.650116685484   120.20039767   359.94732433
 C      7   4   3     3.513796743449    99.68714369    86.26143638
 C     14   7   4     2.662591276466   118.29287766   231.98006815
 C     15  14   7     2.658197503012   121.96581672   177.35496467
 C     16  15  14     2.655293529431   119.32482317     0.04159557
 C     17  16  15     2.659264471624   120.11199865     0.26904836
 C     18  17  16     2.653591928398   119.35765543   359.77188132
 F     19  18  17     2.530164304199   117.34200783   179.05915433
 F     18  17  16     2.528188340779   119.72423577   179.49150199
 F     17  16  15     2.521520822382   120.00343424   180.10293366
 F     16  15  14     2.527470420093   120.77903428   180.13026776
 F     15  14   7     2.531547321661   120.59771169   357.50084598
 H      1   2   3     2.080216194754   120.12351290   180.63518898
 H      2   1   3     2.080390016222   120.19712727   179.19300752
 H      3   2   1     2.083280575925   119.94407888   178.65969230
 H      5   4   3     2.077425528346   119.87793220   180.21936162
 H      6   5   4     2.080673944312   119.57025161   180.04642183
 H      9   8   7     2.079388946619   120.01102480     5.29879053
 H     10   9   8     2.080470552198   119.54898775   180.26627364
 H     11  10   9     2.079769882604   120.22816166   180.37873652
 H     12  11  10     2.080402583897   120.16006034   179.58593059
 H     13  12  11     2.082250179099   119.56659405   179.30199135

---------------------
BASIS SET INFORMATION
---------------------
There are 4 groups of distinct atoms

 Group   1 Type C   : 11s6p2d1f contracted to 5s3p2d1f pattern {62111/411/11/1}
 Group   2 Type P   : 14s9p3d1f contracted to 5s5p2d1f pattern {73211/51111/21/1}
 Group   3 Type F   : 11s6p2d1f contracted to 5s3p2d1f pattern {62111/411/11/1}
 Group   4 Type H   : 5s1p contracted to 3s1p pattern {311/1}

Atom   0C    basis set group =>   1
Atom   1C    basis set group =>   1
Atom   2C    basis set group =>   1
Atom   3C    basis set group =>   1
Atom   4C    basis set group =>   1
Atom   5C    basis set group =>   1
Atom   6P    basis set group =>   2
Atom   7C    basis set group =>   1
Atom   8C    basis set group =>   1
Atom   9C    basis set group =>   1
Atom  10C    basis set group =>   1
Atom  11C    basis set group =>   1
Atom  12C    basis set group =>   1
Atom  13C    basis set group =>   1
Atom  14C    basis set group =>   1
Atom  15C    basis set group =>   1
Atom  16C    basis set group =>   1
Atom  17C    basis set group =>   1
Atom  18C    basis set group =>   1
Atom  19F    basis set group =>   3
Atom  20F    basis set group =>   3
Atom  21F    basis set group =>   3
Atom  22F    basis set group =>   3
Atom  23F    basis set group =>   3
Atom  24H    basis set group =>   4
Atom  25H    basis set group =>   4
Atom  26H    basis set group =>   4
Atom  27H    basis set group =>   4
Atom  28H    basis set group =>   4
Atom  29H    basis set group =>   4
Atom  30H    basis set group =>   4
Atom  31H    basis set group =>   4
Atom  32H    basis set group =>   4
Atom  33H    basis set group =>   4
---------------------------------
AUXILIARY/J BASIS SET INFORMATION
---------------------------------
There are 4 groups of distinct atoms

 Group   1 Type C   : 12s5p4d2f1g contracted to 6s4p3d1f1g pattern {711111/2111/211/2/1}
 Group   2 Type P   : 14s5p5d2f1g contracted to 8s4p3d1f1g pattern {71111111/2111/311/2/1}
 Group   3 Type F   : 12s5p4d2f1g contracted to 6s4p3d1f1g pattern {711111/2111/211/2/1}
 Group   4 Type H   : 5s2p1d contracted to 3s1p1d pattern {311/2/1}

Atom   0C    basis set group =>   1
Atom   1C    basis set group =>   1
Atom   2C    basis set group =>   1
Atom   3C    basis set group =>   1
Atom   4C    basis set group =>   1
Atom   5C    basis set group =>   1
Atom   6P    basis set group =>   2
Atom   7C    basis set group =>   1
Atom   8C    basis set group =>   1
Atom   9C    basis set group =>   1
Atom  10C    basis set group =>   1
Atom  11C    basis set group =>   1
Atom  12C    basis set group =>   1
Atom  13C    basis set group =>   1
Atom  14C    basis set group =>   1
Atom  15C    basis set group =>   1
Atom  16C    basis set group =>   1
Atom  17C    basis set group =>   1
Atom  18C    basis set group =>   1
Atom  19F    basis set group =>   3
Atom  20F    basis set group =>   3
Atom  21F    basis set group =>   3
Atom  22F    basis set group =>   3
Atom  23F    basis set group =>   3
Atom  24H    basis set group =>   4
Atom  25H    basis set group =>   4
Atom  26H    basis set group =>   4
Atom  27H    basis set group =>   4
Atom  28H    basis set group =>   4
Atom  29H    basis set group =>   4
Atom  30H    basis set group =>   4
Atom  31H    basis set group =>   4
Atom  32H    basis set group =>   4
Atom  33H    basis set group =>   4


           ************************************************************
           *        Program running with 6 parallel MPI-processes     *
           *              working on a common directory               *
           ************************************************************
------------------------------------------------------------------------------
                             ORCA STARTUP CALCULATIONS
                           -- RI-GTO INTEGRALS CHOSEN --
------------------------------------------------------------------------------
------------------------------------------------------------------------------
                   ___                                                        
                  /   \      - P O W E R E D   B Y -                         
                 /     \                                                     
                 |  |  |   _    _      __       _____    __    __             
                 |  |  |  | |  | |    /  \     |  _  \  |  |  /  |          
                  \  \/   | |  | |   /    \    | | | |  |  | /  /          
                 / \  \   | |__| |  /  /\  \   | |_| |  |  |/  /          
                |  |  |   |  __  | /  /__\  \  |    /   |      \           
                |  |  |   | |  | | |   __   |  |    \   |  |\   \          
                \     /   | |  | | |  |  |  |  | |\  \  |  | \   \       
                 \___/    |_|  |_| |__|  |__|  |_| \__\ |__|  \__/        
                                                                              
                      - O R C A' S   B I G   F R I E N D -                    
                                      &                                       
                       - I N T E G R A L  F E E D E R -                       
                                                                              
 v1 FN, 2020, v2 2021, v3 2022-2024                                           
------------------------------------------------------------------------------


----------------------
SHARK INTEGRAL PACKAGE
----------------------

Number of atoms                             ...     34
Number of basis functions                   ...    810
Number of shells                            ...    306
Maximum angular momentum                    ...      3
Integral batch strategy                     ... SHARK/LIBINT Hybrid
RI-J (if used) integral strategy            ... SPLIT-RIJ (Revised 2003 algorithm where possible)
Printlevel                                  ...      1
Contraction scheme used                     ... SEGMENTED contraction
Prescreening option                         ... SCHWARTZ
   Thresh                                   ... 1.000e-10
   Tcut                                     ... 1.000e-11
   Tpresel                                  ... 1.000e-11 
Coulomb Range Separation                    ... NOT USED
Exchange Range Separation                   ... NOT USED
Multipole approximations                    ... NOT USED
Finite Nucleus Model                        ... NOT USED
CABS basis                                  ... NOT available
Auxiliary Coulomb fitting basis             ... AVAILABLE
   # of basis functions in Aux-J            ...   1288
   # of shells in Aux-J                     ...    412
   Maximum angular momentum in Aux-J        ...      4
Auxiliary J/K fitting basis                 ... NOT available
Auxiliary Correlation fitting basis         ... NOT available
Auxiliary 'external' fitting basis          ... NOT available

Checking pre-screening integrals            ... done (  0.0 sec) Dimension = 306
Check shell pair data                       ... done (  0.0 sec)
Shell pair information
Shell pair cut-off parameter TPreSel        ...   1.0e-11
Total number of shell pairs                 ...     46971
Shell pairs after pre-screening             ...     31649
Total number of primitive shell pairs       ...    150450
Primitive shell pairs kept                  ...     65452
          la=0 lb=0:   7197 shell pairs
          la=1 lb=0:   9015 shell pairs
          la=1 lb=1:   2821 shell pairs
          la=2 lb=0:   4535 shell pairs
          la=2 lb=1:   2926 shell pairs
          la=2 lb=2:    768 shell pairs
          la=3 lb=0:   2132 shell pairs
          la=3 lb=1:   1391 shell pairs
          la=3 lb=2:    694 shell pairs
          la=3 lb=3:    170 shell pairs

Calculating one electron integrals          ... done (  0.1 sec)
Calculating RI/J V-Matrix + Cholesky decomp.... done (  0.1 sec)
Calculating Nuclear repulsion               ... done (  0.0 sec) ENN=   2185.116814833008 Eh

Diagonalization of the overlap matrix:
Smallest eigenvalue                        ... 8.495e-06
Time for diagonalization                   ...    0.133 sec
Threshold for overlap eigenvalues          ... 1.000e-07
Number of eigenvalues below threshold      ... 0
Time for construction of square roots      ...    0.063 sec
Total time needed                          ...    0.202 sec

-------------------
DFT GRID GENERATION
-------------------

General Integration Accuracy     IntAcc      ... 4.388
Radial Grid Type                 RadialGrid  ... OptM3 with GC (2021)
Angular Grid (max. ang.)         AngularGrid ... 4 (Lebedev-302)
Angular grid pruning method      GridPruning ... 4 (adaptive)
Weight generation scheme         WeightScheme... mBecke (2022)
Basis function cutoff            BFCut       ... 1.0000e-10
Integration weight cutoff        WCut        ... 1.0000e-14
Partially contracted basis set               ... off
Rotationally invariant grid construction     ... off
Angular grids for H and He will be reduced by one unit

Total number of grid points                  ...   177103
Total number of batches                      ...     2783
Average number of points per batch           ...       63
Average number of grid points per atom       ...     5209

--------------------
COSX GRID GENERATION
--------------------

GRIDX 1
-------
General Integration Accuracy     IntAcc      ... 3.816
Radial Grid Type                 RadialGrid  ... OptM3 with GC (2021)
Angular Grid (max. ang.)         AngularGrid ... 1 (Lebedev-50)
Angular grid pruning method      GridPruning ... 4 (adaptive)
Weight generation scheme         WeightScheme... mBecke (2022)
Basis function cutoff            BFCut       ... 1.0000e-10
Integration weight cutoff        WCut        ... 1.0000e-14
Partially contracted basis set               ... on
Rotationally invariant grid construction     ... off
Angular grids for H and He will be reduced by one unit

Total number of grid points                  ...    23390
Total number of batches                      ...      199
Average number of points per batch           ...      117
Average number of grid points per atom       ...      688
UseSFitting                                  ... on

GRIDX 2
-------
General Integration Accuracy     IntAcc      ... 4.020
Radial Grid Type                 RadialGrid  ... OptM3 with GC (2021)
Angular Grid (max. ang.)         AngularGrid ... 2 (Lebedev-110)
Angular grid pruning method      GridPruning ... 4 (adaptive)
Weight generation scheme         WeightScheme... mBecke (2022)
Basis function cutoff            BFCut       ... 1.0000e-10
Integration weight cutoff        WCut        ... 1.0000e-14
Partially contracted basis set               ... on
Rotationally invariant grid construction     ... off
Angular grids for H and He will be reduced by one unit

Total number of grid points                  ...    50083
Total number of batches                      ...      407
Average number of points per batch           ...      123
Average number of grid points per atom       ...     1473
UseSFitting                                  ... on

GRIDX 3
-------
General Integration Accuracy     IntAcc      ... 4.338
Radial Grid Type                 RadialGrid  ... OptM3 with GC (2021)
Angular Grid (max. ang.)         AngularGrid ... 3 (Lebedev-194)
Angular grid pruning method      GridPruning ... 4 (adaptive)
Weight generation scheme         WeightScheme... mBecke (2022)
Basis function cutoff            BFCut       ... 1.0000e-10
Integration weight cutoff        WCut        ... 1.0000e-14
Partially contracted basis set               ... on
Rotationally invariant grid construction     ... off
Angular grids for H and He will be reduced by one unit

Total number of grid points                  ...   110379
Total number of batches                      ...      881
Average number of points per batch           ...      125
Average number of grid points per atom       ...     3246
UseSFitting                                  ... on
Initializing property integral containers    ... done (  0.0 sec)

SHARK setup successfully completed in   4.2 seconds

Maximum memory used throughout the entire STARTUP-calculation: 75.1 MB


           ************************************************************
           *        Program running with 6 parallel MPI-processes     *
           *              working on a common directory               *
           ************************************************************
-------------------------------------------------------------------------------
                                 ORCA GUESS
                   Start orbitals & Density for SCF / CASSCF
-------------------------------------------------------------------------------

------------
SCF SETTINGS
------------
Hamiltonian:
 Density Functional     Method          .... DFT(GTOs)
 Exchange Functional    Exchange        .... M062X
 Correlation Functional Correlation     .... M062X
 Gradients option       PostSCFGGA      .... off
 Hybrid DFT is turned on
   Fraction HF Exchange ScalHFX         ....  0.540000
   Scaling of DF-GGA-X  ScalDFX         ....  0.460000
   Scaling of DF-GGA-C  ScalDFC         ....  1.000000
   Scaling of DF-LDA-C  ScalLDAC        ....  1.000000
   Perturbative correction              ....  0.000000
 RI-approximation to the Coulomb term is turned on
   Number of AuxJ basis functions       .... 1288
   RIJ-COSX (HFX calculated with COS-X)).... on


General Settings:
 Integral files         IntName         .... data/single_point_P_M06-2x/300563/300563
 Hartree-Fock type      HFTyp           .... RHF
 Total Charge           Charge          ....    0
 Multiplicity           Mult            ....    1
 Number of Electrons    NEL             ....  178
 Basis Dimension        Dim             ....  810
 Nuclear Repulsion      ENuc            ....   2185.1168148330 Eh

Convergence Acceleration:
 AO-DIIS                CNVDIIS         .... on
   Start iteration      DIISMaxIt       ....    12
   Startup error        DIISStart       ....  0.200000
   # of expansion vecs  DIISMaxEq       ....     5
   Bias factor          DIISBfac        ....   1.050
   Max. coefficient     DIISMaxC        ....  10.000
 MO-DIIS                CNVKDIIS        .... off
 Trust-Rad. Augm. Hess. CNVTRAH         .... auto
   Auto Start mean grad. ratio tolernc. ....  1.125000
   Auto Start start iteration           ....    50
   Auto Start num. interpolation iter.  ....    10
   Max. Number of Micro iterations      ....    24
   Max. Number of Macro iterations      .... Maxiter - #DIIS iter
   Number of Davidson start vectors     ....     2
   Converg. threshold    (grad. norm)   ....   5.000e-05
   Grad. Scal. Fac. for Micro threshold ....   0.100
   Minimum threshold for Micro iter.    ....   1.000e-02
   NR start threshold (gradient norm)   ....   1.000e-04
   Initial trust radius                 ....   0.400
   Minimum AH scaling param. (alpha)    ....   1.000
   Maximum AH scaling param. (alpha)    .... 1000.000
   Quad. conv. algorithm                .... NR
   White noise on init. David. guess    .... on
   Maximum white noise                  ....   0.010
   Pseudo random numbers                .... off
   Inactive MOs                         .... canonical
   Orbital update algorithm             .... Taylor
   Preconditioner                       .... Diag
   Full preconditioner red. dimension   ....   250
 SOSCF                  CNVSOSCF        .... on
   Start iteration      SOSCFMaxIt      ....   150
   Startup grad/error   SOSCFStart      ....  0.003300
   Hessian update       SOSCFHessUp     .... L-BFGS
 Level Shifting         CNVShift        .... on
   Level shift para.    LevelShift      ....    0.2500
   Turn off err/grad.   ShiftErr        ....    0.0010
 Zerner damping         CNVZerner       .... off
 Static damping         CNVDamp         .... on
   Fraction old density DampFac         ....    0.7000
   Max. Damping (<1)    DampMax         ....    0.9800
   Min. Damping (>=0)   DampMin         ....    0.0000
   Turn off err/grad.   DampErr         ....    0.1000

SCF Procedure:
 Maximum # iterations   MaxIter         ....   125
 SCF integral mode      SCFMode         .... Direct
   Integral package                     .... SHARK and LIBINT hybrid scheme
 Reset frequency        DirectResetFreq ....    20
 Integral Threshold     Thresh          ....  1.000e-10 Eh
 Primitive CutOff       TCut            ....  1.000e-11 Eh

Convergence Tolerance:
 Convergence Check Mode ConvCheckMode   .... Total+1el-Energy
 Convergence forced     ConvForced      .... 0
 Energy Change          TolE            ....  1.000e-06 Eh
 1-El. energy change                    ....  1.000e-03 Eh
 Orbital Gradient       TolG            ....  5.000e-05
 Orbital Rotation angle TolX            ....  5.000e-05
 DIIS Error             TolErr          ....  1.000e-05

------------------------------
INITIAL GUESS: MODEL POTENTIAL
------------------------------
Loading Hartree-Fock densities                     ... done
Calculating cut-offs                               ... done
Initializing the effective Hamiltonian             ... done
Setting up the integral package (SHARK)            ... done
Starting the Coulomb interaction                   ... done (   0.6 sec)
Making the grid                                    ... done (   0.4 sec)
Mapping shells                                     ... done
Starting the XC term evaluation                    ... done (   0.5 sec)
  promolecular density results
     # of electrons  =    177.991743880
     EX              =   -167.456378089
     EC              =     -6.115927404
     EX+EC           =   -173.572305494
Transforming the Hamiltonian                       ... done (   0.1 sec)
Diagonalizing the Hamiltonian                      ... done (   0.1 sec)
Back transforming the eigenvectors                 ... done (   0.1 sec)
Now organizing SCF variables                       ... done
                      ------------------
                      INITIAL GUESS DONE (   1.8 sec)
                      ------------------
             **** ENERGY FILE WAS UPDATED (data/single_point_P_M06-2x/300563/300563.en.tmp) ****
Finished Guess after   2.1 sec
Maximum memory used throughout the entire GUESS-calculation: 59.8 MB


           ************************************************************
           *        Program running with 6 parallel MPI-processes     *
           *              working on a common directory               *
           ************************************************************

-------------------------------------------------------------------------------------------
                                      ORCA LEAN-SCF
                              memory conserving SCF solver
-------------------------------------------------------------------------------------------

----------------------------------------D-I-I-S--------------------------------------------
Iteration    Energy (Eh)           Delta-E    RMSDP     MaxDP     DIISErr   Damp  Time(sec)
-------------------------------------------------------------------------------------------
               ***  Starting incremental Fock matrix formation  ***
    1    -1532.0708387761192171     0.00e+00  9.70e-04  4.30e-02  1.41e-01  0.700  17.1
    2    -1532.2353147770068063    -1.64e-01  7.77e-04  3.34e-02  8.04e-02  0.700   9.3
                               ***Turning on AO-DIIS***
    3    -1532.3169358592281242    -8.16e-02  5.55e-04  2.57e-02  4.76e-02  0.700   8.9
    4    -1532.3654690454782212    -4.85e-02  1.32e-03  6.44e-02  3.34e-02  0.000   8.5
    5    -1532.4698963728219496    -1.04e-01  1.00e-04  1.38e-02  3.43e-03  0.000   9.1
                              *** Initializing SOSCF ***
---------------------------------------S-O-S-C-F--------------------------------------
Iteration    Energy (Eh)           Delta-E    RMSDP     MaxDP     MaxGrad    Time(sec)
--------------------------------------------------------------------------------------
    6    -1532.4701510389659234    -2.55e-04  3.51e-05  3.52e-03  1.13e-03     8.2
               *** Restarting incremental Fock matrix formation ***
    7    -1532.4700718156873336     7.92e-05  6.95e-05  3.27e-03  4.94e-04    16.6
    8    -1532.4700805029551702    -8.69e-06  3.15e-05  1.39e-03  2.25e-04    11.8
    9    -1532.4700856930589907    -5.19e-06  2.44e-05  1.21e-03  1.00e-04    11.2
   10    -1532.4700860921338972    -3.99e-07  6.38e-06  2.98e-04  4.05e-05    10.5
                 **** Energy Check signals convergence ****

               *****************************************************
               *                     SUCCESS                       *
               *           SCF CONVERGED AFTER  10 CYCLES          *
               *****************************************************

Recomputing exchange energy using gridx3       ... done (   25.518 sec)
Old exchange energy                            :    -91.612514684 Eh
New exchange energy                            :    -91.612484159 Eh
Exchange energy change after final integration :      0.000030525 Eh
Total energy after final integration           :  -1532.470055567 Eh
             **** ENERGY FILE WAS UPDATED (data/single_point_P_M06-2x/300563/300563.en.tmp) ****

----------------
TOTAL SCF ENERGY
----------------

Total Energy       :      -1532.47005556739919 Eh          -41700.63023 eV

Components:
Nuclear Repulsion  :       2185.11681483300754 Eh           59460.05142 eV
Electronic Energy  :      -3717.58690092514144 Eh         -101160.68248 eV
One Electron Energy:      -6450.82314364142348 Eh         -175535.82181 eV
Two Electron Energy:       2733.23624271628205 Eh           74375.13932 eV

Virial components:
Potential Energy   :      -3058.05847596729291 Eh          -83214.00165 eV
Kinetic Energy     :       1525.58842039989395 Eh           41513.37142 eV
Virial Ratio       :          2.00451080715840

DFT components:
N(Alpha)           :       89.000197243028 electrons
N(Beta)            :       89.000197243028 electrons
N(Total)           :      178.000394486055 electrons
E(XC)              :      -84.846652362039 Eh       

---------------
SCF CONVERGENCE
---------------

  Last Energy change         ...    3.9907e-07  Tolerance :   1.0000e-06
  Last MAX-Density change    ...    2.9814e-04  Tolerance :   1.0000e-05
  Last RMS-Density change    ...    6.3750e-06  Tolerance :   1.0000e-06
  Last DIIS Error            ...    1.1263e-03  Tolerance :   1.0000e-05
  Last Orbital Gradient      ...    4.0514e-05  Tolerance :   5.0000e-05
  Last Orbital Rotation      ...    1.0460e-04  Tolerance :   5.0000e-05


----------------
ORBITAL ENERGIES
----------------

  NO   OCC          E(Eh)            E(eV) 
   0   2.0000     -78.055450     -2123.9968 
   1   2.0000     -25.298478      -688.4066 
   2   2.0000     -25.292292      -688.2382 
   3   2.0000     -25.292202      -688.2358 
   4   2.0000     -25.289014      -688.1490 
   5   2.0000     -25.287808      -688.1163 
   6   2.0000     -10.680625      -290.6346 
   7   2.0000     -10.675022      -290.4821 
   8   2.0000     -10.674790      -290.4758 
   9   2.0000     -10.671489      -290.3860 
  10   2.0000     -10.671319      -290.3814 
  11   2.0000     -10.594656      -288.2952 
  12   2.0000     -10.569111      -287.6001 
  13   2.0000     -10.566273      -287.5229 
  14   2.0000     -10.562108      -287.4096 
  15   2.0000     -10.561938      -287.4049 
  16   2.0000     -10.561031      -287.3803 
  17   2.0000     -10.559554      -287.3401 
  18   2.0000     -10.559139      -287.3288 
  19   2.0000     -10.558596      -287.3140 
  20   2.0000     -10.558241      -287.3044 
  21   2.0000     -10.558157      -287.3020 
  22   2.0000     -10.557324      -287.2794 
  23   2.0000     -10.556516      -287.2574 
  24   2.0000      -6.870911      -186.9670 
  25   2.0000      -4.985469      -135.6615 
  26   2.0000      -4.985132      -135.6523 
  27   2.0000      -4.984856      -135.6448 
  28   2.0000      -1.420923       -38.6653 
  29   2.0000      -1.411893       -38.4196 
  30   2.0000      -1.407272       -38.2938 
  31   2.0000      -1.398177       -38.0463 
  32   2.0000      -1.396059       -37.9887 
  33   2.0000      -1.010172       -27.4882 
  34   2.0000      -0.968647       -26.3582 
  35   2.0000      -0.962214       -26.1832 
  36   2.0000      -0.900539       -24.5049 
  37   2.0000      -0.887995       -24.1636 
  38   2.0000      -0.864282       -23.5183 
  39   2.0000      -0.850734       -23.1496 
  40   2.0000      -0.849206       -23.1081 
  41   2.0000      -0.844039       -22.9675 
  42   2.0000      -0.781855       -21.2754 
  43   2.0000      -0.767659       -20.8891 
  44   2.0000      -0.732442       -19.9308 
  45   2.0000      -0.699932       -19.0461 
  46   2.0000      -0.696423       -18.9506 
  47   2.0000      -0.694858       -18.9080 
  48   2.0000      -0.690900       -18.8003 
  49   2.0000      -0.684909       -18.6373 
  50   2.0000      -0.678034       -18.4503 
  51   2.0000      -0.645020       -17.5519 
  52   2.0000      -0.640148       -17.4193 
  53   2.0000      -0.637305       -17.3419 
  54   2.0000      -0.632839       -17.2204 
  55   2.0000      -0.616742       -16.7824 
  56   2.0000      -0.608381       -16.5549 
  57   2.0000      -0.602288       -16.3891 
  58   2.0000      -0.593866       -16.1599 
  59   2.0000      -0.584825       -15.9139 
  60   2.0000      -0.581164       -15.8143 
  61   2.0000      -0.578547       -15.7431 
  62   2.0000      -0.558972       -15.2104 
  63   2.0000      -0.556610       -15.1461 
  64   2.0000      -0.538220       -14.6457 
  65   2.0000      -0.532598       -14.4927 
  66   2.0000      -0.524642       -14.2762 
  67   2.0000      -0.522971       -14.2308 
  68   2.0000      -0.514885       -14.0107 
  69   2.0000      -0.511941       -13.9306 
  70   2.0000      -0.496436       -13.5087 
  71   2.0000      -0.494041       -13.4435 
  72   2.0000      -0.481969       -13.1150 
  73   2.0000      -0.476333       -12.9617 
  74   2.0000      -0.464640       -12.6435 
  75   2.0000      -0.448649       -12.2083 
  76   2.0000      -0.444826       -12.1043 
  77   2.0000      -0.441833       -12.0229 
  78   2.0000      -0.418213       -11.3801 
  79   2.0000      -0.411693       -11.2027 
  80   2.0000      -0.408247       -11.1090 
  81   2.0000      -0.390640       -10.6298 
  82   2.0000      -0.348406        -9.4806 
  83   2.0000      -0.337728        -9.1901 
  84   2.0000      -0.323392        -8.7999 
  85   2.0000      -0.321033        -8.7357 
  86   2.0000      -0.316644        -8.6163 
  87   2.0000      -0.314944        -8.5701 
  88   2.0000      -0.281162        -7.6508 
  89   0.0000      -0.028249        -0.7687 
  90   0.0000      -0.012133        -0.3302 
  91   0.0000      -0.001061        -0.0289 
  92   0.0000       0.001832         0.0498 
  93   0.0000       0.004134         0.1125 
  94   0.0000       0.016255         0.4423 
  95   0.0000       0.025966         0.7066 
  96   0.0000       0.061971         1.6863 
  97   0.0000       0.071427         1.9436 
  98   0.0000       0.077901         2.1198 
  99   0.0000       0.091167         2.4808 
*Only the first 10 virtual orbitals were printed.

                    ********************************
                    * MULLIKEN POPULATION ANALYSIS *
                    ********************************

-----------------------
MULLIKEN ATOMIC CHARGES
-----------------------
   0 C :   -0.137211
   1 C :   -0.151495
   2 C :   -0.160401
   3 C :   -0.069947
   4 C :   -0.149734
   5 C :   -0.152408
   6 P :    0.195315
   7 C :    0.011155
   8 C :   -0.139384
   9 C :   -0.160851
  10 C :   -0.147147
  11 C :   -0.130217
  12 C :   -0.248707
  13 C :   -0.245308
  14 C :    0.275322
  15 C :    0.145651
  16 C :    0.171455
  17 C :    0.168694
  18 C :    0.157268
  19 F :   -0.170604
  20 F :   -0.166043
  21 F :   -0.160914
  22 F :   -0.165962
  23 F :   -0.167508
  24 H :    0.148521
  25 H :    0.148218
  26 H :    0.157843
  27 H :    0.199391
  28 H :    0.148037
  29 H :    0.168752
  30 H :    0.147499
  31 H :    0.148999
  32 H :    0.149158
  33 H :    0.182563
Sum of atomic charges:   -0.0000000

--------------------------------
MULLIKEN REDUCED ORBITAL CHARGES
--------------------------------
  0 C s       :     3.227373  s :     3.227373
      pz      :     0.932760  p :     2.842272
      px      :     0.973796
      py      :     0.935716
      dz2     :     0.013426  d :     0.061274
      dxz     :     0.016506
      dyz     :     0.010564
      dx2y2   :     0.013544
      dxy     :     0.007233
      f0      :     0.001049  f :     0.006293
      f+1     :     0.001092
      f-1     :     0.000888
      f+2     :     0.000760
      f-2     :     0.000885
      f+3     :     0.000947
      f-3     :     0.000672

  1 C s       :     3.230788  s :     3.230788
      pz      :     0.903838  p :     2.853880
      px      :     0.968306
      py      :     0.981735
      dz2     :     0.014745  d :     0.060502
      dxz     :     0.012300
      dyz     :     0.015535
      dx2y2   :     0.006936
      dxy     :     0.010986
      f0      :     0.001094  f :     0.006326
      f+1     :     0.001339
      f-1     :     0.000750
      f+2     :     0.000698
      f-2     :     0.001128
      f+3     :     0.000556
      f-3     :     0.000759

  2 C s       :     3.202682  s :     3.202682
      pz      :     1.019420  p :     2.886711
      px      :     0.908533
      py      :     0.958757
      dz2     :     0.014693  d :     0.064406
      dxz     :     0.010523
      dyz     :     0.009227
      dx2y2   :     0.016421
      dxy     :     0.013542
      f0      :     0.000636  f :     0.006602
      f+1     :     0.001157
      f-1     :     0.000741
      f+2     :     0.000724
      f-2     :     0.001125
      f+3     :     0.001262
      f-3     :     0.000957

  3 C s       :     3.238961  s :     3.238961
      pz      :     0.853782  p :     2.748309
      px      :     0.916549
      py      :     0.977978
      dz2     :     0.016348  d :     0.075718
      dxz     :     0.021635
      dyz     :     0.011688
      dx2y2   :     0.016176
      dxy     :     0.009871
      f0      :     0.001149  f :     0.006959
      f+1     :     0.001418
      f-1     :     0.000967
      f+2     :     0.000663
      f-2     :     0.000981
      f+3     :     0.001017
      f-3     :     0.000765

  4 C s       :     3.193948  s :     3.193948
      pz      :     0.871118  p :     2.882443
      px      :     1.029045
      py      :     0.982280
      dz2     :     0.017077  d :     0.066833
      dxz     :     0.015183
      dyz     :     0.014986
      dx2y2   :     0.006859
      dxy     :     0.012727
      f0      :     0.001108  f :     0.006510
      f+1     :     0.001464
      f-1     :     0.000763
      f+2     :     0.000723
      f-2     :     0.001113
      f+3     :     0.000544
      f-3     :     0.000795

  5 C s       :     3.232355  s :     3.232355
      pz      :     0.998049  p :     2.853042
      px      :     0.901869
      py      :     0.953124
      dz2     :     0.011773  d :     0.060725
      dxz     :     0.012471
      dyz     :     0.009259
      dx2y2   :     0.015900
      dxy     :     0.011322
      f0      :     0.000554  f :     0.006286
      f+1     :     0.001108
      f-1     :     0.000726
      f+2     :     0.000721
      f-2     :     0.001112
      f+3     :     0.001183
      f-3     :     0.000883

  6 P s       :     5.765678  s :     5.765678
      pz      :     3.286419  p :     8.756036
      px      :     2.760486
      py      :     2.709131
      dz2     :     0.034852  d :     0.257468
      dxz     :     0.053877
      dyz     :     0.039711
      dx2y2   :     0.050722
      dxy     :     0.078307
      f0      :     0.002422  f :     0.025503
      f+1     :     0.003586
      f-1     :     0.003109
      f+2     :     0.003422
      f-2     :     0.004757
      f+3     :     0.003756
      f-3     :     0.004451

  7 C s       :     3.241969  s :     3.241969
      pz      :     0.936557  p :     2.663098
      px      :     0.838274
      py      :     0.888266
      dz2     :     0.007455  d :     0.076847
      dxz     :     0.019091
      dyz     :     0.014629
      dx2y2   :     0.015862
      dxy     :     0.019811
      f0      :     0.001076  f :     0.006930
      f+1     :     0.000845
      f-1     :     0.000821
      f+2     :     0.000949
      f-2     :     0.000744
      f+3     :     0.000791
      f-3     :     0.001704

  8 C s       :     3.189026  s :     3.189026
      pz      :     0.967858  p :     2.879864
      px      :     0.876408
      py      :     1.035598
      dz2     :     0.009393  d :     0.063903
      dxz     :     0.015917
      dyz     :     0.007206
      dx2y2   :     0.015056
      dxy     :     0.016332
      f0      :     0.000847  f :     0.006592
      f+1     :     0.000869
      f-1     :     0.000959
      f+2     :     0.000925
      f-2     :     0.000576
      f+3     :     0.000974
      f-3     :     0.001442

  9 C s       :     3.236742  s :     3.236742
      pz      :     0.959666  p :     2.856279
      px      :     1.006978
      py      :     0.889634
      dz2     :     0.009232  d :     0.061514
      dxz     :     0.006197
      dyz     :     0.016324
      dx2y2   :     0.015578
      dxy     :     0.014182
      f0      :     0.000807  f :     0.006317
      f+1     :     0.000732
      f-1     :     0.001070
      f+2     :     0.000579
      f-2     :     0.000869
      f+3     :     0.000850
      f-3     :     0.001410

 10 C s       :     3.227966  s :     3.227966
      pz      :     0.968612  p :     2.851876
      px      :     0.918582
      py      :     0.964683
      dz2     :     0.004643  d :     0.061013
      dxz     :     0.015735
      dyz     :     0.010548
      dx2y2   :     0.015600
      dxy     :     0.014487
      f0      :     0.001038  f :     0.006293
      f+1     :     0.000723
      f-1     :     0.000646
      f+2     :     0.000839
      f-2     :     0.000686
      f+3     :     0.000850
      f-3     :     0.001511

 11 C s       :     3.218029  s :     3.218029
      pz      :     0.964053  p :     2.844859
      px      :     0.914719
      py      :     0.966086
      dz2     :     0.009413  d :     0.060998
      dxz     :     0.015014
      dyz     :     0.006932
      dx2y2   :     0.014240
      dxy     :     0.015399
      f0      :     0.000793  f :     0.006331
      f+1     :     0.000887
      f-1     :     0.000946
      f+2     :     0.000903
      f-2     :     0.000538
      f+3     :     0.000936
      f-3     :     0.001328

 12 C s       :     3.252689  s :     3.252689
      pz      :     0.991204  p :     2.924370
      px      :     1.038273
      py      :     0.894893
      dz2     :     0.009258  d :     0.065000
      dxz     :     0.006565
      dyz     :     0.017093
      dx2y2   :     0.019074
      dxy     :     0.013010
      f0      :     0.000858  f :     0.006648
      f+1     :     0.000723
      f-1     :     0.001102
      f+2     :     0.000691
      f-2     :     0.000862
      f+3     :     0.000884
      f-3     :     0.001528

 13 C s       :     3.251621  s :     3.251621
      pz      :     0.907882  p :     2.917454
      px      :     1.024701
      py      :     0.984871
      dz2     :     0.009818  d :     0.069209
      dxz     :     0.020131
      dyz     :     0.017807
      dx2y2   :     0.012230
      dxy     :     0.009222
      f0      :     0.001480  f :     0.007024
      f+1     :     0.001055
      f-1     :     0.001137
      f+2     :     0.000831
      f-2     :     0.000906
      f+3     :     0.000714
      f-3     :     0.000900

 14 C s       :     3.075498  s :     3.075498
      pz      :     0.666263  p :     2.435577
      px      :     0.926403
      py      :     0.842911
      dz2     :     0.050933  d :     0.196251
      dxz     :     0.043991
      dyz     :     0.053104
      dx2y2   :     0.026883
      dxy     :     0.021340
      f0      :     0.004451  f :     0.017352
      f+1     :     0.002900
      f-1     :     0.002897
      f+2     :     0.002068
      f-2     :     0.002289
      f+3     :     0.001116
      f-3     :     0.001632

 15 C s       :     3.097681  s :     3.097681
      pz      :     0.719095  p :     2.558110
      px      :     0.999106
      py      :     0.839909
      dz2     :     0.057618  d :     0.181522
      dxz     :     0.038084
      dyz     :     0.030929
      dx2y2   :     0.029339
      dxy     :     0.025552
      f0      :     0.003952  f :     0.017035
      f+1     :     0.002042
      f-1     :     0.002104
      f+2     :     0.002685
      f-2     :     0.003098
      f+3     :     0.001277
      f-3     :     0.001876

 16 C s       :     3.094942  s :     3.094942
      pz      :     0.905125  p :     2.532025
      px      :     0.900747
      py      :     0.726152
      dz2     :     0.019045  d :     0.184329
      dxz     :     0.037971
      dyz     :     0.059490
      dx2y2   :     0.043799
      dxy     :     0.024024
      f0      :     0.003357  f :     0.017250
      f+1     :     0.001533
      f-1     :     0.001704
      f+2     :     0.001513
      f-2     :     0.002824
      f+3     :     0.001957
      f-3     :     0.004362

 17 C s       :     3.090292  s :     3.090292
      pz      :     0.660888  p :     2.541988
      px      :     0.972141
      py      :     0.908959
      dz2     :     0.043908  d :     0.181977
      dxz     :     0.044022
      dyz     :     0.052602
      dx2y2   :     0.022760
      dxy     :     0.018686
      f0      :     0.004300  f :     0.017048
      f+1     :     0.002650
      f-1     :     0.002505
      f+2     :     0.002265
      f-2     :     0.002606
      f+3     :     0.001067
      f-3     :     0.001654

 18 C s       :     3.114025  s :     3.114025
      pz      :     0.737237  p :     2.517843
      px      :     0.930335
      py      :     0.850271
      dz2     :     0.055649  d :     0.193427
      dxz     :     0.039480
      dyz     :     0.039035
      dx2y2   :     0.031034
      dxy     :     0.028230
      f0      :     0.004481  f :     0.017436
      f+1     :     0.002214
      f-1     :     0.002041
      f+2     :     0.002612
      f-2     :     0.003109
      f+3     :     0.001187
      f-3     :     0.001790

 19 F s       :     3.930866  s :     3.930866
      pz      :     1.591671  p :     5.222971
      px      :     1.867971
      py      :     1.763329
      dz2     :     0.004345  d :     0.016016
      dxz     :     0.003132
      dyz     :     0.005619
      dx2y2   :     0.001500
      dxy     :     0.001419
      f0      :     0.000115  f :     0.000751
      f+1     :     0.000092
      f-1     :     0.000266
      f+2     :     0.000123
      f-2     :     0.000118
      f+3     :     0.000019
      f-3     :     0.000019

 20 F s       :     3.922569  s :     3.922569
      pz      :     1.507200  p :     5.226850
      px      :     1.856086
      py      :     1.863564
      dz2     :     0.006166  d :     0.015874
      dxz     :     0.004229
      dyz     :     0.004163
      dx2y2   :     0.000675
      dxy     :     0.000641
      f0      :     0.000216  f :     0.000751
      f+1     :     0.000191
      f-1     :     0.000202
      f+2     :     0.000058
      f-2     :     0.000074
      f+3     :     0.000004
      f-3     :     0.000005

 21 F s       :     3.922596  s :     3.922596
      pz      :     1.908453  p :     5.221484
      px      :     1.759007
      py      :     1.554024
      dz2     :     0.002232  d :     0.016071
      dxz     :     0.000991
      dyz     :     0.002559
      dx2y2   :     0.004447
      dxy     :     0.005843
      f0      :     0.000066  f :     0.000763
      f+1     :     0.000050
      f-1     :     0.000119
      f+2     :     0.000029
      f-2     :     0.000089
      f+3     :     0.000256
      f-3     :     0.000153

 22 F s       :     3.922642  s :     3.922642
      pz      :     1.602943  p :     5.226673
      px      :     1.864736
      py      :     1.758994
      dz2     :     0.004007  d :     0.015894
      dxz     :     0.003173
      dyz     :     0.005679
      dx2y2   :     0.001544
      dxy     :     0.001492
      f0      :     0.000104  f :     0.000753
      f+1     :     0.000092
      f-1     :     0.000252
      f+2     :     0.000126
      f-2     :     0.000134
      f+3     :     0.000024
      f-3     :     0.000022

 23 F s       :     3.924770  s :     3.924770
      pz      :     1.496935  p :     5.226056
      px      :     1.858705
      py      :     1.870416
      dz2     :     0.006553  d :     0.015935
      dxz     :     0.004168
      dyz     :     0.004062
      dx2y2   :     0.000572
      dxy     :     0.000580
      f0      :     0.000244  f :     0.000747
      f+1     :     0.000189
      f-1     :     0.000197
      f+2     :     0.000050
      f-2     :     0.000061
      f+3     :     0.000003
      f-3     :     0.000003

 24 H s       :     0.831830  s :     0.831830
      pz      :     0.006533  p :     0.019649
      px      :     0.009323
      py      :     0.003793

 25 H s       :     0.832061  s :     0.832061
      pz      :     0.004003  p :     0.019721
      px      :     0.008869
      py      :     0.006850

 26 H s       :     0.822294  s :     0.822294
      pz      :     0.012136  p :     0.019862
      px      :     0.003025
      py      :     0.004701

 27 H s       :     0.780243  s :     0.780243
      pz      :     0.003956  p :     0.020366
      px      :     0.009622
      py      :     0.006788

 28 H s       :     0.832273  s :     0.832273
      pz      :     0.011881  p :     0.019691
      px      :     0.002912
      py      :     0.004898

 29 H s       :     0.811030  s :     0.811030
      pz      :     0.004059  p :     0.020218
      px      :     0.004976
      py      :     0.011183

 30 H s       :     0.832796  s :     0.832796
      pz      :     0.003986  p :     0.019705
      px      :     0.012822
      py      :     0.002898

 31 H s       :     0.831310  s :     0.831310
      pz      :     0.005140  p :     0.019691
      px      :     0.005615
      py      :     0.008936

 32 H s       :     0.831120  s :     0.831120
      pz      :     0.003973  p :     0.019722
      px      :     0.004928
      py      :     0.010821

 33 H s       :     0.797766  s :     0.797766
      pz      :     0.003974  p :     0.019671
      px      :     0.012774
      py      :     0.002923



                     *******************************
                     * LOEWDIN POPULATION ANALYSIS *
                     *******************************

----------------------
LOEWDIN ATOMIC CHARGES
----------------------
   0 C :   -0.135892
   1 C :   -0.141645
   2 C :   -0.141629
   3 C :   -0.276687
   4 C :   -0.134002
   5 C :   -0.138914
   6 P :    0.730558
   7 C :   -0.279155
   8 C :   -0.137914
   9 C :   -0.138332
  10 C :   -0.138946
  11 C :   -0.141013
  12 C :   -0.142154
  13 C :   -0.237708
  14 C :   -0.242240
  15 C :   -0.225276
  16 C :   -0.212706
  17 C :   -0.224305
  18 C :   -0.240225
  19 F :    0.229011
  20 F :    0.213384
  21 F :    0.222763
  22 F :    0.213361
  23 F :    0.211286
  24 H :    0.148297
  25 H :    0.148864
  26 H :    0.150511
  27 H :    0.156957
  28 H :    0.149162
  29 H :    0.153142
  30 H :    0.149356
  31 H :    0.148355
  32 H :    0.149396
  33 H :    0.154339

-------------------------------
LOEWDIN REDUCED ORBITAL CHARGES
-------------------------------
  0 C s       :     2.779144  s :     2.779144
      pz      :     1.020037  p :     2.941914
      px      :     0.981981
      py      :     0.939896
      dz2     :     0.078918  d :     0.374262
      dxz     :     0.120297
      dyz     :     0.073034
      dx2y2   :     0.059659
      dxy     :     0.042355
      f0      :     0.007216  f :     0.040571
      f+1     :     0.008793
      f-1     :     0.006555
      f+2     :     0.003277
      f-2     :     0.005691
      f+3     :     0.004584
      f-3     :     0.004456

  1 C s       :     2.777979  s :     2.777979
      pz      :     1.039097  p :     2.948879
      px      :     0.985125
      py      :     0.924657
      dz2     :     0.105993  d :     0.374190
      dxz     :     0.108900
      dyz     :     0.070413
      dx2y2   :     0.029195
      dxy     :     0.059689
      f0      :     0.006733  f :     0.040598
      f+1     :     0.011019
      f-1     :     0.005216
      f+2     :     0.005389
      f-2     :     0.005799
      f+3     :     0.002438
      f-3     :     0.004004

  2 C s       :     2.777044  s :     2.777044
      pz      :     0.987891  p :     2.940042
      px      :     1.020953
      py      :     0.931198
      dz2     :     0.097414  d :     0.383779
      dxz     :     0.079969
      dyz     :     0.052078
      dx2y2   :     0.080361
      dxy     :     0.073957
      f0      :     0.003882  f :     0.040764
      f+1     :     0.009708
      f-1     :     0.003703
      f+2     :     0.005631
      f-2     :     0.007072
      f+3     :     0.004526
      f-3     :     0.006241

  3 C s       :     2.778800  s :     2.778800
      pz      :     1.057666  p :     2.999557
      px      :     0.998000
      py      :     0.943892
      dz2     :     0.108610  d :     0.453627
      dxz     :     0.141559
      dyz     :     0.081084
      dx2y2   :     0.067446
      dxy     :     0.054929
      f0      :     0.007420  f :     0.044702
      f+1     :     0.011693
      f-1     :     0.006710
      f+2     :     0.003206
      f-2     :     0.006302
      f+3     :     0.004693
      f-3     :     0.004677

  4 C s       :     2.776962  s :     2.776962
      pz      :     1.024983  p :     2.934786
      px      :     0.992940
      py      :     0.916863
      dz2     :     0.107007  d :     0.381459
      dxz     :     0.112294
      dyz     :     0.070006
      dx2y2   :     0.030620
      dxy     :     0.061532
      f0      :     0.006793  f :     0.040795
      f+1     :     0.011152
      f-1     :     0.005227
      f+2     :     0.005298
      f-2     :     0.005779
      f+3     :     0.002488
      f-3     :     0.004058

  5 C s       :     2.778024  s :     2.778024
      pz      :     0.981850  p :     2.945860
      px      :     1.026755
      py      :     0.937255
      dz2     :     0.093236  d :     0.374509
      dxz     :     0.077910
      dyz     :     0.052629
      dx2y2   :     0.077162
      dxy     :     0.073572
      f0      :     0.003735  f :     0.040522
      f+1     :     0.009554
      f-1     :     0.003726
      f+2     :     0.005599
      f-2     :     0.007061
      f+3     :     0.004526
      f-3     :     0.006321

  6 P s       :     4.932129  s :     4.932129
      pz      :     3.252575  p :     8.749716
      px      :     2.774360
      py      :     2.722781
      dz2     :     0.076341  d :     0.492035
      dxz     :     0.098964
      dyz     :     0.071612
      dx2y2   :     0.099027
      dxy     :     0.146090
      f0      :     0.008215  f :     0.095562
      f+1     :     0.012935
      f-1     :     0.009736
      f+2     :     0.012536
      f-2     :     0.019180
      f+3     :     0.017039
      f-3     :     0.015920

  7 C s       :     2.778717  s :     2.778717
      pz      :     0.914400  p :     2.998897
      px      :     1.059009
      py      :     1.025488
      dz2     :     0.041872  d :     0.456771
      dxz     :     0.083273
      dyz     :     0.068178
      dx2y2   :     0.115818
      dxy     :     0.147631
      f0      :     0.003376  f :     0.044770
      f+1     :     0.004731
      f-1     :     0.003494
      f+2     :     0.007044
      f-2     :     0.004536
      f+3     :     0.006970
      f-3     :     0.014617

  8 C s       :     2.774544  s :     2.774544
      pz      :     0.909107  p :     2.940909
      px      :     1.034757
      py      :     0.997045
      dz2     :     0.037893  d :     0.381667
      dxz     :     0.070380
      dyz     :     0.030346
      dx2y2   :     0.111043
      dxy     :     0.132004
      f0      :     0.003318  f :     0.040794
      f+1     :     0.003933
      f-1     :     0.003660
      f+2     :     0.006473
      f-2     :     0.004239
      f+3     :     0.007113
      f-3     :     0.012056

  9 C s       :     2.777874  s :     2.777874
      pz      :     0.906667  p :     2.943853
      px      :     0.988366
      py      :     1.048820
      dz2     :     0.038346  d :     0.375939
      dxz     :     0.025100
      dyz     :     0.075008
      dx2y2   :     0.144752
      dxy     :     0.092733
      f0      :     0.003360  f :     0.040667
      f+1     :     0.003354
      f-1     :     0.004223
      f+2     :     0.004207
      f-2     :     0.006529
      f+3     :     0.006765
      f-3     :     0.012229

 10 C s       :     2.778468  s :     2.778468
      pz      :     0.899608  p :     2.946561
      px      :     1.039242
      py      :     1.007711
      dz2     :     0.024054  d :     0.373311
      dxz     :     0.063263
      dyz     :     0.045760
      dx2y2   :     0.102580
      dxy     :     0.137654
      f0      :     0.003531  f :     0.040606
      f+1     :     0.004308
      f-1     :     0.002823
      f+2     :     0.006704
      f-2     :     0.003339
      f+3     :     0.006825
      f-3     :     0.013075

 11 C s       :     2.777905  s :     2.777905
      pz      :     0.909127  p :     2.945778
      px      :     1.043951
      py      :     0.992700
      dz2     :     0.038552  d :     0.376611
      dxz     :     0.071030
      dyz     :     0.030170
      dx2y2   :     0.109183
      dxy     :     0.127676
      f0      :     0.003374  f :     0.040720
      f+1     :     0.003889
      f-1     :     0.003708
      f+2     :     0.006495
      f-2     :     0.004359
      f+3     :     0.007073
      f-3     :     0.011823

 12 C s       :     2.776233  s :     2.776233
      pz      :     0.912466  p :     2.943440
      px      :     0.990145
      py      :     1.040829
      dz2     :     0.037796  d :     0.381770
      dxz     :     0.026529
      dyz     :     0.075103
      dx2y2   :     0.149367
      dxy     :     0.092975
      f0      :     0.003358  f :     0.040710
      f+1     :     0.003252
      f-1     :     0.004293
      f+2     :     0.004345
      f-2     :     0.006433
      f+3     :     0.006704
      f-3     :     0.012325

 13 C s       :     2.777031  s :     2.777031
      pz      :     1.029839  p :     3.004720
      px      :     0.959222
      py      :     1.015660
      dz2     :     0.095995  d :     0.412667
      dxz     :     0.099602
      dyz     :     0.124972
      dx2y2   :     0.040069
      dxy     :     0.052029
      f0      :     0.009793  f :     0.043289
      f+1     :     0.005180
      f-1     :     0.007980
      f+2     :     0.007838
      f-2     :     0.007813
      f+3     :     0.002471
      f-3     :     0.002213

 14 C s       :     2.729098  s :     2.729098
      pz      :     0.809485  p :     2.716738
      px      :     0.915806
      py      :     0.991447
      dz2     :     0.201976  d :     0.686067
      dxz     :     0.142918
      dyz     :     0.173932
      dx2y2   :     0.088811
      dxy     :     0.078430
      f0      :     0.030478  f :     0.110337
      f+1     :     0.019272
      f-1     :     0.021919
      f+2     :     0.013005
      f-2     :     0.014860
      f+3     :     0.005479
      f-3     :     0.005323

 15 C s       :     2.724219  s :     2.724219
      pz      :     0.859852  p :     2.737496
      px      :     0.946696
      py      :     0.930949
      dz2     :     0.178214  d :     0.655218
      dxz     :     0.128536
      dyz     :     0.171722
      dx2y2   :     0.092184
      dxy     :     0.084562
      f0      :     0.023394  f :     0.108343
      f+1     :     0.013054
      f-1     :     0.021185
      f+2     :     0.017749
      f-2     :     0.019604
      f+3     :     0.006724
      f-3     :     0.006633

 16 C s       :     2.725221  s :     2.725221
      pz      :     1.041968  p :     2.713614
      px      :     0.866603
      py      :     0.805044
      dz2     :     0.123755  d :     0.664042
      dxz     :     0.119794
      dyz     :     0.176238
      dx2y2   :     0.125185
      dxy     :     0.119071
      f0      :     0.020469  f :     0.109829
      f+1     :     0.009728
      f-1     :     0.015226
      f+2     :     0.011130
      f-2     :     0.017087
      f+3     :     0.016786
      f-3     :     0.019402

 17 C s       :     2.723965  s :     2.723965
      pz      :     0.804171  p :     2.735945
      px      :     0.940772
      py      :     0.991002
      dz2     :     0.181886  d :     0.656080
      dxz     :     0.142079
      dyz     :     0.178917
      dx2y2   :     0.080736
      dxy     :     0.072462
      f0      :     0.028345  f :     0.108315
      f+1     :     0.018428
      f-1     :     0.020721
      f+2     :     0.014218
      f-2     :     0.015891
      f+3     :     0.005503
      f-3     :     0.005209

 18 C s       :     2.727935  s :     2.727935
      pz      :     0.868399  p :     2.714606
      px      :     0.919764
      py      :     0.926443
      dz2     :     0.184048  d :     0.687012
      dxz     :     0.131659
      dyz     :     0.187642
      dx2y2   :     0.096149
      dxy     :     0.087515
      f0      :     0.025983  f :     0.110671
      f+1     :     0.013419
      f-1     :     0.021532
      f+2     :     0.017254
      f-2     :     0.019710
      f+3     :     0.006298
      f-3     :     0.006474

 19 F s       :     3.582774  s :     3.582774
      pz      :     1.624853  p :     5.154808
      px      :     1.798221
      py      :     1.731734
      dz2     :     0.008790  d :     0.031885
      dxz     :     0.006542
      dyz     :     0.010488
      dx2y2   :     0.003106
      dxy     :     0.002958
      f0      :     0.000299  f :     0.001523
      f+1     :     0.000192
      f-1     :     0.000429
      f+2     :     0.000256
      f-2     :     0.000258
      f+3     :     0.000044
      f-3     :     0.000046

 20 F s       :     3.587762  s :     3.587762
      pz      :     1.566512  p :     5.165247
      px      :     1.798644
      py      :     1.800092
      dz2     :     0.011703  d :     0.032071
      dxz     :     0.008906
      dyz     :     0.008550
      dx2y2   :     0.001551
      dxy     :     0.001361
      f0      :     0.000443  f :     0.001536
      f+1     :     0.000374
      f-1     :     0.000380
      f+2     :     0.000160
      f-2     :     0.000158
      f+3     :     0.000010
      f-3     :     0.000012

 21 F s       :     3.585279  s :     3.585279
      pz      :     1.826030  p :     5.158204
      px      :     1.733463
      py      :     1.598711
      dz2     :     0.004078  d :     0.032200
      dxz     :     0.002191
      dyz     :     0.005695
      dx2y2   :     0.009368
      dxy     :     0.010869
      f0      :     0.000162  f :     0.001553
      f+1     :     0.000090
      f-1     :     0.000200
      f+2     :     0.000071
      f-2     :     0.000216
      f+3     :     0.000413
      f-3     :     0.000402

 22 F s       :     3.587588  s :     3.587588
      pz      :     1.628511  p :     5.165375
      px      :     1.804358
      py      :     1.732506
      dz2     :     0.008213  d :     0.032137
      dxz     :     0.006822
      dyz     :     0.010548
      dx2y2   :     0.003381
      dxy     :     0.003173
      f0      :     0.000267  f :     0.001539
      f+1     :     0.000194
      f-1     :     0.000415
      f+2     :     0.000278
      f-2     :     0.000279
      f+3     :     0.000050
      f-3     :     0.000057

 23 F s       :     3.587499  s :     3.587499
      pz      :     1.563236  p :     5.167914
      px      :     1.799607
      py      :     1.805071
      dz2     :     0.012326  d :     0.031788
      dxz     :     0.008625
      dyz     :     0.008407
      dx2y2   :     0.001203
      dxy     :     0.001227
      f0      :     0.000479  f :     0.001513
      f+1     :     0.000371
      f-1     :     0.000380
      f+2     :     0.000129
      f-2     :     0.000138
      f+3     :     0.000008
      f-3     :     0.000009

 24 H s       :     0.795857  s :     0.795857
      pz      :     0.018685  p :     0.055846
      px      :     0.025073
      py      :     0.012088

 25 H s       :     0.795234  s :     0.795234
      pz      :     0.012868  p :     0.055902
      px      :     0.023954
      py      :     0.019079

 26 H s       :     0.793247  s :     0.793247
      pz      :     0.031633  p :     0.056242
      px      :     0.010261
      py      :     0.014347

 27 H s       :     0.784936  s :     0.784936
      pz      :     0.012708  p :     0.058106
      px      :     0.026000
      py      :     0.019399

 28 H s       :     0.795000  s :     0.795000
      pz      :     0.030931  p :     0.055838
      px      :     0.010295
      py      :     0.014612

 29 H s       :     0.789169  s :     0.789169
      pz      :     0.013067  p :     0.057689
      px      :     0.015000
      py      :     0.029621

 30 H s       :     0.794804  s :     0.794804
      pz      :     0.012449  p :     0.055840
      px      :     0.033066
      py      :     0.010325

 31 H s       :     0.795662  s :     0.795662
      pz      :     0.015071  p :     0.055983
      px      :     0.016656
      py      :     0.024255

 32 H s       :     0.794758  s :     0.794758
      pz      :     0.012415  p :     0.055846
      px      :     0.014992
      py      :     0.028439

 33 H s       :     0.789208  s :     0.789208
      pz      :     0.012687  p :     0.056453
      px      :     0.033522
      py      :     0.010244



                      *****************************
                      * MAYER POPULATION ANALYSIS *
                      *****************************

  NA   - Mulliken gross atomic population
  ZA   - Total nuclear charge
  QA   - Mulliken gross atomic charge
  VA   - Mayer's total valence
  BVA  - Mayer's bonded valence
  FA   - Mayer's free valence

  ATOM       NA         ZA         QA         VA         BVA        FA
  0 C      6.1372     6.0000    -0.1372     3.9336     3.9336    -0.0000
  1 C      6.1515     6.0000    -0.1515     3.9656     3.9656    -0.0000
  2 C      6.1604     6.0000    -0.1604     3.9681     3.9681     0.0000
  3 C      6.0699     6.0000    -0.0699     3.7993     3.7993    -0.0000
  4 C      6.1497     6.0000    -0.1497     3.8559     3.8559    -0.0000
  5 C      6.1524     6.0000    -0.1524     3.9919     3.9919    -0.0000
  6 P     14.8047    15.0000     0.1953     3.0380     3.0380    -0.0000
  7 C      5.9888     6.0000     0.0112     3.7072     3.7072    -0.0000
  8 C      6.1394     6.0000    -0.1394     3.8980     3.8980    -0.0000
  9 C      6.1609     6.0000    -0.1609     3.9942     3.9942    -0.0000
 10 C      6.1471     6.0000    -0.1471     3.9492     3.9492    -0.0000
 11 C      6.1302     6.0000    -0.1302     3.9562     3.9562    -0.0000
 12 C      6.2487     6.0000    -0.2487     3.9399     3.9399    -0.0000
 13 C      6.2453     6.0000    -0.2453     3.6905     3.6905    -0.0000
 14 C      5.7247     6.0000     0.2753     3.8142     3.8142     0.0000
 15 C      5.8543     6.0000     0.1457     4.0038     4.0038    -0.0000
 16 C      5.8285     6.0000     0.1715     3.9396     3.9396    -0.0000
 17 C      5.8313     6.0000     0.1687     4.0153     4.0153    -0.0000
 18 C      5.8427     6.0000     0.1573     3.8620     3.8620    -0.0000
 19 F      9.1706     9.0000    -0.1706     1.0877     1.0877    -0.0000
 20 F      9.1660     9.0000    -0.1660     1.1080     1.1080    -0.0000
 21 F      9.1609     9.0000    -0.1609     1.1138     1.1138    -0.0000
 22 F      9.1660     9.0000    -0.1660     1.1044     1.1044    -0.0000
 23 F      9.1675     9.0000    -0.1675     1.1031     1.1031    -0.0000
 24 H      0.8515     1.0000     0.1485     0.9634     0.9634    -0.0000
 25 H      0.8518     1.0000     0.1482     0.9649     0.9649     0.0000
 26 H      0.8422     1.0000     0.1578     0.9669     0.9669    -0.0000
 27 H      0.8006     1.0000     0.1994     0.9425     0.9425    -0.0000
 28 H      0.8520     1.0000     0.1480     0.9655     0.9655    -0.0000
 29 H      0.8312     1.0000     0.1688     0.9549     0.9549    -0.0000
 30 H      0.8525     1.0000     0.1475     0.9659     0.9659    -0.0000
 31 H      0.8510     1.0000     0.1490     0.9635     0.9635    -0.0000
 32 H      0.8508     1.0000     0.1492     0.9640     0.9640    -0.0000
 33 H      0.8174     1.0000     0.1826     0.9536     0.9536    -0.0000

  Mayer bond orders larger than 0.100000
B(  0-C ,  1-C ) :   1.4380 B(  0-C ,  5-C ) :   1.4372 B(  0-C , 24-H ) :   0.9455 
B(  1-C ,  2-C ) :   1.4659 B(  1-C , 25-H ) :   0.9461 B(  2-C ,  3-C ) :   1.4169 
B(  2-C , 26-H ) :   0.9273 B(  3-C ,  4-C ) :   1.3278 B(  3-C ,  6-P ) :   0.9196 
B(  4-C ,  5-C ) :   1.4756 B(  4-C , 27-H ) :   0.9208 B(  5-C , 28-H ) :   0.9422 
B(  6-P ,  7-C ) :   0.9416 B(  6-P , 13-C ) :   0.9794 B(  7-C ,  8-C ) :   1.3591 
B(  7-C , 12-C ) :   1.3375 B(  8-C ,  9-C ) :   1.4742 B(  8-C , 29-H ) :   0.9208 
B(  9-C , 10-C ) :   1.4471 B(  9-C , 30-H ) :   0.9432 B( 10-C , 11-C ) :   1.4332 
B( 10-C , 31-H ) :   0.9446 B( 11-C , 12-C ) :   1.4728 B( 11-C , 32-H ) :   0.9461 
B( 12-C , 33-H ) :   0.9340 B( 13-C , 14-C ) :   1.3039 B( 13-C , 18-C ) :   1.2736 
B( 14-C , 15-C ) :   1.4195 B( 14-C , 23-F ) :   1.0398 B( 15-C , 16-C ) :   1.3945 
B( 15-C , 22-F ) :   1.0481 B( 16-C , 17-C ) :   1.3854 B( 16-C , 21-F ) :   1.0395 
B( 17-C , 18-C ) :   1.4261 B( 17-C , 20-F ) :   1.0644 B( 18-C , 19-F ) :   1.0181 


-------
TIMINGS
-------

Total SCF time: 0 days 0 hours 2 min 17 sec 

Total time                  ....     137.618 sec
Sum of individual times     ....     137.704 sec  (100.1%)

SCF preparation             ....       0.293 sec  (  0.2%)
Fock matrix formation       ....     132.623 sec  ( 96.4%)
  Startup                   ....       0.152 sec  (  0.1% of F)
  Split-RI-J                ....      10.270 sec  (  7.7% of F)
  Chain of spheres X        ....      95.834 sec  ( 72.3% of F)
  XC integration            ....      25.985 sec  ( 19.6% of F)
    Basis function eval.    ....       3.695 sec  ( 14.2% of XC)
    Density eval.           ....      10.584 sec  ( 40.7% of XC)
    XC-Functional eval.     ....       0.406 sec  (  1.6% of XC)
    XC-Potential eval.      ....       9.533 sec  ( 36.7% of XC)
Diagonalization             ....       0.000 sec  (  0.0%)
Density matrix formation    ....       0.405 sec  (  0.3%)
Total Energy calculation    ....       0.141 sec  (  0.1%)
Population analysis         ....       0.247 sec  (  0.2%)
Orbital Transformation      ....       0.566 sec  (  0.4%)
Orbital Orthonormalization  ....       0.000 sec  (  0.0%)
DIIS solution               ....       2.371 sec  (  1.7%)
SOSCF solution              ....       1.058 sec  (  0.8%)
Finished LeanSCF after 137.7 sec

Maximum memory used throughout the entire LEANSCF-calculation: 113.0 MB


-------------------------------------------------------------------------------
                          DFT DISPERSION CORRECTION                            
                                                                               
                              DFTD3 V3.1  Rev 1                                
                              USING zero damping                               
-------------------------------------------------------------------------------
The M062X functional is recognized
Active option DFTDOPT                   ...         3   

molecular C6(AA) [au] = 17541.129398 


            DFT-D V3
 parameters
 s6 scaling factor         :     1.0000 
 rs6 scaling factor        :     1.6190 
 s8 scaling factor         :     0.0000 
 rs8 scaling factor        :     1.0000 
 Damping factor alpha6     :    14.0000 
 Damping factor alpha8     :    16.0000 
 ad hoc parameters k1-k3   :    16.0000     1.3333    -4.0000 

 Edisp/kcal,au: -1.406773843927  -0.002241836581 
 E6   /kcal   :  -1.406773844 
 E8   /kcal   :  -0.000000000 
 % E8         :   0.000000000 

-------------------------   ----------------
Dispersion correction           -0.002241837
-------------------------   ----------------


-------------------------   --------------------
FINAL SINGLE POINT ENERGY     -1532.472297403980
-------------------------   --------------------



           ************************************************************
           *        Program running with 6 parallel MPI-processes     *
           *              working on a common directory               *
           ************************************************************

------------------------------------------------------------------------------
                              ORCA PROPERTY CALCULATIONS
------------------------------------------------------------------------------

GBWName                                 ... data/single_point_P_M06-2x/300563/300563.gbw
Number of atoms                         ...     34
Number of basis functions               ...    810
Max core memory                         ...   1024 MB

Electric properties:
Dipole moment                           ... YES
Quadrupole moment                       ...  NO
Static polarizability (Dipole/Dipole)   ...  NO
Static polarizability (Dipole/Quad.)    ...  NO
Static polarizability (Quad./Quad.)     ...  NO
Static polarizability (Velocity)        ...  NO

Atomic electric properties:
Dipole moment                           ...  NO
Quadrupole moment                       ...  NO
Static polarizability                   ...  NO

Choice of electric origin               ... Center of mass
Position of electric origin             ...     0.749336     1.321690    -0.639795

General magnetic properties:
Magnetizability                         ...  NO

EPR properties:
g-Tensor (aka g-matrix)                 ...  NO
Zero-Field splitting spin-orbit         ...  NO
Zero-field splitting spin-spin          ...  NO
Hyperfine couplings                     ...  NO (   0 nuclei)
Quadrupole couplings                    ...  NO (   0 nuclei)
Contact density                         ...  NO (   0 nuclei)

NMR properties:
Chemical shifts                         ...  NO (   0 nuclei)
Spin-rotation constants                 ...  NO (   0 nuclei)
Spin-spin couplings                     ...  NO (   0 nuclei,    0 pairs)

Choice of magnetic origin               ... GIAO
Position of magnetic origin             ...     0.000000     0.000000     0.000000

Properties with geometric perturbations:
SCF Hessian                             ...  NO
IR spectrum                             ...  NO
VCD spectrum                            ...  NO
X-ray spectroscopy properties:
SCF XES/XAS/RIXS spectra                ...  NO


-------------
DIPOLE MOMENT
-------------

Method             : SCF
Type of density    : Electron Density
Multiplicity       :   1
Irrep              :   0
Energy             : -1532.4700555673991857 Eh
Relativity type    : 
Basis              : AO
                                X                 Y                 Z
Electronic contribution:     16.141698954      28.009292415     -11.232749739
Nuclear contribution   :    -16.532067434     -28.710085160      11.820791155
                        -----------------------------------------
Total Dipole Moment    :     -0.390368480      -0.700792745       0.588041416
                        -----------------------------------------
Magnitude (a.u.)       :      0.994630951
Magnitude (Debye)      :      2.528150962



--------------------
Rotational spectrum 
--------------------
 
Rotational constants in cm-1:             0.009177             0.005809             0.004800 
Rotational constants in MHz :           275.116451           174.152765           143.889194 

Dipole components along the rotational axes: 
x,y,z [a.u.] :     0.932439    -0.073879    -0.338215 
x,y,z [Debye]:     2.370072    -0.187785    -0.859675 

 

Dipole moment calculation done in   0.0 sec 

Maximum memory used throughout the entire PROP-calculation: 62.8 MB

--------------------------------
SUGGESTED CITATIONS FOR THIS RUN
--------------------------------

Below you find a list of papers that are relevant to this ORCA run
We neither can nor want to force you to cite these papers, but we appreciate if you do
You receive ORCA, which is the product of decades of hard work by many enthusiastic individuals, for free
The only thing we kindly ask in return is that you cite our papers,
We deeply appreciate it, if you show your appreciation for ORCA by not just citing the generic ORCA reference.

Please note that relegating all ORCA citations to the supporting information does *not* help us.
SI sections are not indexed - citations you put there will not count into any citation statistics
But we need these citations in order to attract the funding resources that allow us to do what we are doing

Therefore, if you are a happy ORCA user, please consider citing a few of the papers listed below in the main body of your paper

In addition to the list printed below, the program has created the file data/single_point_P_M06-2x/300563/300563.bibtex that contains the list in bibtex format
You can import this file easily into all common literature databanks and citation aid programs


List of essential papers. We consider these as the minimum necessary citations

  1. Neese,F.
     Software update: the ORCA program system, version 5.0
     WIRES Comput. Molec. Sci., 2022 12(1)e1606
     doi.org/10.1002/wcms.1606

List of papers to cite with high priority. The work reported in these papers was absolutely
necessary for this run to complete.
Our perspective: the developers of density functionals and basis sets usually get cited in chemistry papers
Good! But without the algorithms to do something with them, the functionals or basis sets would not do anything.
Hence, in our opinion, the algorithm design and method developments papers are equally worthy of getting cited

  1. Neese,F.
     An improvement of the resolution of the identity approximation for the formation of the Coulomb matrix
     J. Comp. Chem., 2003 24(14)1740-1747
     doi.org/10.1002/jcc.10318
  2. Neese,F.; Wennmohs,F.; Hansen,A.; Becker,U.
     Efficient, approximate and parallel Hartree-Fock and hybrid DFT calculations. A 'chain-of-spheres' algorithm for the Hartree-Fock exchange
     Chem. Phys., 2009 356(1-3)98-109
     doi.org/10.1016/j.chemphys.2008.10.036
  3. Helmich-Paris,B.; de Souza,B.; Neese,F.; Izsák,R.
     An improved chain of spheres for exchange algorithm
     J. Chem. Phys., 2021 155 104109
     doi.org/doi: 10.1063/5.0058766.
  4. Neese,F.
     The SHARK Integral Generation and Digestion System
     J. Comp. Chem., 2022  1-16
     doi.org/10.1002/jcc.26942
  5. Grimme,S.; Antony,J.; Ehrlich,S.; Krieg,H.
     A consistent and accurate ab initio parametrization of density functional dispersion correction (DFT-D) for the 94 elements H-Pu
     J. Chem. Phys., 2010 132 154104-XXXX
     doi.org/10.1063/1.3382344

List of suggested additional citations. These are papers that are important in the 'surrounding' of 
of this run, or papers that preceded the highly important papers. If you like your results we are grateful for a citation.

  1. Izsak,R.; Neese,F.
     An overlap fitted chain of spheres exchange method
     J. Chem. Phys., 2011 135 144105
     doi.org/10.1063/1.3646921
  2. Izsak,R.; Hansen,A.; Neese,F.
     The resolution of identity and chain of spheres approximations for the LPNO-CCSD singles Fock term
     Molec. Phys., 2012 110 2413-2417
     doi.org/10.1080/00268976.2012.687466
  3. Neese,F.
     The ORCA program system
     WIRES Comput. Molec. Sci., 2012 2(1)73-78
     doi.org/10.1002/wcms.81
  4. Izsak,R.; Neese,F.; Klopper,W.
     Robust fitting techniques in the chain of spheres approximation to the Fock exchange: The role of the complementary space
     J. Chem. Phys., 2013 139 
     doi.org/10.1063/1.4819264
  5. Neese,F.
     Software update: the ORCA program system, version 4.0
     WIRES Comput. Molec. Sci., 2018 8(1)1-6
     doi.org/10.1002/wcms.1327
  6. Neese,F.; Wennmohs,F.; Becker,U.; Riplinger,C.
     The ORCA quantum chemistry program package
     J. Chem. Phys., 2020 152 Art. No. L224108
     doi.org/10.1063/5.0004608

List of optional additional citations

  1. Neese,F.
     Approximate second-order SCF convergence for spin unrestricted wavefunctions
     Chem. Phys. Lett., 2000 325(1-3)93-98
     doi.org/10.1016/s0009-2614(00)00662-x

Timings for individual modules:

Sum of individual times          ...      144.680 sec (=   2.411 min)
Startup calculation              ...        4.390 sec (=   0.073 min)   3.0 %
SCF iterations                   ...      139.996 sec (=   2.333 min)  96.8 %
Property calculations            ...        0.294 sec (=   0.005 min)   0.2 %
                             ****ORCA TERMINATED NORMALLY****
TOTAL RUN TIME: 0 days 0 hours 2 minutes 24 seconds 921 msec
