
                                 *****************
                                 * O   R   C   A *
                                 *****************

                                            #,                                       
                                            ###                                      
                                            ####                                     
                                            #####                                    
                                            ######                                   
                                           ########,                                 
                                     ,,################,,,,,                         
                               ,,#################################,,                 
                          ,,##########################################,,             
                       ,#########################################, ''#####,          
                    ,#############################################,,   '####,        
                  ,##################################################,,,,####,       
                ,###########''''           ''''###############################       
              ,#####''   ,,,,##########,,,,          '''####'''          '####       
            ,##' ,,,,###########################,,,                        '##       
           ' ,,###''''                  '''############,,,                           
         ,,##''                                '''############,,,,        ,,,,,,###''
      ,#''                                            '''#######################'''  
     '                                                          ''''####''''         
             ,#######,   #######,   ,#######,      ##                                
            ,#'     '#,  ##    ##  ,#'     '#,    #''#        ,####,   ,####,        
            ##       ##  ##   ,#'  ##            #'  '#       #'       #'  '#        
            ##       ##  #######   ##           ,######,      #####,   #    #        
            '#,     ,#'  ##    ##  '#,     ,#' ,#      #,     #,   #   #,  ,#        
             '#######'   ##     ##  '#######'  #'      '#     '####' # '####'        



                #########################################################
                #                        -***-                          #
                #          Department of theory and spectroscopy        #
                #                                                       #
                #                      Frank Neese                      #
                #                                                       #
                #     Directorship, Architecture, Infrastructure        #
                #                    SHARK, DRIVERS                     #
                #        Core code/Algorithms in most modules           #
                #                                                       #
                #        Max Planck Institute fuer Kohlenforschung      #
                #                Kaiser Wilhelm Platz 1                 #
                #                 D-45470 Muelheim/Ruhr                 #
                #                      Germany                          #
                #                                                       #
                #                  All rights reserved                  #
                #                        -***-                          #
                #########################################################


                         Program Version 6.0.0  -   RELEASE   -


 With contributions from (in alphabetic order):
   Daniel Aravena         : Magnetic Suceptibility
   Michael Atanasov       : Ab Initio Ligand Field Theory (pilot matlab implementation)
   Alexander A. Auer      : GIAO ZORA, VPT2 properties, NMR spectrum
   Ute Becker             : All parallelization in ORCA, NUMFREQ, NUMCALC
   Giovanni Bistoni       : ED, misc. LED, open-shell LED, HFLD
   Martin Brehm           : Molecular dynamics
   Dmytro Bykov           : pre 5.0 version of the SCF Hessian
   Marcos Casanova-Páez   : Triplet and SCS-CIS(D). UHF-(DLPNO)-IP/EA/STEOM-CCSD. UHF-CVS-IP/STEOM-CCSD
   Vijay G. Chilkuri      : MRCI spin determinant printing, contributions to CSF-ICE
   Pauline Colinet        : FMM embedding
   Dipayan Datta          : RHF DLPNO-CCSD density
   Achintya Kumar Dutta   : EOM-CC, STEOM-CC
   Nicolas Foglia         : Exact transition moments, OPA infrastructure, MCD improvements
   Dmitry Ganyushin       : Spin-Orbit,Spin-Spin,Magnetic field MRCI
   Miquel Garcia          : C-PCM and meta-GGA Hessian, CCSD/C-PCM, Gaussian charge scheme
   Tiago L. C. Gouveia    : GS-ROHF, GS-ROCIS
   Yang Guo               : DLPNO-NEVPT2, F12-NEVPT2, CIM, IAO-localization
   Andreas Hansen         : Spin unrestricted coupled pair/coupled cluster methods
   Ingolf Harden          : AUTO-CI MPn and infrastructure 
   Benjamin Helmich-Paris : MC-RPA, TRAH-(SCF,CASSCF), AVAS, COSX integrals, SCF dyn. polar.
   Lee Huntington         : MR-EOM, pCC
   Robert Izsak           : Overlap fitted RIJCOSX, COSX-SCS-MP3, EOM
   Riya Kayal             : Wick's Theorem for AUTO-CI, AUTO-CI UHF-CCSDT
   Emily Kempfer          : AUTO-CI, RHF CISDT and CCSDT
   Christian Kollmar      : KDIIS, OOCD, Brueckner-CCSD(T), CCSD density, CASPT2, CASPT2-K, improved NEVPT2
   Axel Koslowski         : Symmetry handling
   Simone Kossmann        : Meta GGA functionals, TD-DFT gradient, OOMP2, (MP2 Hessian; deprecated post 5.0)
   Lucas Lang             : DCDCAS
   Marvin Lechner         : AUTO-CI (C++ implementation), FIC-MRCC
   Spencer Leger          : CASSCF response
   Dagmar Lenk            : GEPOL surface, SMD, ORCA-2-JSON
   Dimitrios Liakos       : Extrapolation schemes; Compound Job, initial MDCI parallelization
   Dimitrios Manganas     : Further ROCIS development; embedding schemes. LFT, Crystal Embedding
   Dimitrios Pantazis     : SARC Basis sets
   Anastasios Papadopoulos: AUTO-CI, single reference methods and gradients
   Taras Petrenko         : pre 6.0 DFT Hessian and TD-DFT gradient, (ASA, deprecated), ECA, 1-Electron XAS/XES, NRVS
   Peter Pinski           : DLPNO-MP2, DLPNO-MP2 Gradient
   Christoph Reimann      : Effective Core Potentials
   Marius Retegan         : Local ZFS, SOC
   Christoph Riplinger    : Optimizer, TS searches, QM/MM, DLPNO-CCSD(T), (RO)-DLPNO pert. Triples
   Michael Roemelt        : Original ROCIS implementation
   Masaaki Saitow         : Open-shell DLPNO-CCSD energy and density
   Barbara Sandhoefer     : DKH picture change effects
   Kantharuban Sivalingam : CASSCF convergence/infrastructure, NEVPT2 and variants, FIC-MRCI
   Bernardo de Souza      : ESD, SOC TD-DFT
   Georgi Stoychev        : AutoAux, RI-MP2 NMR, DLPNO-MP2 response, X2C
   Van Anh Tran           : RI-MP2 g-tensors
   Willem Van den Heuvel  : Paramagnetic NMR
   Zikuan Wang            : NOTCH, Electric field optimization 
   Frank Wennmohs         : Technical directorship and infrastructure
   Hang Xu                : AUTO-CI-Response properties 


 We gratefully acknowledge several colleagues who have allowed us to
 interface, adapt or use parts of their codes:
   Stefan Grimme, W. Hujo, H. Kruse, P. Pracht,  : VdW corrections, initial TS optimization,
                  C. Bannwarth, S. Ehlert,         DFT functionals, gCP, sTDA/sTD-DF
                  L. Wittmann, M. Mueller
   Ed Valeev, F. Pavosevic, A. Kumar             : LibInt (2-el integral package), F12 methods
   Garnet Chan, S. Sharma, J. Yang, R. Olivares  : DMRG
   Ulf Ekstrom                                   : XCFun DFT Library
   Mihaly Kallay                                 : mrcc  (arbitrary order and MRCC methods)
   Frank Weinhold                                : gennbo (NPA and NBO analysis)
   Simon Mueller                                 : openCOSMO-RS
   Christopher J. Cramer and Donald G. Truhlar   : smd solvation model
   Lars Goerigk                                  : TD-DFT with DH, B97 family of functionals
   V. Asgeirsson, H. Jonsson                     : NEB implementation
   FAccTs GmbH                                   : IRC, NEB, NEB-TS, DLPNO-Multilevel, CI-OPT
                                                   MM, QMMM, 2- and 3-layer-ONIOM, Crystal-QMMM,
                                                   LR-CPCM, SF, NACMEs, symmetry and pop. for TD-DFT,
                                                   nearIR, NL-DFT gradient (VV10), updates on ESD,
                                                   ML-optimized integration grids, MBIS, APM,
                                                   GOAT, DOCKER, SOLVATOR, interface openCOSMO-RS
   S Lehtola, MJT Oliveira, MAL Marques          : LibXC Library
   Liviu Ungur et al                             : ANISO software


 Your calculation uses the libint2 library for the computation of 2-el integrals
 For citations please refer to: http://libint.valeyev.net

 Your ORCA version has been built with support for libXC version: 6.2.2
 For citations please refer to: https://libxc.gitlab.io

 This ORCA versions uses:
   CBLAS   interface :  Fast vector & matrix operations
   LAPACKE interface :  Fast linear algebra routines
   Shared memory     :  Shared parallel matrices


Your calculation utilizes the atom-pairwise dispersion correction
with the Becke-Johnson damping scheme (D3BJ)


Warning: RI is on but no J-basis has been assigned. Assigning Def2/J (nothing to worry about!)
================================================================================

----- Orbital basis set information -----
Your calculation utilizes the basis: def2-SVP
   F. Weigend and R. Ahlrichs, Phys. Chem. Chem. Phys. 7, 3297 (2005).

----- AuxJ basis set information -----
Your calculation utilizes the auxiliary basis: def2/J
   F. Weigend, Phys. Chem. Chem. Phys. 8, 1057 (2006).

================================================================================
                                        WARNINGS
                       Please study these warnings very carefully!
================================================================================


WARNING: Geometry Optimization
  ===> : Switching off AutoStart
         For restart on a previous wavefunction, please use MOREAD

================================================================================
                                       INPUT FILE
================================================================================
NAME = data/geom_opt/80757/80757.inp
|  1> ! RIJONX B3LYP def2-SVP D3BJ TIGHTSCF Opt
|  2> %pal
|  3> nprocs 6
|  4> end
|  5> 
|  6> * xyz 0 1
|  7> C      5.231090    1.138130    0.106683
|  8> C      3.829150    1.644308    0.406653
|  9> C      2.768097    0.827426   -0.332714
| 10> C      1.361819    1.343425   -0.023235
| 11> P      0.055063    0.416204   -0.949928
| 12> C     -1.449865    1.223578   -0.236173
| 13> C     -2.744878    0.592442   -0.750235
| 14> C     -3.970290    1.311869   -0.184034
| 15> C     -5.263290    0.690826   -0.688109
| 16> C      0.061664   -1.205659   -0.124254
| 17> C     -0.036638   -1.366173    1.264113
| 18> C     -0.025958   -2.639983    1.840048
| 19> C      0.083216   -3.770707    1.034892
| 20> C      0.181763   -3.628653   -0.346314
| 21> C      0.171000   -2.355026   -0.921042
| 22> H      5.973156    1.735931    0.645072
| 23> H      5.346008    0.094494    0.416461
| 24> H      5.451944    1.205568   -0.963360
| 25> H      3.652186    1.592934    1.487296
| 26> H      3.757712    2.698662    0.115253
| 27> H      2.860026   -0.226813   -0.043237
| 28> H      2.958549    0.877544   -1.412560
| 29> H      1.175888    1.306304    1.055372
| 30> H      1.292973    2.397062   -0.318777
| 31> H     -1.425731    1.195406    0.858344
| 32> H     -1.426767    2.281135   -0.524747
| 33> H     -2.789751   -0.467627   -0.471119
| 34> H     -2.774375    0.633185   -1.846739
| 35> H     -3.945320    2.370332   -0.468130
| 36> H     -3.954092    1.268725    0.911238
| 37> H     -6.125748    1.220237   -0.271237
| 38> H     -5.325674    0.746198   -1.779603
| 39> H     -5.334757   -0.360755   -0.392452
| 40> H     -0.123106   -0.505621    1.921507
| 41> H     -0.103085   -2.747235    2.918817
| 42> H      0.091496   -4.760702    1.482766
| 43> H      0.267207   -4.507327   -0.980007
| 44> H      0.249315   -2.269642   -2.003205
| 45> **                         ****END OF INPUT****
================================================================================

                       *****************************
                       * Geometry Optimization Run *
                       *****************************

Geometry optimization settings:
Update method            Update   .... BFGS
Choice of coordinates    CoordSys .... (2022) Redundant Internals
Initial Hessian          InHess   .... Almloef's Model
Max. no of cycles        MaxIter  .... 114

Convergence Tolerances:
Energy Change            TolE     ....  5.0000e-06 Eh
Max. Gradient            TolMAXG  ....  3.0000e-04 Eh/bohr
RMS Gradient             TolRMSG  ....  1.0000e-04 Eh/bohr
Max. Displacement        TolMAXD  ....  4.0000e-03 bohr
RMS Displacement         TolRMSD  ....  2.0000e-03 bohr
Strict Convergence                .... False

------------------------------------------------------------------------------
                        ORCA OPTIMIZATION COORDINATE SETUP
------------------------------------------------------------------------------

The optimization will be done in redundant internal coordinates (2022)
Making redundant internal coordinates   ...  (2022 redundants) done
Evaluating the initial hessian          ...  (Almloef) done
Evaluating the coordinates              ...  done
Calculating the B-matrix                .... done
Calculating the G-matrix                .... done
Diagonalizing the G-matrix              .... done
Small eigenvalue found = 3.253e-03
Small eigenvalue found = 5.186e-03
Small eigenvalue found = 1.073e-02
Small eigenvalue found = 1.625e-02
Small eigenvalue found = 1.665e-02
Small eigenvalue found = 2.564e-02
The first mode is                       ....   73
The number of degrees of freedom        ....  108

    -----------------------------------------------------------------
                    Redundant Internal Coordinates


    -----------------------------------------------------------------
         Definition                    Initial Value    Approx d2E/dq
    -----------------------------------------------------------------
      1. B(C   1,C   0)                  1.5204         0.386976   
      2. B(C   2,C   1)                  1.5296         0.374071   
      3. B(C   3,C   2)                  1.5296         0.374136   
      4. B(P   4,C   3)                  1.8510         0.386167   
      5. B(C   5,P   4)                  1.8510         0.386168   
      6. B(C   6,C   5)                  1.5296         0.374135   
      7. B(C   7,C   6)                  1.5296         0.374071   
      8. B(C   8,C   7)                  1.5204         0.386976   
      9. B(C   9,P   4)                  1.8200         0.432786   
     10. B(C  10,C   9)                  1.4011         0.599902   
     11. B(C  11,C  10)                  1.3980         0.606699   
     12. B(C  12,C  11)                  1.3924         0.619349   
     13. B(C  13,C  12)                  1.3920         0.620258   
     14. B(C  14,C  13)                  1.3973         0.608178   
     15. B(C  14,C   9)                  1.4028         0.596080   
     16. B(H  15,C   0)                  1.0945         0.354220   
     17. B(H  16,C   0)                  1.0947         0.353950   
     18. B(H  17,C   0)                  1.0947         0.353967   
     19. B(H  18,C   1)                  1.0962         0.351938   
     20. B(H  19,C   1)                  1.0962         0.351976   
     21. B(H  20,C   2)                  1.0971         0.350806   
     22. B(H  21,C   2)                  1.0977         0.350112   
     23. B(H  22,C   3)                  1.0951         0.353358   
     24. B(H  23,C   3)                  1.0965         0.351648   
     25. B(H  24,C   5)                  1.0951         0.353357   
     26. B(H  25,C   5)                  1.0965         0.351649   
     27. B(H  26,C   6)                  1.0971         0.350807   
     28. B(H  27,C   6)                  1.0977         0.350112   
     29. B(H  28,C   7)                  1.0962         0.351977   
     30. B(H  29,C   7)                  1.0962         0.351938   
     31. B(H  30,C   8)                  1.0945         0.354219   
     32. B(H  31,C   8)                  1.0947         0.353966   
     33. B(H  32,C   8)                  1.0947         0.353951   
     34. B(H  33,C  10)                  1.0864         0.364938   
     35. B(H  34,C  11)                  1.0868         0.364321   
     36. B(H  35,C  12)                  1.0866         0.364595   
     37. B(H  36,C  13)                  1.0867         0.364481   
     38. B(H  37,C  14)                  1.0883         0.362293   
     39. A(C   1,C   0,H  17)          111.0007         0.325283   
     40. A(H  16,C   0,H  17)          108.3106         0.289274   
     41. A(C   1,C   0,H  16)          110.9997         0.325280   
     42. A(H  15,C   0,H  16)          108.0800         0.289306   
     43. A(H  15,C   0,H  17)          108.0836         0.289308   
     44. A(C   1,C   0,H  15)          110.2603         0.325321   
     45. A(C   0,C   1,C   2)          111.4972         0.365632   
     46. A(C   2,C   1,H  18)          109.8452         0.323171   
     47. A(H  18,C   1,H  19)          107.2533         0.288760   
     48. A(C   0,C   1,H  19)          109.1386         0.324982   
     49. A(C   0,C   1,H  18)          109.1315         0.324976   
     50. A(C   2,C   1,H  19)          109.8739         0.323177   
     51. A(C   3,C   2,H  20)          110.3535         0.323010   
     52. A(C   3,C   2,H  21)          110.0696         0.322905   
     53. A(C   1,C   2,H  21)          109.3160         0.322896   
     54. A(C   1,C   2,H  20)          109.1174         0.323001   
     55. A(H  20,C   2,H  21)          106.7925         0.288375   
     56. A(C   1,C   2,C   3)          111.0873         0.363527   
     57. A(C   2,C   3,P   4)          112.2583         0.389005   
     58. A(P   4,C   3,H  23)          107.5835         0.344856   
     59. A(H  22,C   3,H  23)          106.7013         0.288900   
     60. A(C   2,C   3,H  23)          109.1086         0.323137   
     61. A(P   4,C   3,H  22)          110.8702         0.345137   
     62. A(C   2,C   3,H  22)          110.1164         0.323394   
     63. A(C   5,P   4,C   9)          102.5164         0.425402   
     64. A(C   3,P   4,C   9)          102.5163         0.425401   
     65. A(C   3,P   4,C   5)           99.3484         0.416835   
     66. A(H  24,C   5,H  25)          106.7013         0.288900   
     67. A(P   4,C   5,C   6)          112.2583         0.389005   
     68. A(C   6,C   5,H  25)          109.1086         0.323137   
     69. A(P   4,C   5,H  25)          107.5835         0.344856   
     70. A(C   6,C   5,H  24)          110.1164         0.323394   
     71. A(P   4,C   5,H  24)          110.8701         0.345137   
     72. A(C   5,C   6,C   7)          111.0872         0.363527   
     73. A(C   7,C   6,H  27)          109.3161         0.322896   
     74. A(H  26,C   6,H  27)          106.7925         0.288375   
     75. A(C   5,C   6,H  27)          110.0696         0.322905   
     76. A(C   7,C   6,H  26)          109.1175         0.323001   
     77. A(C   5,C   6,H  26)          110.3535         0.323010   
     78. A(C   8,C   7,H  29)          109.1315         0.324976   
     79. A(H  28,C   7,H  29)          107.2533         0.288760   
     80. A(C   6,C   7,H  29)          109.8451         0.323171   
     81. A(C   8,C   7,H  28)          109.1386         0.324982   
     82. A(C   6,C   7,H  28)          109.8739         0.323177   
     83. A(C   6,C   7,C   8)          111.4972         0.365632   
     84. A(H  31,C   8,H  32)          108.3106         0.289274   
     85. A(H  30,C   8,H  32)          108.0800         0.289306   
     86. A(H  30,C   8,H  31)          108.0835         0.289308   
     87. A(C   7,C   8,H  32)          110.9997         0.325281   
     88. A(C   7,C   8,H  31)          111.0007         0.325283   
     89. A(C   7,C   8,H  30)          110.2602         0.325321   
     90. A(C  10,C   9,C  14)          118.3234         0.428465   
     91. A(P   4,C   9,C  14)          118.2130         0.431069   
     92. A(P   4,C   9,C  10)          123.4637         0.431565   
     93. A(C   9,C  10,H  33)          120.9626         0.351740   
     94. A(C  11,C  10,H  33)          118.2344         0.352411   
     95. A(C   9,C  10,C  11)          120.8030         0.429825   
     96. A(C  12,C  11,H  34)          119.9600         0.353543   
     97. A(C  10,C  11,H  34)          119.8870         0.352310   
     98. A(C  10,C  11,C  12)          120.1530         0.432295   
     99. A(C  11,C  12,C  13)          119.7659         0.434017   
    100. A(C  13,C  12,H  35)          120.0937         0.353676   
    101. A(C  11,C  12,H  35)          120.1404         0.353588   
    102. A(C  14,C  13,H  36)          119.8507         0.352482   
    103. A(C  12,C  13,H  36)          120.1103         0.353657   
    104. A(C  12,C  13,C  14)          120.0389         0.432598   
    105. A(C  13,C  14,H  37)          118.6800         0.352123   
    106. A(C   9,C  14,H  37)          120.4042         0.350929   
    107. A(C   9,C  14,C  13)          120.9158         0.429520   
    108. D(H  18,C   1,C   0,H  16)     61.2578         0.011914   
    109. D(C   2,C   1,C   0,H  15)    179.9982         0.011914   
    110. D(H  18,C   1,C   0,H  15)    -58.4804         0.011914   
    111. D(C   2,C   1,C   0,H  17)     60.2548         0.011914   
    112. D(H  18,C   1,C   0,H  17)   -178.2238         0.011914   
    113. D(C   2,C   1,C   0,H  16)    -60.2636         0.011914   
    114. D(C   3,C   2,C   1,C   0)    179.9397         0.011172   
    115. D(H  20,C   2,C   1,H  19)    179.1908         0.011172   
    116. D(H  20,C   2,C   1,H  18)    -63.0502         0.011172   
    117. D(C   3,C   2,C   1,H  19)    -58.9256         0.011172   
    118. D(H  20,C   2,C   1,C   0)     58.0561         0.011172   
    119. D(C   3,C   2,C   1,H  18)     58.8334         0.011172   
    120. D(P   4,C   3,C   2,H  21)     56.7089         0.011175   
    121. D(P   4,C   3,C   2,H  20)    -60.9109         0.011175   
    122. D(P   4,C   3,C   2,C   1)    177.9285         0.011175   
    123. D(H  22,C   3,C   2,C   1)    -58.0260         0.011175   
    124. D(H  22,C   3,C   2,H  21)   -179.2456         0.011175   
    125. D(H  22,C   3,C   2,H  20)     63.1346         0.011175   
    126. D(C   9,P   4,C   3,C   2)     70.9926         0.003515   
    127. D(C   5,P   4,C   3,H  23)    -63.7968         0.003515   
    128. D(C   5,P   4,C   3,H  22)     52.5281         0.003515   
    129. D(C   9,P   4,C   3,H  22)    -52.6327         0.003515   
    130. D(C   5,P   4,C   3,C   2)    176.1533         0.003515   
    131. D(H  25,C   5,P   4,C   3)     63.7964         0.003515   
    132. D(H  24,C   5,P   4,C   9)     52.6323         0.003515   
    133. D(H  24,C   5,P   4,C   3)    -52.5284         0.003515   
    134. D(C   6,C   5,P   4,C   9)    -70.9929         0.003515   
    135. D(C   6,C   5,P   4,C   3)   -176.1536         0.003515   
    136. D(C   7,C   6,C   5,H  25)    -58.7684         0.011175   
    137. D(C   7,C   6,C   5,H  24)     58.0263         0.011175   
    138. D(C   7,C   6,C   5,P   4)   -177.9283         0.011175   
    139. D(H  26,C   6,C   5,H  25)   -179.9290         0.011175   
    140. D(H  26,C   6,C   5,H  24)    -63.1343         0.011175   
    141. D(H  26,C   6,C   5,P   4)     60.9111         0.011175   
    142. D(H  28,C   7,C   6,H  27)    -62.7354         0.011172   
    143. D(H  28,C   7,C   6,H  26)   -179.1910         0.011172   
    144. D(H  28,C   7,C   6,C   5)     58.9254         0.011172   
    145. D(C   8,C   7,C   6,H  26)    -58.0562         0.011172   
    146. D(C   8,C   7,C   6,C   5)   -179.9398         0.011172   
    147. D(C   8,C   7,C   6,H  27)     58.3994         0.011172   
    148. D(H  31,C   8,C   7,H  29)    178.2236         0.011914   
    149. D(H  31,C   8,C   7,H  28)     61.3072         0.011914   
    150. D(H  31,C   8,C   7,C   6)    -60.2551         0.011914   
    151. D(H  30,C   8,C   7,H  29)     58.4804         0.011914   
    152. D(H  30,C   8,C   7,H  28)    -58.4360         0.011914   
    153. D(H  30,C   8,C   7,C   6)   -179.9983         0.011914   
    154. D(C  14,C   9,P   4,C   5)    128.6537         0.003833   
    155. D(C  14,C   9,P   4,C   3)   -128.6535         0.003833   
    156. D(C  10,C   9,P   4,C   5)    -51.3465         0.003833   
    157. D(C  10,C   9,P   4,C   3)     51.3463         0.003833   
    158. D(H  33,C  10,C   9,C  14)    180.0000         0.024809   
    159. D(H  33,C  10,C   9,P   4)      0.0001         0.024809   
    160. D(C  11,C  10,C   9,C  14)     -0.0001         0.024809   
    161. D(C  11,C  10,C   9,P   4)   -179.9999         0.024809   
    162. D(H  34,C  11,C  10,H  33)      0.0000         0.025406   
    163. D(H  34,C  11,C  10,C   9)   -179.9999         0.025406   
    164. D(C  12,C  11,C  10,H  33)    180.0000         0.025406   
    165. D(C  12,C  11,C  10,C   9)      0.0000         0.025406   
    166. D(H  35,C  12,C  11,H  34)     -0.0000         0.026540   
    167. D(H  35,C  12,C  11,C  10)   -180.0000         0.026540   
    168. D(C  13,C  12,C  11,H  34)    179.9999         0.026540   
    169. D(C  13,C  12,C  11,C  10)      0.0000         0.026540   
    170. D(C  14,C  13,C  12,C  11)      0.0000         0.026623   
    171. D(H  36,C  13,C  12,H  35)      0.0000         0.026623   
    172. D(H  36,C  13,C  12,C  11)   -179.9999         0.026623   
    173. D(C  14,C  13,C  12,H  35)    180.0000         0.026623   
    174. D(H  37,C  14,C  13,H  36)     -0.0000         0.025537   
    175. D(H  37,C  14,C  13,C  12)   -180.0000         0.025537   
    176. D(C   9,C  14,C  13,H  36)    179.9999         0.025537   
    177. D(C   9,C  14,C  13,C  12)     -0.0001         0.025537   
    178. D(H  37,C  14,C   9,C  10)    180.0000         0.024477   
    179. D(H  37,C  14,C   9,P   4)     -0.0001         0.024477   
    180. D(C  13,C  14,C   9,C  10)      0.0001         0.024477   
    181. D(C  13,C  14,C   9,P   4)    180.0000         0.024477   
    -----------------------------------------------------------------

Number of atoms                         .... 38
Number of degrees of freedom            .... 181


         *************************************************************
         *                GEOMETRY OPTIMIZATION CYCLE   1            *
         *************************************************************
---------------------------------
CARTESIAN COORDINATES (ANGSTROEM)
---------------------------------
  C      5.231090    1.138130    0.106683
  C      3.829150    1.644308    0.406653
  C      2.768097    0.827426   -0.332714
  C      1.361819    1.343425   -0.023235
  P      0.055063    0.416204   -0.949928
  C     -1.449865    1.223578   -0.236173
  C     -2.744878    0.592442   -0.750235
  C     -3.970290    1.311869   -0.184034
  C     -5.263290    0.690826   -0.688109
  C      0.061664   -1.205659   -0.124254
  C     -0.036638   -1.366173    1.264113
  C     -0.025958   -2.639983    1.840048
  C      0.083216   -3.770707    1.034892
  C      0.181763   -3.628653   -0.346314
  C      0.171000   -2.355026   -0.921042
  H      5.973156    1.735931    0.645072
  H      5.346008    0.094494    0.416461
  H      5.451944    1.205568   -0.963360
  H      3.652186    1.592934    1.487296
  H      3.757712    2.698662    0.115253
  H      2.860026   -0.226813   -0.043237
  H      2.958549    0.877544   -1.412560
  H      1.175888    1.306304    1.055372
  H      1.292973    2.397062   -0.318777
  H     -1.425731    1.195406    0.858344
  H     -1.426767    2.281135   -0.524747
  H     -2.789751   -0.467627   -0.471119
  H     -2.774375    0.633185   -1.846739
  H     -3.945320    2.370332   -0.468130
  H     -3.954092    1.268725    0.911238
  H     -6.125748    1.220237   -0.271237
  H     -5.325674    0.746198   -1.779603
  H     -5.334757   -0.360755   -0.392452
  H     -0.123106   -0.505621    1.921507
  H     -0.103085   -2.747235    2.918817
  H      0.091496   -4.760702    1.482766
  H      0.267207   -4.507327   -0.980007
  H      0.249315   -2.269642   -2.003205

----------------------------
CARTESIAN COORDINATES (A.U.)
----------------------------
  NO LB      ZA    FRAG     MASS         X           Y           Z
   0 C     6.0000    0    12.011    9.885327    2.150754    0.201602
   1 C     6.0000    0    12.011    7.236045    3.107292    0.768463
   2 C     6.0000    0    12.011    5.230945    1.563609   -0.628738
   3 C     6.0000    0    12.011    2.573465    2.538705   -0.043908
   4 P    15.0000    0    30.974    0.104054    0.786512   -1.795104
   5 C     6.0000    0    12.011   -2.739848    2.312227   -0.446302
   6 C     6.0000    0    12.011   -5.187068    1.119553   -1.417739
   7 C     6.0000    0    12.011   -7.502761    2.479073   -0.347774
   8 C     6.0000    0    12.011   -9.946177    1.305472   -1.300338
   9 C     6.0000    0    12.011    0.116528   -2.278365   -0.234806
  10 C     6.0000    0    12.011   -0.069236   -2.581693    2.388827
  11 C     6.0000    0    12.011   -0.049054   -4.988845    3.477187
  12 C     6.0000    0    12.011    0.157255   -7.125604    1.955662
  13 C     6.0000    0    12.011    0.343482   -6.857160   -0.654439
  14 C     6.0000    0    12.011    0.323143   -4.450354   -1.740517
  15 H     1.0000    0     1.008   11.287629    3.280434    1.219009
  16 H     1.0000    0     1.008   10.102491    0.178568    0.786997
  17 H     1.0000    0     1.008   10.302681    2.278193   -1.820487
  18 H     1.0000    0     1.008    6.901631    3.010209    2.810582
  19 H     1.0000    0     1.008    7.101047    5.099732    0.217797
  20 H     1.0000    0     1.008    5.404666   -0.428614   -0.081706
  21 H     1.0000    0     1.008    5.590847    1.658318   -2.669352
  22 H     1.0000    0     1.008    2.222106    2.468557    1.994364
  23 H     1.0000    0     1.008    2.443365    4.529791   -0.602401
  24 H     1.0000    0     1.008   -2.694241    2.258990    1.622035
  25 H     1.0000    0     1.008   -2.696199    4.310720   -0.991628
  26 H     1.0000    0     1.008   -5.271865   -0.883687   -0.890286
  27 H     1.0000    0     1.008   -5.242809    1.196546   -3.489831
  28 H     1.0000    0     1.008   -7.455574    4.479278   -0.884637
  29 H     1.0000    0     1.008   -7.472151    2.397543    1.721990
  30 H     1.0000    0     1.008  -11.575986    2.305914   -0.512564
  31 H     1.0000    0     1.008  -10.064065    1.410110   -3.362962
  32 H     1.0000    0     1.008  -10.081230   -0.681728   -0.741627
  33 H     1.0000    0     1.008   -0.232637   -0.955485    3.631122
  34 H     1.0000    0     1.008   -0.194802   -5.191522    5.515765
  35 H     1.0000    0     1.008    0.172902   -8.996423    2.802022
  36 H     1.0000    0     1.008    0.504948   -8.517614   -1.851945
  37 H     1.0000    0     1.008    0.471137   -4.289002   -3.785509

--------------------------------
INTERNAL COORDINATES (ANGSTROEM)
--------------------------------
 C      0   0   0     0.000000000000     0.00000000     0.00000000
 C      1   0   0     1.520405844564     0.00000000     0.00000000
 C      2   1   0     1.529638268161   111.49724005     0.00000000
 C      3   2   1     1.529591459418   111.08725227   179.93967077
 P      4   3   2     1.850975403031   112.25834007   177.92853784
 C      5   4   3     1.850974678672    99.34839378   176.15328184
 C      6   5   4     1.529591795385   112.25832490   183.84643071
 C      7   6   5     1.529638307076   111.08722420   182.07173047
 C      8   7   6     1.520406200156   111.49717641   180.06020223
 C      5   4   3     1.819950746104   102.51631630    70.99256358
 C     10   5   4     1.401067790683   123.46366765    51.34634371
 C     11  10   5     1.398001109701   120.80300259   180.00006262
 C     12  11  10     1.392383535808   120.15303467     0.00000000
 C     13  12  11     1.391984505862   119.76587273     0.00000000
 C     14  13  12     1.397338130619   120.03893301     0.00000000
 H      1   2   3     1.094481931910   110.26025162   179.99817324
 H      1   2   3     1.094689296789   110.99970629   299.73635279
 H      1   2   3     1.094676388258   111.00068860    60.25482147
 H      2   1   3     1.096241231947   109.13145604   121.52142154
 H      2   1   3     1.096211523913   109.13862918   238.43769943
 H      3   2   1     1.097117926064   109.11743773    58.05607553
 H      3   2   1     1.097657124035   109.31600409   301.60053055
 H      4   3   2     1.095144449765   110.11639188   301.97402915
 H      4   3   2     1.096465126326   109.10856036    58.76867566
 H      6   5   4     1.095145458297   110.87013814   307.47163023
 H      6   5   4     1.096464901093   107.58352371    63.79644633
 H      7   6   5     1.097116954725   110.35348317    60.91112457
 H      7   6   5     1.097657089930   110.06956122   303.29141583
 H      8   7   6     1.096210728138   109.87392631    58.92544108
 H      8   7   6     1.096241092974   109.84512619   301.16636041
 H      9   8   7     1.094482559509   110.26018682   180.00170403
 H      9   8   7     1.094676652659   111.00066832   299.74488882
 H      9   8   7     1.094688628469   110.99974888    60.26345662
 H     11  10   5     1.086367033265   120.96256815     0.00000000
 H     12  11  10     1.086827548875   119.88696942   180.00007248
 H     13  12  11     1.086623107752   120.14040189   180.00003506
 H     14  13  12     1.086708559670   120.11031810   180.00005797
 H     15  14  13     1.088347566382   118.68002766   180.00001894

---------------------------
INTERNAL COORDINATES (A.U.)
---------------------------
 C      0   0   0     0.000000000000     0.00000000     0.00000000
 C      1   0   0     2.873150658639     0.00000000     0.00000000
 C      2   1   0     2.890597410790   111.49724005     0.00000000
 C      3   2   1     2.890508955086   111.08725227   179.93967077
 P      4   3   2     3.497836592353   112.25834007   177.92853784
 C      5   4   3     3.497835223513    99.34839378   176.15328184
 C      6   5   4     2.890509589970   112.25832490   183.84643071
 C      7   6   5     2.890597484328   111.08722420   182.07173047
 C      8   7   6     2.873151330611   111.49717641   180.06020223
 C      5   4   3     3.439208487363   102.51631630    70.99256358
 C     10   5   4     2.647634419449   123.46366765    51.34634371
 C     11  10   5     2.641839232253   120.80300259   180.00006262
 C     12  11  10     2.631223556057   120.15303467     0.00000000
 C     13  12  11     2.630469498742   119.76587273     0.00000000
 C     14  13  12     2.640586383356   120.03893301     0.00000000
 H      1   2   3     2.068271109835   110.26025162   179.99817324
 H      1   2   3     2.068662972666   110.99970629   299.73635279
 H      1   2   3     2.068638579077   111.00068860    60.25482147
 H      2   1   3     2.071595705093   109.13145604   121.52142154
 H      2   1   3     2.071539565044   109.13862918   238.43769943
 H      3   2   1     2.073252416877   109.11743773    58.05607553
 H      3   2   1     2.074271353373   109.31600409   301.60053055
 H      4   3   2     2.069523087140   110.11639188   301.97402915
 H      4   3   2     2.072018804151   109.10856036    58.76867566
 H      6   5   4     2.069524992989   110.87013814   307.47163023
 H      6   5   4     2.072018378523   107.58352371    63.79644633
 H      7   6   5     2.073250581313   110.35348317    60.91112457
 H      7   6   5     2.074271288925   110.06956122   303.29141583
 H      8   7   6     2.071538061247   109.87392631    58.92544108
 H      8   7   6     2.071595442471   109.84512619   301.16636041
 H      9   8   7     2.068272295825   110.26018682   180.00170403
 H      9   8   7     2.068639078723   111.00066832   299.74488882
 H      9   8   7     2.068661709724   110.99974888    60.26345662
 H     11  10   5     2.052936173791   120.96256815     0.00000000
 H     12  11  10     2.053806422175   119.88696942   180.00007248
 H     13  12  11     2.053420084442   120.14040189   180.00003506
 H     14  13  12     2.053581565165   120.11031810   180.00005797
 H     15  14  13     2.056678838982   118.68002766   180.00001894

---------------------
BASIS SET INFORMATION
---------------------
There are 3 groups of distinct atoms

 Group   1 Type C   : 7s4p1d contracted to 3s2p1d pattern {511/31/1}
 Group   2 Type P   : 10s7p1d contracted to 4s3p1d pattern {5311/511/1}
 Group   3 Type H   : 4s1p contracted to 2s1p pattern {31/1}

Atom   0C    basis set group =>   1
Atom   1C    basis set group =>   1
Atom   2C    basis set group =>   1
Atom   3C    basis set group =>   1
Atom   4P    basis set group =>   2
Atom   5C    basis set group =>   1
Atom   6C    basis set group =>   1
Atom   7C    basis set group =>   1
Atom   8C    basis set group =>   1
Atom   9C    basis set group =>   1
Atom  10C    basis set group =>   1
Atom  11C    basis set group =>   1
Atom  12C    basis set group =>   1
Atom  13C    basis set group =>   1
Atom  14C    basis set group =>   1
Atom  15H    basis set group =>   3
Atom  16H    basis set group =>   3
Atom  17H    basis set group =>   3
Atom  18H    basis set group =>   3
Atom  19H    basis set group =>   3
Atom  20H    basis set group =>   3
Atom  21H    basis set group =>   3
Atom  22H    basis set group =>   3
Atom  23H    basis set group =>   3
Atom  24H    basis set group =>   3
Atom  25H    basis set group =>   3
Atom  26H    basis set group =>   3
Atom  27H    basis set group =>   3
Atom  28H    basis set group =>   3
Atom  29H    basis set group =>   3
Atom  30H    basis set group =>   3
Atom  31H    basis set group =>   3
Atom  32H    basis set group =>   3
Atom  33H    basis set group =>   3
Atom  34H    basis set group =>   3
Atom  35H    basis set group =>   3
Atom  36H    basis set group =>   3
Atom  37H    basis set group =>   3
---------------------------------
AUXILIARY/J BASIS SET INFORMATION
---------------------------------
There are 3 groups of distinct atoms

 Group   1 Type C   : 12s5p4d2f1g contracted to 6s4p3d1f1g pattern {711111/2111/211/2/1}
 Group   2 Type P   : 14s5p5d2f1g contracted to 8s4p3d1f1g pattern {71111111/2111/311/2/1}
 Group   3 Type H   : 5s2p1d contracted to 3s1p1d pattern {311/2/1}

Atom   0C    basis set group =>   1
Atom   1C    basis set group =>   1
Atom   2C    basis set group =>   1
Atom   3C    basis set group =>   1
Atom   4P    basis set group =>   2
Atom   5C    basis set group =>   1
Atom   6C    basis set group =>   1
Atom   7C    basis set group =>   1
Atom   8C    basis set group =>   1
Atom   9C    basis set group =>   1
Atom  10C    basis set group =>   1
Atom  11C    basis set group =>   1
Atom  12C    basis set group =>   1
Atom  13C    basis set group =>   1
Atom  14C    basis set group =>   1
Atom  15H    basis set group =>   3
Atom  16H    basis set group =>   3
Atom  17H    basis set group =>   3
Atom  18H    basis set group =>   3
Atom  19H    basis set group =>   3
Atom  20H    basis set group =>   3
Atom  21H    basis set group =>   3
Atom  22H    basis set group =>   3
Atom  23H    basis set group =>   3
Atom  24H    basis set group =>   3
Atom  25H    basis set group =>   3
Atom  26H    basis set group =>   3
Atom  27H    basis set group =>   3
Atom  28H    basis set group =>   3
Atom  29H    basis set group =>   3
Atom  30H    basis set group =>   3
Atom  31H    basis set group =>   3
Atom  32H    basis set group =>   3
Atom  33H    basis set group =>   3
Atom  34H    basis set group =>   3
Atom  35H    basis set group =>   3
Atom  36H    basis set group =>   3
Atom  37H    basis set group =>   3


           ************************************************************
           *        Program running with 6 parallel MPI-processes     *
           *              working on a common directory               *
           ************************************************************
------------------------------------------------------------------------------
                             ORCA STARTUP CALCULATIONS
                           -- RI-GTO INTEGRALS CHOSEN --
------------------------------------------------------------------------------
------------------------------------------------------------------------------
                   ___                                                        
                  /   \      - P O W E R E D   B Y -                         
                 /     \                                                     
                 |  |  |   _    _      __       _____    __    __             
                 |  |  |  | |  | |    /  \     |  _  \  |  |  /  |          
                  \  \/   | |  | |   /    \    | | | |  |  | /  /          
                 / \  \   | |__| |  /  /\  \   | |_| |  |  |/  /          
                |  |  |   |  __  | /  /__\  \  |    /   |      \           
                |  |  |   | |  | | |   __   |  |    \   |  |\   \          
                \     /   | |  | | |  |  |  |  | |\  \  |  | \   \       
                 \___/    |_|  |_| |__|  |__|  |_| \__\ |__|  \__/        
                                                                              
                      - O R C A' S   B I G   F R I E N D -                    
                                      &                                       
                       - I N T E G R A L  F E E D E R -                       
                                                                              
 v1 FN, 2020, v2 2021, v3 2022-2024                                           
------------------------------------------------------------------------------


----------------------
SHARK INTEGRAL PACKAGE
----------------------

Number of atoms                             ...     38
Number of basis functions                   ...    329
Number of shells                            ...    161
Maximum angular momentum                    ...      2
Integral batch strategy                     ... SHARK/LIBINT Hybrid
RI-J (if used) integral strategy            ... SPLIT-RIJ (Revised 2003 algorithm where possible)
Printlevel                                  ...      1
Contraction scheme used                     ... SEGMENTED contraction
Prescreening option                         ... SCHWARTZ
   Thresh                                   ... 2.500e-11
   Tcut                                     ... 2.500e-12
   Tpresel                                  ... 2.500e-12 
Coulomb Range Separation                    ... NOT USED
Exchange Range Separation                   ... NOT USED
Multipole approximations                    ... NOT USED
Finite Nucleus Model                        ... NOT USED
CABS basis                                  ... NOT available
Auxiliary Coulomb fitting basis             ... AVAILABLE
   # of basis functions in Aux-J            ...    990
   # of shells in Aux-J                     ...    342
   Maximum angular momentum in Aux-J        ...      4
Auxiliary J/K fitting basis                 ... NOT available
Auxiliary Correlation fitting basis         ... NOT available
Auxiliary 'external' fitting basis          ... NOT available

Checking pre-screening integrals            ... done (  0.0 sec) Dimension = 161
Check shell pair data                       ... done (  0.0 sec)
Shell pair information
Shell pair cut-off parameter TPreSel        ...   2.5e-12
Total number of shell pairs                 ...     13041
Shell pairs after pre-screening             ...      9985
Total number of primitive shell pairs       ...     45725
Primitive shell pairs kept                  ...     23250
          la=0 lb=0:   3440 shell pairs
          la=1 lb=0:   3842 shell pairs
          la=1 lb=1:   1073 shell pairs
          la=2 lb=0:   1005 shell pairs
          la=2 lb=1:    550 shell pairs
          la=2 lb=2:     75 shell pairs

Calculating one electron integrals          ... done (  0.0 sec)
Calculating RI/J V-Matrix + Cholesky decomp.... done (  0.0 sec)
Calculating Nuclear repulsion               ... done (  0.0 sec) ENN=   1083.967535955318 Eh

Diagonalization of the overlap matrix:
Smallest eigenvalue                        ... 2.871e-04
Time for diagonalization                   ...    0.013 sec
Threshold for overlap eigenvalues          ... 1.000e-07
Number of eigenvalues below threshold      ... 0
Time for construction of square roots      ...    0.009 sec
Total time needed                          ...    0.023 sec

-------------------
DFT GRID GENERATION
-------------------

General Integration Accuracy     IntAcc      ... 4.388
Radial Grid Type                 RadialGrid  ... OptM3 with GC (2021)
Angular Grid (max. ang.)         AngularGrid ... 4 (Lebedev-302)
Angular grid pruning method      GridPruning ... 4 (adaptive)
Weight generation scheme         WeightScheme... mBecke (2022)
Basis function cutoff            BFCut       ... 1.0000e-11
Integration weight cutoff        WCut        ... 1.0000e-14
Partially contracted basis set               ... off
Rotationally invariant grid construction     ... off
Angular grids for H and He will be reduced by one unit

Total number of grid points                  ...   164048
Total number of batches                      ...     2580
Average number of points per batch           ...       63
Average number of grid points per atom       ...     4317
Initializing property integral containers    ... done (  0.0 sec)

SHARK setup successfully completed in   1.0 seconds

Maximum memory used throughout the entire STARTUP-calculation: 43.9 MB


           ************************************************************
           *        Program running with 6 parallel MPI-processes     *
           *              working on a common directory               *
           ************************************************************
-------------------------------------------------------------------------------
                                 ORCA GUESS
                   Start orbitals & Density for SCF / CASSCF
-------------------------------------------------------------------------------

------------
SCF SETTINGS
------------
Hamiltonian:
 Density Functional     Method          .... DFT(GTOs)
 Exchange Functional    Exchange        .... B88
   X-Alpha parameter    XAlpha          ....  0.666667
   Becke's b parameter  XBeta           ....  0.004200
 Correlation Functional Correlation     .... LYP
 LDA part of GGA corr.  LDAOpt          .... VWN-5
 Gradients option       PostSCFGGA      .... off
 Hybrid DFT is turned on
   Fraction HF Exchange ScalHFX         ....  0.200000
   Scaling of DF-GGA-X  ScalDFX         ....  0.720000
   Scaling of DF-GGA-C  ScalDFC         ....  0.810000
   Scaling of DF-LDA-C  ScalLDAC        ....  1.000000
   Perturbative correction              ....  0.000000
   NL short-range parameter             ....  4.800000
 RI-approximation to the Coulomb term is turned on
   Number of AuxJ basis functions       .... 990
   RIJ-ON(X) (HFX calculated with O(N)) .... on


General Settings:
 Integral files         IntName         .... data/geom_opt/80757/80757
 Hartree-Fock type      HFTyp           .... RHF
 Total Charge           Charge          ....    0
 Multiplicity           Mult            ....    1
 Number of Electrons    NEL             ....  122
 Basis Dimension        Dim             ....  329
 Nuclear Repulsion      ENuc            ....   1083.9675359553 Eh

Convergence Acceleration:
 AO-DIIS                CNVDIIS         .... on
   Start iteration      DIISMaxIt       ....    12
   Startup error        DIISStart       ....  0.200000
   # of expansion vecs  DIISMaxEq       ....     5
   Bias factor          DIISBfac        ....   1.050
   Max. coefficient     DIISMaxC        ....  10.000
 MO-DIIS                CNVKDIIS        .... off
 Trust-Rad. Augm. Hess. CNVTRAH         .... auto
   Auto Start mean grad. ratio tolernc. ....  1.125000
   Auto Start start iteration           ....    50
   Auto Start num. interpolation iter.  ....    10
   Max. Number of Micro iterations      ....    24
   Max. Number of Macro iterations      .... Maxiter - #DIIS iter
   Number of Davidson start vectors     ....     2
   Converg. threshold    (grad. norm)   ....   1.000e-05
   Grad. Scal. Fac. for Micro threshold ....   0.100
   Minimum threshold for Micro iter.    ....   1.000e-02
   NR start threshold (gradient norm)   ....   1.000e-04
   Initial trust radius                 ....   0.400
   Minimum AH scaling param. (alpha)    ....   1.000
   Maximum AH scaling param. (alpha)    .... 1000.000
   Quad. conv. algorithm                .... NR
   White noise on init. David. guess    .... on
   Maximum white noise                  ....   0.010
   Pseudo random numbers                .... off
   Inactive MOs                         .... canonical
   Orbital update algorithm             .... Taylor
   Preconditioner                       .... Diag
   Full preconditioner red. dimension   ....   250
   COSX micro iterations for RIJONX calc.... off
 SOSCF                  CNVSOSCF        .... on
   Start iteration      SOSCFMaxIt      ....   150
   Startup grad/error   SOSCFStart      ....  0.003300
   Hessian update       SOSCFHessUp     .... L-BFGS
 Level Shifting         CNVShift        .... on
   Level shift para.    LevelShift      ....    0.2500
   Turn off err/grad.   ShiftErr        ....    0.0010
 Zerner damping         CNVZerner       .... off
 Static damping         CNVDamp         .... on
   Fraction old density DampFac         ....    0.7000
   Max. Damping (<1)    DampMax         ....    0.9800
   Min. Damping (>=0)   DampMin         ....    0.0000
   Turn off err/grad.   DampErr         ....    0.1000

SCF Procedure:
 Maximum # iterations   MaxIter         ....   125
 SCF integral mode      SCFMode         .... Direct
   Integral package                     .... SHARK and LIBINT hybrid scheme
 Reset frequency        DirectResetFreq ....    20
 Integral Threshold     Thresh          ....  2.500e-11 Eh
 Primitive CutOff       TCut            ....  2.500e-12 Eh

Convergence Tolerance:
 Convergence Check Mode ConvCheckMode   .... Total+1el-Energy
 Convergence forced     ConvForced      .... 0
 Energy Change          TolE            ....  1.000e-08 Eh
 1-El. energy change                    ....  1.000e-05 Eh
 Orbital Gradient       TolG            ....  1.000e-05
 Orbital Rotation angle TolX            ....  1.000e-05
 DIIS Error             TolErr          ....  5.000e-07

------------------------------
INITIAL GUESS: MODEL POTENTIAL
------------------------------
Loading Hartree-Fock densities                     ... done
Calculating cut-offs                               ... done
Initializing the effective Hamiltonian             ... done
Setting up the integral package (SHARK)            ... done
Starting the Coulomb interaction                   ... done (   0.1 sec)
Making the grid                                    ... done (   0.2 sec)
Mapping shells                                     ... done
Starting the XC term evaluation                    ... done (   0.1 sec)
  promolecular density results
     # of electrons  =    121.985509560
     EX              =   -101.470143758
     EC              =     -4.078217859
     EX+EC           =   -105.548361617
Transforming the Hamiltonian                       ... done (   0.0 sec)
Diagonalizing the Hamiltonian                      ... done (   0.0 sec)
Back transforming the eigenvectors                 ... done (   0.0 sec)
Now organizing SCF variables                       ... done
                      ------------------
                      INITIAL GUESS DONE (   0.5 sec)
                      ------------------
             **** ENERGY FILE WAS UPDATED (data/geom_opt/80757/80757.en.tmp) ****
Finished Guess after   0.6 sec
Maximum memory used throughout the entire GUESS-calculation: 23.7 MB


           ************************************************************
           *        Program running with 6 parallel MPI-processes     *
           *              working on a common directory               *
           ************************************************************

-------------------------------------------------------------------------------------------
                                      ORCA LEAN-SCF
                              memory conserving SCF solver
-------------------------------------------------------------------------------------------

----------------------------------------D-I-I-S--------------------------------------------
Iteration    Energy (Eh)           Delta-E    RMSDP     MaxDP     DIISErr   Damp  Time(sec)
-------------------------------------------------------------------------------------------
               ***  Starting incremental Fock matrix formation  ***
    1    -887.3190756902943122     0.00e+00  2.50e-03  7.95e-02  1.74e-01  0.700   3.3
    2    -887.5296025369984818    -2.11e-01  1.80e-03  4.89e-02  9.13e-02  0.700   2.9
                               ***Turning on AO-DIIS***
    3    -887.6172412842186077    -8.76e-02  8.07e-04  3.60e-02  3.46e-02  0.700   2.8
    4    -887.6674298742523206    -5.02e-02  1.50e-03  7.99e-02  1.67e-02  0.000   2.8
    5    -887.7757108560520010    -1.08e-01  2.30e-04  1.23e-02  5.95e-03  0.000   2.8
                              *** Initializing SOSCF ***
---------------------------------------S-O-S-C-F--------------------------------------
Iteration    Energy (Eh)           Delta-E    RMSDP     MaxDP     MaxGrad    Time(sec)
--------------------------------------------------------------------------------------
    6    -887.7764113101156909    -7.00e-04  8.21e-05  1.87e-03  1.56e-03     2.6
               *** Restarting incremental Fock matrix formation ***
    7    -887.7764701956098179    -5.89e-05  5.61e-05  1.79e-03  2.85e-04     3.3
    8    -887.7764706387656588    -4.43e-07  1.78e-05  6.17e-04  4.10e-04     2.5
    9    -887.7764757052043478    -5.07e-06  1.40e-05  8.31e-04  1.52e-04     2.0
   10    -887.7764753876499526     3.18e-07  7.42e-06  3.27e-04  1.50e-04     2.0
   11    -887.7764760722895971    -6.85e-07  1.64e-06  1.33e-04  9.47e-06     1.9
   12    -887.7764760757877411    -3.50e-09  7.62e-07  5.08e-05  1.69e-05     1.6
                 **** Energy Check signals convergence ****

               *****************************************************
               *                     SUCCESS                       *
               *           SCF CONVERGED AFTER  12 CYCLES          *
               *****************************************************

             **** ENERGY FILE WAS UPDATED (data/geom_opt/80757/80757.en.tmp) ****

----------------
TOTAL SCF ENERGY
----------------

Total Energy       :       -887.77647607578774 Eh          -24157.62606 eV

Components:
Nuclear Repulsion  :       1083.96753595531800 Eh           29496.25621 eV
Electronic Energy  :      -1971.74401203110574 Eh          -53653.88228 eV
One Electron Energy:      -3361.36544568285444 Eh          -91467.40389 eV
Two Electron Energy:       1389.62143365174870 Eh           37813.52161 eV

Virial components:
Potential Energy   :      -1768.55021418338447 Eh          -48124.69794 eV
Kinetic Energy     :        880.77373810759673 Eh           23967.07188 eV
Virial Ratio       :          2.00795066617590

DFT components:
N(Alpha)           :       60.999998550186 electrons
N(Beta)            :       60.999998550186 electrons
N(Total)           :      121.999997100373 electrons
E(X)               :      -81.916904167802 Eh       
E(C)               :       -4.816525453595 Eh       
E(XC)              :      -86.733429621397 Eh       

---------------
SCF CONVERGENCE
---------------

  Last Energy change         ...    3.4981e-09  Tolerance :   1.0000e-08
  Last MAX-Density change    ...    5.0823e-05  Tolerance :   1.0000e-07
  Last RMS-Density change    ...    7.6171e-07  Tolerance :   5.0000e-09
  Last DIIS Error            ...    1.5639e-03  Tolerance :   5.0000e-07
  Last Orbital Gradient      ...    1.6895e-05  Tolerance :   1.0000e-05
  Last Orbital Rotation      ...    3.1021e-05  Tolerance :   1.0000e-05


----------------
ORBITAL ENERGIES
----------------

  NO   OCC          E(Eh)            E(eV) 
   0   2.0000     -77.028420     -2096.0499 
   1   2.0000     -10.191244      -277.3179 
   2   2.0000     -10.190277      -277.2915 
   3   2.0000     -10.189691      -277.2756 
   4   2.0000     -10.189140      -277.2606 
   5   2.0000     -10.188298      -277.2377 
   6   2.0000     -10.185341      -277.1572 
   7   2.0000     -10.175008      -276.8761 
   8   2.0000     -10.174991      -276.8756 
   9   2.0000     -10.174139      -276.8524 
  10   2.0000     -10.174137      -276.8524 
  11   2.0000     -10.173155      -276.8256 
  12   2.0000     -10.173153      -276.8256 
  13   2.0000     -10.168340      -276.6946 
  14   2.0000     -10.168339      -276.6946 
  15   2.0000      -6.526448      -177.5937 
  16   2.0000      -4.691987      -127.6754 
  17   2.0000      -4.691612      -127.6653 
  18   2.0000      -4.688685      -127.5856 
  19   2.0000      -0.848059       -23.0769 
  20   2.0000      -0.794033       -21.6067 
  21   2.0000      -0.785863       -21.3844 
  22   2.0000      -0.752554       -20.4780 
  23   2.0000      -0.737783       -20.0761 
  24   2.0000      -0.723292       -19.6818 
  25   2.0000      -0.711683       -19.3659 
  26   2.0000      -0.647466       -17.6184 
  27   2.0000      -0.608902       -16.5691 
  28   2.0000      -0.602906       -16.4059 
  29   2.0000      -0.596325       -16.2268 
  30   2.0000      -0.571772       -15.5587 
  31   2.0000      -0.565878       -15.3983 
  32   2.0000      -0.540363       -14.7040 
  33   2.0000      -0.500291       -13.6136 
  34   2.0000      -0.472280       -12.8514 
  35   2.0000      -0.468423       -12.7464 
  36   2.0000      -0.452891       -12.3238 
  37   2.0000      -0.446051       -12.1377 
  38   2.0000      -0.427578       -11.6350 
  39   2.0000      -0.427275       -11.6267 
  40   2.0000      -0.426023       -11.5927 
  41   2.0000      -0.418088       -11.3767 
  42   2.0000      -0.410575       -11.1723 
  43   2.0000      -0.397898       -10.8274 
  44   2.0000      -0.397105       -10.8058 
  45   2.0000      -0.378491       -10.2993 
  46   2.0000      -0.372015       -10.1231 
  47   2.0000      -0.360322        -9.8049 
  48   2.0000      -0.354550        -9.6478 
  49   2.0000      -0.346985        -9.4419 
  50   2.0000      -0.346352        -9.4247 
  51   2.0000      -0.341047        -9.2804 
  52   2.0000      -0.335984        -9.1426 
  53   2.0000      -0.331274        -9.0144 
  54   2.0000      -0.323706        -8.8085 
  55   2.0000      -0.321607        -8.7514 
  56   2.0000      -0.310209        -8.4412 
  57   2.0000      -0.290722        -7.9109 
  58   2.0000      -0.255827        -6.9614 
  59   2.0000      -0.252248        -6.8640 
  60   2.0000      -0.215766        -5.8713 
  61   0.0000      -0.021636        -0.5887 
  62   0.0000      -0.009651        -0.2626 
  63   0.0000       0.055816         1.5188 
  64   0.0000       0.061483         1.6730 
  65   0.0000       0.063111         1.7173 
  66   0.0000       0.072469         1.9720 
  67   0.0000       0.079747         2.1700 
  68   0.0000       0.084271         2.2931 
  69   0.0000       0.096655         2.6301 
  70   0.0000       0.101160         2.7527 
  71   0.0000       0.105442         2.8692 
*Only the first 10 virtual orbitals were printed.

                    ********************************
                    * MULLIKEN POPULATION ANALYSIS *
                    ********************************

-----------------------
MULLIKEN ATOMIC CHARGES
-----------------------
   0 C :    0.033847
   1 C :   -0.015236
   2 C :    0.029317
   3 C :   -0.111178
   4 P :    0.201972
   5 C :   -0.111255
   6 C :    0.029241
   7 C :   -0.015232
   8 C :    0.033863
   9 C :   -0.123359
  10 C :    0.013102
  11 C :    0.025549
  12 C :    0.028017
  13 C :    0.022478
  14 C :    0.022764
  15 H :    0.002499
  16 H :    0.003606
  17 H :    0.002932
  18 H :   -0.007540
  19 H :   -0.007048
  20 H :    0.004897
  21 H :   -0.000442
  22 H :    0.004243
  23 H :    0.018484
  24 H :    0.004239
  25 H :    0.018506
  26 H :    0.004933
  27 H :   -0.000409
  28 H :   -0.007030
  29 H :   -0.007551
  30 H :    0.002489
  31 H :    0.002930
  32 H :    0.003613
  33 H :   -0.023214
  34 H :   -0.023012
  35 H :   -0.018937
  36 H :   -0.019498
  37 H :   -0.022578
Sum of atomic charges:   -0.0000000

--------------------------------
MULLIKEN REDUCED ORBITAL CHARGES
--------------------------------
  0 C s       :     2.967829  s :     2.967829
      pz      :     0.995130  p :     2.968495
      px      :     0.980938
      py      :     0.992428
      dz2     :     0.007965  d :     0.029829
      dxz     :     0.005605
      dyz     :     0.002861
      dx2y2   :     0.007380
      dxy     :     0.006018

  1 C s       :     3.021089  s :     3.021089
      pz      :     0.991912  p :     2.956252
      px      :     0.969141
      py      :     0.995200
      dz2     :     0.010921  d :     0.037894
      dxz     :     0.006306
      dyz     :     0.003164
      dx2y2   :     0.010523
      dxy     :     0.006980

  2 C s       :     3.000063  s :     3.000063
      pz      :     0.995577  p :     2.933386
      px      :     0.933318
      py      :     1.004490
      dz2     :     0.010669  d :     0.037234
      dxz     :     0.006158
      dyz     :     0.003202
      dx2y2   :     0.010250
      dxy     :     0.006956

  3 C s       :     3.055900  s :     3.055900
      pz      :     1.007027  p :     3.024300
      px      :     0.998644
      py      :     1.018629
      dz2     :     0.009348  d :     0.030978
      dxz     :     0.005689
      dyz     :     0.002701
      dx2y2   :     0.007812
      dxy     :     0.005428

  4 P s       :     5.755775  s :     5.755775
      pz      :     3.333546  p :     8.867275
      px      :     2.781514
      py      :     2.752215
      dz2     :     0.015283  d :     0.174978
      dxz     :     0.035855
      dyz     :     0.038365
      dx2y2   :     0.040564
      dxy     :     0.044910

  5 C s       :     3.055818  s :     3.055818
      pz      :     1.007182  p :     3.024459
      px      :     0.998401
      py      :     1.018875
      dz2     :     0.010040  d :     0.030978
      dxz     :     0.005181
      dyz     :     0.002604
      dx2y2   :     0.007910
      dxy     :     0.005244

  6 C s       :     3.000112  s :     3.000112
      pz      :     0.995991  p :     2.933412
      px      :     0.933231
      py      :     1.004190
      dz2     :     0.011113  d :     0.037235
      dxz     :     0.005879
      dyz     :     0.002810
      dx2y2   :     0.010201
      dxy     :     0.007232

  7 C s       :     3.021079  s :     3.021079
      pz      :     0.993730  p :     2.956258
      px      :     0.966108
      py      :     0.996421
      dz2     :     0.011397  d :     0.037894
      dxz     :     0.005960
      dyz     :     0.002793
      dx2y2   :     0.010490
      dxy     :     0.007254

  8 C s       :     2.967810  s :     2.967810
      pz      :     0.995208  p :     2.968499
      px      :     0.980952
      py      :     0.992339
      dz2     :     0.009315  d :     0.029829
      dxz     :     0.004476
      dyz     :     0.002467
      dx2y2   :     0.007628
      dxy     :     0.005942

  9 C s       :     3.081478  s :     3.081478
      pz      :     0.989209  p :     3.005078
      px      :     1.000558
      py      :     1.015311
      dz2     :     0.010086  d :     0.036802
      dxz     :     0.005676
      dyz     :     0.012632
      dx2y2   :     0.004697
      dxy     :     0.003712

 10 C s       :     3.209474  s :     3.209474
      pz      :     0.922370  p :     2.742175
      px      :     0.971220
      py      :     0.848585
      dz2     :     0.008687  d :     0.035249
      dxz     :     0.004922
      dyz     :     0.013568
      dx2y2   :     0.004325
      dxy     :     0.003747

 11 C s       :     3.158325  s :     3.158325
      pz      :     0.830676  p :     2.780944
      px      :     0.987286
      py      :     0.962982
      dz2     :     0.009977  d :     0.035182
      dxz     :     0.002409
      dyz     :     0.010806
      dx2y2   :     0.005715
      dxy     :     0.006275

 12 C s       :     3.157610  s :     3.157610
      pz      :     0.943001  p :     2.778929
      px      :     0.976749
      py      :     0.859179
      dz2     :     0.009818  d :     0.035444
      dxz     :     0.005739
      dyz     :     0.012218
      dx2y2   :     0.004571
      dxy     :     0.003097

 13 C s       :     3.160301  s :     3.160301
      pz      :     0.917688  p :     2.782177
      px      :     0.984826
      py      :     0.879663
      dz2     :     0.009067  d :     0.035045
      dxz     :     0.004947
      dyz     :     0.012931
      dx2y2   :     0.004458
      dxy     :     0.003643

 14 C s       :     3.223732  s :     3.223732
      pz      :     0.834044  p :     2.718349
      px      :     0.963523
      py      :     0.920781
      dz2     :     0.010016  d :     0.035156
      dxz     :     0.002307
      dyz     :     0.010672
      dx2y2   :     0.005775
      dxy     :     0.006386

 15 H s       :     0.974297  s :     0.974297
      pz      :     0.007127  p :     0.023204
      px      :     0.008550
      py      :     0.007527

 16 H s       :     0.972997  s :     0.972997
      pz      :     0.005846  p :     0.023397
      px      :     0.004445
      py      :     0.013106

 17 H s       :     0.973674  s :     0.973674
      pz      :     0.013536  p :     0.023394
      px      :     0.004776
      py      :     0.005083

 18 H s       :     0.985187  s :     0.985187
      pz      :     0.013484  p :     0.022353
      px      :     0.004235
      py      :     0.004633

 19 H s       :     0.984703  s :     0.984703
      pz      :     0.005341  p :     0.022345
      px      :     0.004060
      py      :     0.012943

 20 H s       :     0.972557  s :     0.972557
      pz      :     0.005437  p :     0.022546
      px      :     0.003903
      py      :     0.013206

 21 H s       :     0.978232  s :     0.978232
      pz      :     0.013634  p :     0.022210
      px      :     0.003962
      py      :     0.004614

 22 H s       :     0.972757  s :     0.972757
      pz      :     0.013606  p :     0.023000
      px      :     0.004529
      py      :     0.004865

 23 H s       :     0.958388  s :     0.958388
      pz      :     0.005661  p :     0.023129
      px      :     0.004336
      py      :     0.013132

 24 H s       :     0.972762  s :     0.972762
      pz      :     0.013854  p :     0.022999
      px      :     0.004346
      py      :     0.004799

 25 H s       :     0.958368  s :     0.958368
      pz      :     0.005591  p :     0.023126
      px      :     0.004367
      py      :     0.013167

 26 H s       :     0.972523  s :     0.972523
      pz      :     0.005420  p :     0.022544
      px      :     0.003858
      py      :     0.013266

 27 H s       :     0.978199  s :     0.978199
      pz      :     0.013867  p :     0.022210
      px      :     0.003729
      py      :     0.004613

 28 H s       :     0.984686  s :     0.984686
      pz      :     0.005364  p :     0.022343
      px      :     0.003985
      py      :     0.012994

 29 H s       :     0.985199  s :     0.985199
      pz      :     0.013703  p :     0.022352
      px      :     0.004001
      py      :     0.004648

 30 H s       :     0.974307  s :     0.974307
      pz      :     0.006202  p :     0.023204
      px      :     0.010096
      py      :     0.006906

 31 H s       :     0.973676  s :     0.973676
      pz      :     0.013884  p :     0.023394
      px      :     0.004512
      py      :     0.004997

 32 H s       :     0.972990  s :     0.972990
      pz      :     0.005662  p :     0.023397
      px      :     0.004524
      py      :     0.013211

 33 H s       :     1.000028  s :     1.000028
      pz      :     0.007539  p :     0.023186
      px      :     0.004959
      py      :     0.010688

 34 H s       :     1.000023  s :     1.000023
      pz      :     0.014689  p :     0.022990
      px      :     0.004774
      py      :     0.003527

 35 H s       :     0.995976  s :     0.995976
      pz      :     0.005356  p :     0.022961
      px      :     0.004663
      py      :     0.012942

 36 H s       :     0.996506  s :     0.996506
      pz      :     0.007317  p :     0.022992
      px      :     0.004780
      py      :     0.010894

 37 H s       :     0.999480  s :     0.999480
      pz      :     0.014954  p :     0.023098
      px      :     0.004606
      py      :     0.003538



                     *******************************
                     * LOEWDIN POPULATION ANALYSIS *
                     *******************************

----------------------
LOEWDIN ATOMIC CHARGES
----------------------
   0 C :   -0.053163
   1 C :   -0.034648
   2 C :   -0.040989
   3 C :   -0.172140
   4 P :    0.471921
   5 C :   -0.172168
   6 C :   -0.040995
   7 C :   -0.034650
   8 C :   -0.053163
   9 C :   -0.180986
  10 C :   -0.025492
  11 C :   -0.025111
  12 C :   -0.019429
  13 C :   -0.025014
  14 C :   -0.024845
  15 H :    0.020044
  16 H :    0.019396
  17 H :    0.019252
  18 H :    0.015959
  19 H :    0.015907
  20 H :    0.018558
  21 H :    0.017723
  22 H :    0.008742
  23 H :    0.020321
  24 H :    0.008737
  25 H :    0.020330
  26 H :    0.018569
  27 H :    0.017731
  28 H :    0.015913
  29 H :    0.015956
  30 H :    0.020042
  31 H :    0.019252
  32 H :    0.019397
  33 H :    0.019715
  34 H :    0.024771
  35 H :    0.025795
  36 H :    0.025893
  37 H :    0.022865

-------------------------------
LOEWDIN REDUCED ORBITAL CHARGES
-------------------------------
  0 C s       :     2.835418  s :     2.835418
      pz      :     1.059274  p :     3.143578
      px      :     1.027580
      py      :     1.056724
      dz2     :     0.020302  d :     0.074167
      dxz     :     0.012915
      dyz     :     0.007202
      dx2y2   :     0.019082
      dxy     :     0.014665

  1 C s       :     2.836922  s :     2.836922
      pz      :     1.047698  p :     3.106190
      px      :     1.014799
      py      :     1.043694
      dz2     :     0.026610  d :     0.091535
      dxz     :     0.014545
      dyz     :     0.007851
      dx2y2   :     0.025570
      dxy     :     0.016959

  2 C s       :     2.839410  s :     2.839410
      pz      :     1.052951  p :     3.110747
      px      :     1.007978
      py      :     1.049818
      dz2     :     0.026127  d :     0.090831
      dxz     :     0.014257
      dyz     :     0.007905
      dx2y2   :     0.025654
      dxy     :     0.016888

  3 C s       :     2.891530  s :     2.891530
      pz      :     1.078977  p :     3.204814
      px      :     1.054105
      py      :     1.071732
      dz2     :     0.023416  d :     0.075796
      dxz     :     0.012912
      dyz     :     0.006732
      dx2y2   :     0.019871
      dxy     :     0.012865

  4 P s       :     5.280146  s :     5.280146
      pz      :     3.422426  p :     9.011734
      px      :     2.801559
      py      :     2.787749
      dz2     :     0.021441  d :     0.236199
      dxz     :     0.045340
      dyz     :     0.051422
      dx2y2   :     0.055994
      dxy     :     0.062002

  5 C s       :     2.891524  s :     2.891524
      pz      :     1.075292  p :     3.204849
      px      :     1.060205
      py      :     1.069352
      dz2     :     0.024628  d :     0.075796
      dxz     :     0.012241
      dyz     :     0.006289
      dx2y2   :     0.019782
      dxy     :     0.012856

  6 C s       :     2.839410  s :     2.839410
      pz      :     1.052476  p :     3.110754
      px      :     1.008946
      py      :     1.049332
      dz2     :     0.027380  d :     0.090831
      dxz     :     0.013570
      dyz     :     0.006755
      dx2y2   :     0.025315
      dxy     :     0.017811

  7 C s       :     2.836922  s :     2.836922
      pz      :     1.048740  p :     3.106194
      px      :     1.013264
      py      :     1.044190
      dz2     :     0.027842  d :     0.091535
      dxz     :     0.013835
      dyz     :     0.006722
      dx2y2   :     0.025203
      dxy     :     0.017933

  8 C s       :     2.835417  s :     2.835417
      pz      :     1.057287  p :     3.143579
      px      :     1.031208
      py      :     1.055084
      dz2     :     0.023197  d :     0.074167
      dxz     :     0.010724
      dyz     :     0.006137
      dx2y2   :     0.019191
      dxy     :     0.014917

  9 C s       :     2.912075  s :     2.912075
      pz      :     1.096617  p :     3.175809
      px      :     0.982835
      py      :     1.096356
      dz2     :     0.028236  d :     0.093102
      dxz     :     0.012034
      dyz     :     0.035045
      dx2y2   :     0.010915
      dxy     :     0.006873

 10 C s       :     2.863065  s :     2.863065
      pz      :     1.061695  p :     3.069959
      px      :     0.960598
      py      :     1.047666
      dz2     :     0.024990  d :     0.092468
      dxz     :     0.010337
      dyz     :     0.038310
      dx2y2   :     0.011452
      dxy     :     0.007379

 11 C s       :     2.860531  s :     2.860531
      pz      :     1.036958  p :     3.073327
      px      :     0.968594
      py      :     1.067775
      dz2     :     0.026397  d :     0.091253
      dxz     :     0.004177
      dyz     :     0.031000
      dx2y2   :     0.016153
      dxy     :     0.013525

 12 C s       :     2.859946  s :     2.859946
      pz      :     1.065406  p :     3.067681
      px      :     0.959067
      py      :     1.043208
      dz2     :     0.027970  d :     0.091802
      dxz     :     0.012279
      dyz     :     0.034150
      dx2y2   :     0.011576
      dxy     :     0.005827

 13 C s       :     2.860560  s :     2.860560
      pz      :     1.057991  p :     3.073524
      px      :     0.967054
      py      :     1.048479
      dz2     :     0.025898  d :     0.090930
      dxz     :     0.010331
      dyz     :     0.035828
      dx2y2   :     0.011699
      dxy     :     0.007174

 14 C s       :     2.867913  s :     2.867913
      pz      :     1.042158  p :     3.065105
      px      :     0.953795
      py      :     1.069152
      dz2     :     0.027002  d :     0.091827
      dxz     :     0.004042
      dyz     :     0.030297
      dx2y2   :     0.016729
      dxy     :     0.013757

 15 H s       :     0.915060  s :     0.915060
      pz      :     0.018834  p :     0.064896
      px      :     0.025672
      py      :     0.020390

 16 H s       :     0.915879  s :     0.915879
      pz      :     0.014391  p :     0.064725
      px      :     0.013114
      py      :     0.037220

 17 H s       :     0.916021  s :     0.916021
      pz      :     0.038354  p :     0.064727
      px      :     0.013949
      py      :     0.012424

 18 H s       :     0.919068  s :     0.919068
      pz      :     0.038793  p :     0.064973
      px      :     0.013648
      py      :     0.012532

 19 H s       :     0.919191  s :     0.919191
      pz      :     0.014241  p :     0.064902
      px      :     0.013013
      py      :     0.037647

 20 H s       :     0.915357  s :     0.915357
      pz      :     0.014405  p :     0.066085
      px      :     0.012878
      py      :     0.038801

 21 H s       :     0.916601  s :     0.916601
      pz      :     0.039778  p :     0.065676
      px      :     0.013211
      py      :     0.012687

 22 H s       :     0.920539  s :     0.920539
      pz      :     0.042006  p :     0.070719
      px      :     0.015081
      py      :     0.013633

 23 H s       :     0.910591  s :     0.910591
      pz      :     0.014766  p :     0.069088
      px      :     0.014408
      py      :     0.039914

 24 H s       :     0.920542  s :     0.920542
      pz      :     0.042268  p :     0.070720
      px      :     0.015013
      py      :     0.013439

 25 H s       :     0.910582  s :     0.910582
      pz      :     0.014533  p :     0.069088
      px      :     0.014682
      py      :     0.039873

 26 H s       :     0.915345  s :     0.915345
      pz      :     0.014231  p :     0.066085
      px      :     0.012827
      py      :     0.039027

 27 H s       :     0.916593  s :     0.916593
      pz      :     0.040525  p :     0.065676
      px      :     0.012515
      py      :     0.012636

 28 H s       :     0.919185  s :     0.919185
      pz      :     0.014165  p :     0.064901
      px      :     0.012914
      py      :     0.037822

 29 H s       :     0.919071  s :     0.919071
      pz      :     0.039465  p :     0.064973
      px      :     0.012984
      py      :     0.012524

 30 H s       :     0.915062  s :     0.915062
      pz      :     0.016306  p :     0.064895
      px      :     0.029869
[...]
      dx2y2   :     0.016062
      dxy     :     0.013566

 12 C s       :     2.864327  s :     2.864327
      pz      :     1.063019  p :     3.067302
      px      :     0.962487
      py      :     1.041796
      dz2     :     0.027215  d :     0.089949
      dxz     :     0.011902
      dyz     :     0.033687
      dx2y2   :     0.011321
      dxy     :     0.005825

 13 C s       :     2.863871  s :     2.863871
      pz      :     1.057392  p :     3.072351
      px      :     0.967875
      py      :     1.047084
      dz2     :     0.025761  d :     0.089920
      dxz     :     0.010389
      dyz     :     0.035115
      dx2y2   :     0.011608
      dxy     :     0.007048

 14 C s       :     2.869882  s :     2.869882
      pz      :     1.041280  p :     3.068314
      px      :     0.957092
      py      :     1.069943
      dz2     :     0.026639  d :     0.091364
      dxz     :     0.004006
      dyz     :     0.030325
      dx2y2   :     0.016685
      dxy     :     0.013709

 15 H s       :     0.914301  s :     0.914301
      pz      :     0.019190  p :     0.063647
      px      :     0.025569
      py      :     0.018888

 16 H s       :     0.915563  s :     0.915563
      pz      :     0.014089  p :     0.063472
      px      :     0.012210
      py      :     0.037173

 17 H s       :     0.915870  s :     0.915870
      pz      :     0.037428  p :     0.063452
      px      :     0.013936
      py      :     0.012087

 18 H s       :     0.919426  s :     0.919426
      pz      :     0.037851  p :     0.063516
      px      :     0.013439
      py      :     0.012226

 19 H s       :     0.919584  s :     0.919584
      pz      :     0.013945  p :     0.063453
      px      :     0.012162
      py      :     0.037346

 20 H s       :     0.914724  s :     0.914724
      pz      :     0.014150  p :     0.065087
      px      :     0.012207
      py      :     0.038730

 21 H s       :     0.917183  s :     0.917183
      pz      :     0.038863  p :     0.064442
      px      :     0.013122
      py      :     0.012457

 22 H s       :     0.920340  s :     0.920340
      pz      :     0.041121  p :     0.069100
      px      :     0.014831
      py      :     0.013148

 23 H s       :     0.912176  s :     0.912176
      pz      :     0.014707  p :     0.067903
      px      :     0.013871
      py      :     0.039324

 24 H s       :     0.920377  s :     0.920377
      pz      :     0.041845  p :     0.069092
      px      :     0.014242
      py      :     0.013004

 25 H s       :     0.912111  s :     0.912111
      pz      :     0.014604  p :     0.067911
      px      :     0.014256
      py      :     0.039051

 26 H s       :     0.914674  s :     0.914674
      pz      :     0.014291  p :     0.065119
      px      :     0.012308
      py      :     0.038520

 27 H s       :     0.917143  s :     0.917143
      pz      :     0.039896  p :     0.064439
      px      :     0.012104
      py      :     0.012439

 28 H s       :     0.919573  s :     0.919573
      pz      :     0.014113  p :     0.063451
      px      :     0.012222
      py      :     0.037116

 29 H s       :     0.919470  s :     0.919470
      pz      :     0.038930  p :     0.063513
      px      :     0.012365
      py      :     0.012218

 30 H s       :     0.914309  s :     0.914309
      pz      :     0.016312  p :     0.063647
      px      :     0.029957
      py      :     0.017378

 31 H s       :     0.915864  s :     0.915864
      pz      :     0.038926  p :     0.063455
      px      :     0.012445
      py      :     0.012084

 32 H s       :     0.915556  s :     0.915556
      pz      :     0.014254  p :     0.063476
      px      :     0.012092
      py      :     0.037130

 33 H s       :     0.911976  s :     0.911976
      pz      :     0.021093  p :     0.067489
      px      :     0.014394
      py      :     0.032001

 34 H s       :     0.907309  s :     0.907309
      pz      :     0.041262  p :     0.066535
      px      :     0.014194
      py      :     0.011080

 35 H s       :     0.906672  s :     0.906672
      pz      :     0.016586  p :     0.066477
      px      :     0.013891
      py      :     0.036000

 36 H s       :     0.906377  s :     0.906377
      pz      :     0.020816  p :     0.066534
      px      :     0.014171
      py      :     0.031547

 37 H s       :     0.909262  s :     0.909262
      pz      :     0.042754  p :     0.067577
      px      :     0.013862
      py      :     0.010960



                      *****************************
                      * MAYER POPULATION ANALYSIS *
                      *****************************

  NA   - Mulliken gross atomic population
  ZA   - Total nuclear charge
  QA   - Mulliken gross atomic charge
  VA   - Mayer's total valence
  BVA  - Mayer's bonded valence
  FA   - Mayer's free valence

  ATOM       NA         ZA         QA         VA         BVA        FA
  0 C      5.9799     6.0000     0.0201     4.0144     4.0144    -0.0000
  1 C      6.0131     6.0000    -0.0131     4.1221     4.1221    -0.0000
  2 C      5.9757     6.0000     0.0243     4.0377     4.0377    -0.0000
  3 C      6.1249     6.0000    -0.1249     3.9203     3.9203    -0.0000
  4 P     14.7804    15.0000     0.2196     2.9873     2.9873    -0.0000
  5 C      6.1253     6.0000    -0.1253     3.9205     3.9205    -0.0000
  6 C      5.9760     6.0000     0.0240     4.0378     4.0378    -0.0000
  7 C      6.0131     6.0000    -0.0131     4.1221     4.1221    -0.0000
  8 C      5.9799     6.0000     0.0201     4.0144     4.0144    -0.0000
  9 C      6.1413     6.0000    -0.1413     3.7626     3.7626    -0.0000
 10 C      5.9882     6.0000     0.0118     3.8755     3.8755    -0.0000
 11 C      5.9766     6.0000     0.0234     3.8532     3.8532    -0.0000
 12 C      5.9777     6.0000     0.0223     3.8301     3.8301    -0.0000
 13 C      5.9786     6.0000     0.0214     3.8373     3.8373    -0.0000
 14 C      5.9795     6.0000     0.0205     3.8763     3.8763    -0.0000
 15 H      0.9924     1.0000     0.0076     0.9817     0.9817    -0.0000
 16 H      0.9929     1.0000     0.0071     0.9881     0.9881    -0.0000
 17 H      0.9939     1.0000     0.0061     0.9879     0.9879    -0.0000
 18 H      1.0057     1.0000    -0.0057     0.9773     0.9773    -0.0000
 19 H      1.0051     1.0000    -0.0051     0.9762     0.9762    -0.0000
 20 H      0.9906     1.0000     0.0094     0.9906     0.9906    -0.0000
 21 H      0.9992     1.0000     0.0008     0.9847     0.9847    -0.0000
 22 H      0.9910     1.0000     0.0090     0.9909     0.9909    -0.0000
 23 H      0.9783     1.0000     0.0217     0.9801     0.9801    -0.0000
 24 H      0.9909     1.0000     0.0091     0.9907     0.9907    -0.0000
 25 H      0.9782     1.0000     0.0218     0.9801     0.9801    -0.0000
 26 H      0.9904     1.0000     0.0096     0.9908     0.9908    -0.0000
 27 H      0.9991     1.0000     0.0009     0.9846     0.9846    -0.0000
 28 H      1.0050     1.0000    -0.0050     0.9761     0.9761    -0.0000
 29 H      1.0058     1.0000    -0.0058     0.9773     0.9773    -0.0000
 30 H      0.9924     1.0000     0.0076     0.9817     0.9817    -0.0000
 31 H      0.9939     1.0000     0.0061     0.9879     0.9879    -0.0000
 32 H      0.9929     1.0000     0.0071     0.9882     0.9882    -0.0000
 33 H      1.0212     1.0000    -0.0212     0.9858     0.9858    -0.0000
 34 H      1.0194     1.0000    -0.0194     0.9770     0.9770    -0.0000
 35 H      1.0152     1.0000    -0.0152     0.9773     0.9773     0.0000
 36 H      1.0160     1.0000    -0.0160     0.9775     0.9775    -0.0000
 37 H      1.0203     1.0000    -0.0203     0.9955     0.9955    -0.0000

  Mayer bond orders larger than 0.100000
B(  0-C ,  1-C ) :   1.1072 B(  0-C , 15-H ) :   0.9650 B(  0-C , 16-H ) :   0.9686 
B(  0-C , 17-H ) :   0.9686 B(  1-C ,  2-C ) :   1.0876 B(  1-C , 18-H ) :   0.9440 
B(  1-C , 19-H ) :   0.9454 B(  2-C ,  3-C ) :   1.0568 B(  2-C , 20-H ) :   0.9419 
B(  2-C , 21-H ) :   0.9386 B(  3-C ,  4-P ) :   0.9673 B(  3-C , 22-H ) :   0.9247 
B(  3-C , 23-H ) :   0.9383 B(  4-P ,  5-C ) :   0.9672 B(  4-P ,  9-C ) :   0.9138 
B(  5-C ,  6-C ) :   1.0568 B(  5-C , 24-H ) :   0.9246 B(  5-C , 25-H ) :   0.9383 
B(  6-C ,  7-C ) :   1.0876 B(  6-C , 26-H ) :   0.9420 B(  6-C , 27-H ) :   0.9386 
B(  7-C ,  8-C ) :   1.1071 B(  7-C , 28-H ) :   0.9454 B(  7-C , 29-H ) :   0.9440 
B(  8-C , 30-H ) :   0.9650 B(  8-C , 31-H ) :   0.9686 B(  8-C , 32-H ) :   0.9686 
B(  9-C , 10-C ) :   1.3502 B(  9-C , 14-C ) :   1.3993 B( 10-C , 11-C ) :   1.4130 
B( 10-C , 33-H ) :   0.9788 B( 11-C , 12-C ) :   1.3707 B( 11-C , 34-H ) :   0.9830 
B( 12-C , 13-C ) :   1.3924 B( 12-C , 35-H ) :   0.9843 B( 13-C , 14-C ) :   1.3779 
B( 13-C , 36-H ) :   0.9858 B( 14-C , 37-H ) :   0.9849 

-------
TIMINGS
-------

Total SCF time: 0 days 0 hours 0 min 13 sec 

Total time                  ....      13.590 sec
Sum of individual times     ....      13.519 sec  ( 99.5%)

SCF preparation             ....       0.107 sec  (  0.8%)
Fock matrix formation       ....      13.054 sec  ( 96.1%)
  Startup                   ....       0.017 sec  (  0.1% of F)
  Exchange formation        ....       9.623 sec  ( 73.7% of F)
  Split-RI-J                ....       1.202 sec  (  9.2% of F)
  XC integration            ....       2.136 sec  ( 16.4% of F)
    Basis function eval.    ....       0.632 sec  ( 29.6% of XC)
    Density eval.           ....       0.614 sec  ( 28.7% of XC)
    XC-Functional eval.     ....       0.061 sec  (  2.9% of XC)
    XC-Potential eval.      ....       0.443 sec  ( 20.7% of XC)
Diagonalization             ....       0.000 sec  (  0.0%)
Density matrix formation    ....       0.039 sec  (  0.3%)
Total Energy calculation    ....       0.016 sec  (  0.1%)
Population analysis         ....       0.082 sec  (  0.6%)
Orbital Transformation      ....       0.031 sec  (  0.2%)
Orbital Orthonormalization  ....       0.000 sec  (  0.0%)
DIIS solution               ....       0.038 sec  (  0.3%)
SOSCF solution              ....       0.152 sec  (  1.1%)
Finished LeanSCF after  13.6 sec

Maximum memory used throughout the entire LEANSCF-calculation: 34.6 MB


-------------------------------------------------------------------------------
                          DFT DISPERSION CORRECTION                            
                                                                               
                              DFTD3 V3.1  Rev 1                                
                          USING Becke-Johnson damping                          
-------------------------------------------------------------------------------
The B3LYP functional is recognized
Active option DFTDOPT                   ...         4   

molecular C6(AA) [au] = 13626.313276 


            DFT-D V3
 parameters
 s6 scaling factor         :     1.0000 
 a1 scaling factor         :     0.3981 
 s8 scaling factor         :     1.9889 
 a2 scaling factor         :     4.4211 
 ad hoc parameters k1-k3   :    16.0000     1.3333    -4.0000 

 Edisp/kcal,au: -44.914509472719  -0.071575819232 
 E6   /kcal   : -21.217696044 
 E8   /kcal   : -23.696813429 
 % E8         :  52.759817946 

-------------------------   ----------------
Dispersion correction           -0.071575819
-------------------------   ----------------


-------------------------   --------------------
FINAL SINGLE POINT ENERGY      -887.851724603237
-------------------------   --------------------

                                *** OPTIMIZATION RUN DONE ***



           ************************************************************
           *        Program running with 6 parallel MPI-processes     *
           *              working on a common directory               *
           ************************************************************

------------------------------------------------------------------------------
                              ORCA PROPERTY CALCULATIONS
------------------------------------------------------------------------------

GBWName                                 ... data/geom_opt/80757/80757.gbw
Number of atoms                         ...     38
Number of basis functions               ...    329
Max core memory                         ...   1024 MB

Electric properties:
Dipole moment                           ... YES
Quadrupole moment                       ...  NO
Static polarizability (Dipole/Dipole)   ...  NO
Static polarizability (Dipole/Quad.)    ...  NO
Static polarizability (Quad./Quad.)     ...  NO
Static polarizability (Velocity)        ...  NO

Atomic electric properties:
Dipole moment                           ...  NO
Quadrupole moment                       ...  NO
Static polarizability                   ...  NO

Choice of electric origin               ... Center of mass
Position of electric origin             ...     0.033974    -0.426099    -0.190156

General magnetic properties:
Magnetizability                         ...  NO

EPR properties:
g-Tensor (aka g-matrix)                 ...  NO
Zero-Field splitting spin-orbit         ...  NO
Zero-field splitting spin-spin          ...  NO
Hyperfine couplings                     ...  NO (   0 nuclei)
Quadrupole couplings                    ...  NO (   0 nuclei)
Contact density                         ...  NO (   0 nuclei)

NMR properties:
Chemical shifts                         ...  NO (   0 nuclei)
Spin-rotation constants                 ...  NO (   0 nuclei)
Spin-spin couplings                     ...  NO (   0 nuclei,    0 pairs)

Choice of magnetic origin               ... GIAO
Position of magnetic origin             ...     0.000000     0.000000     0.000000

Properties with geometric perturbations:
SCF Hessian                             ...  NO
IR spectrum                             ...  NO
VCD spectrum                            ...  NO
X-ray spectroscopy properties:
SCF XES/XAS/RIXS spectra                ...  NO


-------------
DIPOLE MOMENT
-------------

Method             : SCF
Type of density    : Electron Density
Multiplicity       :   1
Irrep              :   0
Energy             :  -887.7801487840049504 Eh
Relativity type    : 
Basis              : AO
                                X                 Y                 Z
Electronic contribution:      0.631925059      -9.334698623      -3.193101335
Nuclear contribution   :     -0.667119150       9.303548331       3.654186543
                        -----------------------------------------
Total Dipole Moment    :     -0.035194091      -0.031150292       0.461085208
                        -----------------------------------------
Magnitude (a.u.)       :      0.463474415
Magnitude (Debye)      :      1.178058342



--------------------
Rotational spectrum 
--------------------
 
Rotational constants in cm-1:             0.019671             0.009818             0.007321 
Rotational constants in MHz :           589.726589           294.333893           219.463112 

Dipole components along the rotational axes: 
x,y,z [a.u.] :    -0.002033    -0.120252     0.447598 
x,y,z [Debye]:    -0.005168    -0.305657     1.137703 

 

Dipole moment calculation done in   0.0 sec 

Maximum memory used throughout the entire PROP-calculation: 16.9 MB

--------------------------------
SUGGESTED CITATIONS FOR THIS RUN
--------------------------------

Below you find a list of papers that are relevant to this ORCA run
We neither can nor want to force you to cite these papers, but we appreciate if you do
You receive ORCA, which is the product of decades of hard work by many enthusiastic individuals, for free
The only thing we kindly ask in return is that you cite our papers,
We deeply appreciate it, if you show your appreciation for ORCA by not just citing the generic ORCA reference.

Please note that relegating all ORCA citations to the supporting information does *not* help us.
SI sections are not indexed - citations you put there will not count into any citation statistics
But we need these citations in order to attract the funding resources that allow us to do what we are doing

Therefore, if you are a happy ORCA user, please consider citing a few of the papers listed below in the main body of your paper

In addition to the list printed below, the program has created the file data/geom_opt/80757/80757.bibtex that contains the list in bibtex format
You can import this file easily into all common literature databanks and citation aid programs


List of essential papers. We consider these as the minimum necessary citations

  1. Neese,F.
     Software update: the ORCA program system, version 5.0
     WIRES Comput. Molec. Sci., 2022 12(1)e1606
     doi.org/10.1002/wcms.1606

List of papers to cite with high priority. The work reported in these papers was absolutely
necessary for this run to complete.
Our perspective: the developers of density functionals and basis sets usually get cited in chemistry papers
Good! But without the algorithms to do something with them, the functionals or basis sets would not do anything.
Hence, in our opinion, the algorithm design and method developments papers are equally worthy of getting cited

  1. Neese,F.
     An improvement of the resolution of the identity approximation for the formation of the Coulomb matrix
     J. Comp. Chem., 2003 24(14)1740-1747
     doi.org/10.1002/jcc.10318
  2. Neese,F.
     The SHARK Integral Generation and Digestion System
     J. Comp. Chem., 2022  1-16
     doi.org/10.1002/jcc.26942
  3. Grimme,S.; Antony,J.; Ehrlich,S.; Krieg,H.
     A consistent and accurate ab initio parametrization of density functional dispersion correction (DFT-D) for the 94 elements H-Pu
     J. Chem. Phys., 2010 132 154104-XXXX
     doi.org/10.1063/1.3382344
  4. Grimme,S.; Ehrlich,S.; Goerigk,L.
     Effect of the damping function in dispersion corrected density functional theory
     J. Comput. Chem., 2011 32(7)1456-1465
     doi.org/10.1002/jcc.21759

List of suggested additional citations. These are papers that are important in the 'surrounding' of 
of this run, or papers that preceded the highly important papers. If you like your results we are grateful for a citation.

  1. Neese,F.
     The ORCA program system
     WIRES Comput. Molec. Sci., 2012 2(1)73-78
     doi.org/10.1002/wcms.81
  2. Neese,F.
     Software update: the ORCA program system, version 4.0
     WIRES Comput. Molec. Sci., 2018 8(1)1-6
     doi.org/10.1002/wcms.1327
  3. Neese,F.; Wennmohs,F.; Becker,U.; Riplinger,C.
     The ORCA quantum chemistry program package
     J. Chem. Phys., 2020 152 Art. No. L224108
     doi.org/10.1063/5.0004608

List of optional additional citations

  1. Neese,F.
     Approximate second-order SCF convergence for spin unrestricted wavefunctions
     Chem. Phys. Lett., 2000 325(1-3)93-98
     doi.org/10.1016/s0009-2614(00)00662-x

Timings for individual modules:

Sum of individual times          ...      210.619 sec (=   3.510 min)
Startup calculation              ...        7.842 sec (=   0.131 min)   3.7 %
SCF iterations                   ...      132.437 sec (=   2.207 min)  62.9 %
Property calculations            ...        0.157 sec (=   0.003 min)   0.1 %
SCF Gradient evaluation          ...       70.081 sec (=   1.168 min)  33.3 %
Geometry relaxation              ...        0.102 sec (=   0.002 min)   0.0 %
                             ****ORCA TERMINATED NORMALLY****
TOTAL RUN TIME: 0 days 0 hours 3 minutes 31 seconds 915 msec
