
                                 *****************
                                 * O   R   C   A *
                                 *****************

                                            #,                                       
                                            ###                                      
                                            ####                                     
                                            #####                                    
                                            ######                                   
                                           ########,                                 
                                     ,,################,,,,,                         
                               ,,#################################,,                 
                          ,,##########################################,,             
                       ,#########################################, ''#####,          
                    ,#############################################,,   '####,        
                  ,##################################################,,,,####,       
                ,###########''''           ''''###############################       
              ,#####''   ,,,,##########,,,,          '''####'''          '####       
            ,##' ,,,,###########################,,,                        '##       
           ' ,,###''''                  '''############,,,                           
         ,,##''                                '''############,,,,        ,,,,,,###''
      ,#''                                            '''#######################'''  
     '                                                          ''''####''''         
             ,#######,   #######,   ,#######,      ##                                
            ,#'     '#,  ##    ##  ,#'     '#,    #''#        ,####,   ,####,        
            ##       ##  ##   ,#'  ##            #'  '#       #'       #'  '#        
            ##       ##  #######   ##           ,######,      #####,   #    #        
            '#,     ,#'  ##    ##  '#,     ,#' ,#      #,     #,   #   #,  ,#        
             '#######'   ##     ##  '#######'  #'      '#     '####' # '####'        



                #########################################################
                #                        -***-                          #
                #          Department of theory and spectroscopy        #
                #                                                       #
                #                      Frank Neese                      #
                #                                                       #
                #     Directorship, Architecture, Infrastructure        #
                #                    SHARK, DRIVERS                     #
                #        Core code/Algorithms in most modules           #
                #                                                       #
                #        Max Planck Institute fuer Kohlenforschung      #
                #                Kaiser Wilhelm Platz 1                 #
                #                 D-45470 Muelheim/Ruhr                 #
                #                      Germany                          #
                #                                                       #
                #                  All rights reserved                  #
                #                        -***-                          #
                #########################################################


                         Program Version 6.0.0  -   RELEASE   -


 With contributions from (in alphabetic order):
   Daniel Aravena         : Magnetic Suceptibility
   Michael Atanasov       : Ab Initio Ligand Field Theory (pilot matlab implementation)
   Alexander A. Auer      : GIAO ZORA, VPT2 properties, NMR spectrum
   Ute Becker             : All parallelization in ORCA, NUMFREQ, NUMCALC
   Giovanni Bistoni       : ED, misc. LED, open-shell LED, HFLD
   Martin Brehm           : Molecular dynamics
   Dmytro Bykov           : pre 5.0 version of the SCF Hessian
   Marcos Casanova-Páez   : Triplet and SCS-CIS(D). UHF-(DLPNO)-IP/EA/STEOM-CCSD. UHF-CVS-IP/STEOM-CCSD
   Vijay G. Chilkuri      : MRCI spin determinant printing, contributions to CSF-ICE
   Pauline Colinet        : FMM embedding
   Dipayan Datta          : RHF DLPNO-CCSD density
   Achintya Kumar Dutta   : EOM-CC, STEOM-CC
   Nicolas Foglia         : Exact transition moments, OPA infrastructure, MCD improvements
   Dmitry Ganyushin       : Spin-Orbit,Spin-Spin,Magnetic field MRCI
   Miquel Garcia          : C-PCM and meta-GGA Hessian, CCSD/C-PCM, Gaussian charge scheme
   Tiago L. C. Gouveia    : GS-ROHF, GS-ROCIS
   Yang Guo               : DLPNO-NEVPT2, F12-NEVPT2, CIM, IAO-localization
   Andreas Hansen         : Spin unrestricted coupled pair/coupled cluster methods
   Ingolf Harden          : AUTO-CI MPn and infrastructure 
   Benjamin Helmich-Paris : MC-RPA, TRAH-(SCF,CASSCF), AVAS, COSX integrals, SCF dyn. polar.
   Lee Huntington         : MR-EOM, pCC
   Robert Izsak           : Overlap fitted RIJCOSX, COSX-SCS-MP3, EOM
   Riya Kayal             : Wick's Theorem for AUTO-CI, AUTO-CI UHF-CCSDT
   Emily Kempfer          : AUTO-CI, RHF CISDT and CCSDT
   Christian Kollmar      : KDIIS, OOCD, Brueckner-CCSD(T), CCSD density, CASPT2, CASPT2-K, improved NEVPT2
   Axel Koslowski         : Symmetry handling
   Simone Kossmann        : Meta GGA functionals, TD-DFT gradient, OOMP2, (MP2 Hessian; deprecated post 5.0)
   Lucas Lang             : DCDCAS
   Marvin Lechner         : AUTO-CI (C++ implementation), FIC-MRCC
   Spencer Leger          : CASSCF response
   Dagmar Lenk            : GEPOL surface, SMD, ORCA-2-JSON
   Dimitrios Liakos       : Extrapolation schemes; Compound Job, initial MDCI parallelization
   Dimitrios Manganas     : Further ROCIS development; embedding schemes. LFT, Crystal Embedding
   Dimitrios Pantazis     : SARC Basis sets
   Anastasios Papadopoulos: AUTO-CI, single reference methods and gradients
   Taras Petrenko         : pre 6.0 DFT Hessian and TD-DFT gradient, (ASA, deprecated), ECA, 1-Electron XAS/XES, NRVS
   Peter Pinski           : DLPNO-MP2, DLPNO-MP2 Gradient
   Christoph Reimann      : Effective Core Potentials
   Marius Retegan         : Local ZFS, SOC
   Christoph Riplinger    : Optimizer, TS searches, QM/MM, DLPNO-CCSD(T), (RO)-DLPNO pert. Triples
   Michael Roemelt        : Original ROCIS implementation
   Masaaki Saitow         : Open-shell DLPNO-CCSD energy and density
   Barbara Sandhoefer     : DKH picture change effects
   Kantharuban Sivalingam : CASSCF convergence/infrastructure, NEVPT2 and variants, FIC-MRCI
   Bernardo de Souza      : ESD, SOC TD-DFT
   Georgi Stoychev        : AutoAux, RI-MP2 NMR, DLPNO-MP2 response, X2C
   Van Anh Tran           : RI-MP2 g-tensors
   Willem Van den Heuvel  : Paramagnetic NMR
   Zikuan Wang            : NOTCH, Electric field optimization 
   Frank Wennmohs         : Technical directorship and infrastructure
   Hang Xu                : AUTO-CI-Response properties 


 We gratefully acknowledge several colleagues who have allowed us to
 interface, adapt or use parts of their codes:
   Stefan Grimme, W. Hujo, H. Kruse, P. Pracht,  : VdW corrections, initial TS optimization,
                  C. Bannwarth, S. Ehlert,         DFT functionals, gCP, sTDA/sTD-DF
                  L. Wittmann, M. Mueller
   Ed Valeev, F. Pavosevic, A. Kumar             : LibInt (2-el integral package), F12 methods
   Garnet Chan, S. Sharma, J. Yang, R. Olivares  : DMRG
   Ulf Ekstrom                                   : XCFun DFT Library
   Mihaly Kallay                                 : mrcc  (arbitrary order and MRCC methods)
   Frank Weinhold                                : gennbo (NPA and NBO analysis)
   Simon Mueller                                 : openCOSMO-RS
   Christopher J. Cramer and Donald G. Truhlar   : smd solvation model
   Lars Goerigk                                  : TD-DFT with DH, B97 family of functionals
   V. Asgeirsson, H. Jonsson                     : NEB implementation
   FAccTs GmbH                                   : IRC, NEB, NEB-TS, DLPNO-Multilevel, CI-OPT
                                                   MM, QMMM, 2- and 3-layer-ONIOM, Crystal-QMMM,
                                                   LR-CPCM, SF, NACMEs, symmetry and pop. for TD-DFT,
                                                   nearIR, NL-DFT gradient (VV10), updates on ESD,
                                                   ML-optimized integration grids, MBIS, APM,
                                                   GOAT, DOCKER, SOLVATOR, interface openCOSMO-RS
   S Lehtola, MJT Oliveira, MAL Marques          : LibXC Library
   Liviu Ungur et al                             : ANISO software


 Your calculation uses the libint2 library for the computation of 2-el integrals
 For citations please refer to: http://libint.valeyev.net

 Your ORCA version has been built with support for libXC version: 6.2.2
 For citations please refer to: https://libxc.gitlab.io

 This ORCA versions uses:
   CBLAS   interface :  Fast vector & matrix operations
   LAPACKE interface :  Fast linear algebra routines
   Shared memory     :  Shared parallel matrices


Your calculation utilizes the atom-pairwise dispersion correction
with the Becke-Johnson damping scheme (D3BJ)


Warning: RI is on but no J-basis has been assigned. Assigning Def2/J (nothing to worry about!)
================================================================================

----- Orbital basis set information -----
Your calculation utilizes the basis: def2-SVP
   F. Weigend and R. Ahlrichs, Phys. Chem. Chem. Phys. 7, 3297 (2005).

----- AuxJ basis set information -----
Your calculation utilizes the auxiliary basis: def2/J
   F. Weigend, Phys. Chem. Chem. Phys. 8, 1057 (2006).

================================================================================
                                        WARNINGS
                       Please study these warnings very carefully!
================================================================================


WARNING: Geometry Optimization
  ===> : Switching off AutoStart
         For restart on a previous wavefunction, please use MOREAD

================================================================================
                                       INPUT FILE
================================================================================
NAME = data/geom_opt/68983/68983.inp
|  1> ! RIJONX B3LYP def2-SVP D3BJ TIGHTSCF Opt
|  2> %pal
|  3> nprocs 6
|  4> end
|  5> 
|  6> * xyz 0 1
|  7> C     -1.245699   -1.033442   -0.126558
|  8> P     -0.066982    0.141767   -0.897138
|  9> C     -0.281949    1.584298    0.215145
| 10> C      1.515420   -0.524977   -0.252360
| 11> H     -1.078237   -1.129437    0.950370
| 12> H     -2.274989   -0.697080   -0.282251
| 13> H     -1.143197   -2.025279   -0.576637
| 14> H     -1.271052    2.029818    0.073701
| 15> H      0.467609    2.349995   -0.005515
| 16> H     -0.182354    1.303963    1.268011
| 17> H      2.339926    0.152764   -0.492514
| 18> H      1.488444   -0.656778    0.833428
| 19> H      1.733059   -1.495612   -0.707683
| 20> **                         ****END OF INPUT****
================================================================================

                       *****************************
                       * Geometry Optimization Run *
                       *****************************

Geometry optimization settings:
Update method            Update   .... BFGS
Choice of coordinates    CoordSys .... (2022) Redundant Internals
Initial Hessian          InHess   .... Almloef's Model
Max. no of cycles        MaxIter  .... 50

Convergence Tolerances:
Energy Change            TolE     ....  5.0000e-06 Eh
Max. Gradient            TolMAXG  ....  3.0000e-04 Eh/bohr
RMS Gradient             TolRMSG  ....  1.0000e-04 Eh/bohr
Max. Displacement        TolMAXD  ....  4.0000e-03 bohr
RMS Displacement         TolRMSD  ....  2.0000e-03 bohr
Strict Convergence                .... False

------------------------------------------------------------------------------
                        ORCA OPTIMIZATION COORDINATE SETUP
------------------------------------------------------------------------------

The optimization will be done in redundant internal coordinates (2022)
Making redundant internal coordinates   ...  (2022 redundants) done
Evaluating the initial hessian          ...  (Almloef) done
Evaluating the coordinates              ...  done
Calculating the B-matrix                .... done
Calculating the G-matrix                .... done
Diagonalizing the G-matrix              .... done
The first mode is                       ....   15
The number of degrees of freedom        ....   33

    -----------------------------------------------------------------
                    Redundant Internal Coordinates


    -----------------------------------------------------------------
         Definition                    Initial Value    Approx d2E/dq
    -----------------------------------------------------------------
      1. B(P   1,C   0)                  1.8342         0.410717   
      2. B(C   2,P   1)                  1.8342         0.410718   
      3. B(C   3,P   1)                  1.8342         0.410717   
      4. B(H   4,C   0)                  1.0941         0.354730   
      5. B(H   5,C   0)                  1.0940         0.354858   
      6. B(H   6,C   0)                  1.0940         0.354858   
      7. B(H   7,C   2)                  1.0940         0.354857   
      8. B(H   8,C   2)                  1.0940         0.354857   
      9. B(H   9,C   2)                  1.0941         0.354729   
     10. B(H  10,C   3)                  1.0940         0.354859   
     11. B(H  11,C   3)                  1.0941         0.354729   
     12. B(H  12,C   3)                  1.0940         0.354858   
     13. A(P   1,C   0,H   6)          110.3552         0.348984   
     14. A(P   1,C   0,H   4)          111.8009         0.348963   
     15. A(P   1,C   0,H   5)          110.3552         0.348984   
     16. A(H   4,C   0,H   6)          108.1236         0.289488   
     17. A(H   5,C   0,H   6)          107.9602         0.289504   
     18. A(H   4,C   0,H   5)          108.1237         0.289488   
     19. A(C   2,P   1,C   3)          100.0101         0.426110   
     20. A(C   0,P   1,C   2)          100.0101         0.426110   
     21. A(C   0,P   1,C   3)          100.0101         0.426110   
     22. A(H   7,C   2,H   9)          108.1236         0.289487   
     23. A(P   1,C   2,H   9)          111.8009         0.348963   
     24. A(H   7,C   2,H   8)          107.9601         0.289504   
     25. A(P   1,C   2,H   8)          110.3553         0.348984   
     26. A(H   8,C   2,H   9)          108.1236         0.289487   
     27. A(P   1,C   2,H   7)          110.3553         0.348984   
     28. A(H  11,C   3,H  12)          108.1236         0.289487   
     29. A(H  10,C   3,H  12)          107.9602         0.289504   
     30. A(P   1,C   3,H  12)          110.3553         0.348984   
     31. A(H  10,C   3,H  11)          108.1236         0.289488   
     32. A(P   1,C   3,H  11)          111.8009         0.348963   
     33. A(P   1,C   3,H  10)          110.3552         0.348984   
     34. D(C   2,P   1,C   0,H   4)    -51.0727         0.003787   
     35. D(C   2,P   1,C   0,H   6)   -171.4535         0.003787   
     36. D(C   3,P   1,C   0,H   5)    171.4534         0.003787   
     37. D(C   2,P   1,C   0,H   5)     69.3080         0.003787   
     38. D(C   3,P   1,C   0,H   4)     51.0727         0.003787   
     39. D(H   7,C   2,P   1,C   3)   -171.4535         0.003787   
     40. D(H   7,C   2,P   1,C   0)    -69.3081         0.003787   
     41. D(H   9,C   2,P   1,C   0)     51.0727         0.003787   
     42. D(H   8,C   2,P   1,C   3)     69.3080         0.003787   
     43. D(H   8,C   2,P   1,C   0)    171.4534         0.003787   
     44. D(H  11,C   3,P   1,C   2)     51.0727         0.003787   
     45. D(H  11,C   3,P   1,C   0)    -51.0727         0.003787   
     46. D(H  10,C   3,P   1,C   2)    -69.3080         0.003787   
     47. D(H  12,C   3,P   1,C   0)     69.3080         0.003787   
     48. D(H  10,C   3,P   1,C   0)   -171.4534         0.003787   
    -----------------------------------------------------------------

Number of atoms                         .... 13
Number of degrees of freedom            .... 48


         *************************************************************
         *                GEOMETRY OPTIMIZATION CYCLE   1            *
         *************************************************************
---------------------------------
CARTESIAN COORDINATES (ANGSTROEM)
---------------------------------
  C     -1.245699   -1.033442   -0.126558
  P     -0.066982    0.141767   -0.897138
  C     -0.281949    1.584298    0.215145
  C      1.515420   -0.524977   -0.252360
  H     -1.078237   -1.129437    0.950370
  H     -2.274989   -0.697080   -0.282251
  H     -1.143197   -2.025279   -0.576637
  H     -1.271052    2.029818    0.073701
  H      0.467609    2.349995   -0.005515
  H     -0.182354    1.303963    1.268011
  H      2.339926    0.152764   -0.492514
  H      1.488444   -0.656778    0.833428
  H      1.733059   -1.495612   -0.707683

----------------------------
CARTESIAN COORDINATES (A.U.)
----------------------------
  NO LB      ZA    FRAG     MASS         X           Y           Z
   0 C     6.0000    0    12.011   -2.354030   -1.952922   -0.239160
   1 P    15.0000    0    30.974   -0.126578    0.267901   -1.695345
   2 C     6.0000    0    12.011   -0.532806    2.993889    0.406565
   3 C     6.0000    0    12.011    2.863729   -0.992063   -0.476891
   4 H     1.0000    0     1.008   -2.037573   -2.134327    1.795939
   5 H     1.0000    0     1.008   -4.299106   -1.317290   -0.533377
   6 H     1.0000    0     1.008   -2.160329   -3.827223   -1.089686
   7 H     1.0000    0     1.008   -2.401940    3.835800    0.139275
   8 H     1.0000    0     1.008    0.883653    4.440847   -0.010422
   9 H     1.0000    0     1.008   -0.344599    2.464133    2.396194
  10 H     1.0000    0     1.008    4.421819    0.288682   -0.930717
  11 H     1.0000    0     1.008    2.812752   -1.241131    1.574951
  12 H     1.0000    0     1.008    3.275007   -2.826297   -1.337327

--------------------------------
INTERNAL COORDINATES (ANGSTROEM)
--------------------------------
 C      0   0   0     0.000000000000     0.00000000     0.00000000
 P      1   0   0     1.834198325201     0.00000000     0.00000000
 C      2   1   0     1.834197363737   100.01012939     0.00000000
 C      2   1   3     1.834198004694   100.01013338   102.14541262
 H      1   2   3     1.094089794602   111.80093421   308.92726671
 H      1   2   3     1.093991594754   110.35517038    69.30801501
 H      1   2   3     1.093991956467   110.35519331   188.54651629
 H      3   2   1     1.093992330935   110.35526162   290.69193342
 H      3   2   1     1.093992653894   110.35525226   171.45341127
 H      3   2   1     1.094090348283   111.80094468    51.07272015
 H      4   2   1     1.093991293765   110.35524460   188.54662170
 H      4   2   1     1.094090850488   111.80091010   308.92732208
 H      4   2   1     1.093991806128   110.35526557    69.30799178

---------------------------
INTERNAL COORDINATES (A.U.)
---------------------------
 C      0   0   0     0.000000000000     0.00000000     0.00000000
 P      1   0   0     3.466132509927     0.00000000     0.00000000
 C      2   1   0     3.466130693023   100.01012939     0.00000000
 C      2   1   3     3.466131904257   100.01013338   102.14541262
 H      1   2   3     2.067530077717   111.80093421   308.92726671
 H      1   2   3     2.067344506897   110.35517038    69.30801501
 H      1   2   3     2.067345190435   110.35519331   188.54651629
 H      3   2   1     2.067345898078   110.35526162   290.69193342
 H      3   2   1     2.067346508380   110.35525226   171.45341127
 H      3   2   1     2.067531124021   111.80094468    51.07272015
 H      4   2   1     2.067343938110   110.35524460   188.54662170
 H      4   2   1     2.067532073051   111.80091010   308.92732208
 H      4   2   1     2.067344906336   110.35526557    69.30799178

---------------------
BASIS SET INFORMATION
---------------------
There are 3 groups of distinct atoms

 Group   1 Type C   : 7s4p1d contracted to 3s2p1d pattern {511/31/1}
 Group   2 Type P   : 10s7p1d contracted to 4s3p1d pattern {5311/511/1}
 Group   3 Type H   : 4s1p contracted to 2s1p pattern {31/1}

Atom   0C    basis set group =>   1
Atom   1P    basis set group =>   2
Atom   2C    basis set group =>   1
Atom   3C    basis set group =>   1
Atom   4H    basis set group =>   3
Atom   5H    basis set group =>   3
Atom   6H    basis set group =>   3
Atom   7H    basis set group =>   3
Atom   8H    basis set group =>   3
Atom   9H    basis set group =>   3
Atom  10H    basis set group =>   3
Atom  11H    basis set group =>   3
Atom  12H    basis set group =>   3
---------------------------------
AUXILIARY/J BASIS SET INFORMATION
---------------------------------
There are 3 groups of distinct atoms

 Group   1 Type C   : 12s5p4d2f1g contracted to 6s4p3d1f1g pattern {711111/2111/211/2/1}
 Group   2 Type P   : 14s5p5d2f1g contracted to 8s4p3d1f1g pattern {71111111/2111/311/2/1}
 Group   3 Type H   : 5s2p1d contracted to 3s1p1d pattern {311/2/1}

Atom   0C    basis set group =>   1
Atom   1P    basis set group =>   2
Atom   2C    basis set group =>   1
Atom   3C    basis set group =>   1
Atom   4H    basis set group =>   3
Atom   5H    basis set group =>   3
Atom   6H    basis set group =>   3
Atom   7H    basis set group =>   3
Atom   8H    basis set group =>   3
Atom   9H    basis set group =>   3
Atom  10H    basis set group =>   3
Atom  11H    basis set group =>   3
Atom  12H    basis set group =>   3


           ************************************************************
           *        Program running with 6 parallel MPI-processes     *
           *              working on a common directory               *
           ************************************************************
------------------------------------------------------------------------------
                             ORCA STARTUP CALCULATIONS
                           -- RI-GTO INTEGRALS CHOSEN --
------------------------------------------------------------------------------
------------------------------------------------------------------------------
                   ___                                                        
                  /   \      - P O W E R E D   B Y -                         
                 /     \                                                     
                 |  |  |   _    _      __       _____    __    __             
                 |  |  |  | |  | |    /  \     |  _  \  |  |  /  |          
                  \  \/   | |  | |   /    \    | | | |  |  | /  /          
                 / \  \   | |__| |  /  /\  \   | |_| |  |  |/  /          
                |  |  |   |  __  | /  /__\  \  |    /   |      \           
                |  |  |   | |  | | |   __   |  |    \   |  |\   \          
                \     /   | |  | | |  |  |  |  | |\  \  |  | \   \       
                 \___/    |_|  |_| |__|  |__|  |_| \__\ |__|  \__/        
                                                                              
                      - O R C A' S   B I G   F R I E N D -                    
                                      &                                       
                       - I N T E G R A L  F E E D E R -                       
                                                                              
 v1 FN, 2020, v2 2021, v3 2022-2024                                           
------------------------------------------------------------------------------


----------------------
SHARK INTEGRAL PACKAGE
----------------------

Number of atoms                             ...     13
Number of basis functions                   ...    105
Number of shells                            ...     53
Maximum angular momentum                    ...      2
Integral batch strategy                     ... SHARK/LIBINT Hybrid
RI-J (if used) integral strategy            ... SPLIT-RIJ (Revised 2003 algorithm where possible)
Printlevel                                  ...      1
Contraction scheme used                     ... SEGMENTED contraction
Prescreening option                         ... SCHWARTZ
   Thresh                                   ... 2.500e-11
   Tcut                                     ... 2.500e-12
   Tpresel                                  ... 2.500e-12 
Coulomb Range Separation                    ... NOT USED
Exchange Range Separation                   ... NOT USED
Multipole approximations                    ... NOT USED
Finite Nucleus Model                        ... NOT USED
CABS basis                                  ... NOT available
Auxiliary Coulomb fitting basis             ... AVAILABLE
   # of basis functions in Aux-J            ...    297
   # of shells in Aux-J                     ...    107
   Maximum angular momentum in Aux-J        ...      4
Auxiliary J/K fitting basis                 ... NOT available
Auxiliary Correlation fitting basis         ... NOT available
Auxiliary 'external' fitting basis          ... NOT available

Checking pre-screening integrals            ... done (  0.0 sec) Dimension = 53
Check shell pair data                       ... done (  0.0 sec)
Shell pair information
Shell pair cut-off parameter TPreSel        ...   2.5e-12
Total number of shell pairs                 ...      1431
Shell pairs after pre-screening             ...      1416
Total number of primitive shell pairs       ...      5039
Primitive shell pairs kept                  ...      3947
          la=0 lb=0:    490 shell pairs
          la=1 lb=0:    552 shell pairs
          la=1 lb=1:    168 shell pairs
          la=2 lb=0:    124 shell pairs
          la=2 lb=1:     72 shell pairs
          la=2 lb=2:     10 shell pairs

Calculating one electron integrals          ... done (  0.0 sec)
Calculating RI/J V-Matrix + Cholesky decomp.... done (  0.0 sec)
Calculating Nuclear repulsion               ... done (  0.0 sec) ENN=    178.016144206535 Eh

Diagonalization of the overlap matrix:
Smallest eigenvalue                        ... 2.796e-03
Time for diagonalization                   ...    0.001 sec
Threshold for overlap eigenvalues          ... 1.000e-07
Number of eigenvalues below threshold      ... 0
Time for construction of square roots      ...    0.002 sec
Total time needed                          ...    0.005 sec

-------------------
DFT GRID GENERATION
-------------------

General Integration Accuracy     IntAcc      ... 4.388
Radial Grid Type                 RadialGrid  ... OptM3 with GC (2021)
Angular Grid (max. ang.)         AngularGrid ... 4 (Lebedev-302)
Angular grid pruning method      GridPruning ... 4 (adaptive)
Weight generation scheme         WeightScheme... mBecke (2022)
Basis function cutoff            BFCut       ... 1.0000e-11
Integration weight cutoff        WCut        ... 1.0000e-14
Partially contracted basis set               ... off
Rotationally invariant grid construction     ... off
Angular grids for H and He will be reduced by one unit

Total number of grid points                  ...    54551
Total number of batches                      ...      861
Average number of points per batch           ...       63
Average number of grid points per atom       ...     4196
Initializing property integral containers    ... done (  0.0 sec)

SHARK setup successfully completed in   0.3 seconds

Maximum memory used throughout the entire STARTUP-calculation: 15.6 MB


           ************************************************************
           *        Program running with 6 parallel MPI-processes     *
           *              working on a common directory               *
           ************************************************************
-------------------------------------------------------------------------------
                                 ORCA GUESS
                   Start orbitals & Density for SCF / CASSCF
-------------------------------------------------------------------------------

------------
SCF SETTINGS
------------
Hamiltonian:
 Density Functional     Method          .... DFT(GTOs)
 Exchange Functional    Exchange        .... B88
   X-Alpha parameter    XAlpha          ....  0.666667
   Becke's b parameter  XBeta           ....  0.004200
 Correlation Functional Correlation     .... LYP
 LDA part of GGA corr.  LDAOpt          .... VWN-5
 Gradients option       PostSCFGGA      .... off
 Hybrid DFT is turned on
   Fraction HF Exchange ScalHFX         ....  0.200000
   Scaling of DF-GGA-X  ScalDFX         ....  0.720000
   Scaling of DF-GGA-C  ScalDFC         ....  0.810000
   Scaling of DF-LDA-C  ScalLDAC        ....  1.000000
   Perturbative correction              ....  0.000000
   NL short-range parameter             ....  4.800000
 RI-approximation to the Coulomb term is turned on
   Number of AuxJ basis functions       .... 297
   RIJ-ON(X) (HFX calculated with O(N)) .... on


General Settings:
 Integral files         IntName         .... data/geom_opt/68983/68983
 Hartree-Fock type      HFTyp           .... RHF
 Total Charge           Charge          ....    0
 Multiplicity           Mult            ....    1
 Number of Electrons    NEL             ....   42
 Basis Dimension        Dim             ....  105
 Nuclear Repulsion      ENuc            ....    178.0161442065 Eh

Convergence Acceleration:
 AO-DIIS                CNVDIIS         .... on
   Start iteration      DIISMaxIt       ....    12
   Startup error        DIISStart       ....  0.200000
   # of expansion vecs  DIISMaxEq       ....     5
   Bias factor          DIISBfac        ....   1.050
   Max. coefficient     DIISMaxC        ....  10.000
 MO-DIIS                CNVKDIIS        .... off
 Trust-Rad. Augm. Hess. CNVTRAH         .... auto
   Auto Start mean grad. ratio tolernc. ....  1.125000
   Auto Start start iteration           ....    50
   Auto Start num. interpolation iter.  ....    10
   Max. Number of Micro iterations      ....    24
   Max. Number of Macro iterations      .... Maxiter - #DIIS iter
   Number of Davidson start vectors     ....     2
   Converg. threshold    (grad. norm)   ....   1.000e-05
   Grad. Scal. Fac. for Micro threshold ....   0.100
   Minimum threshold for Micro iter.    ....   1.000e-02
   NR start threshold (gradient norm)   ....   1.000e-04
   Initial trust radius                 ....   0.400
   Minimum AH scaling param. (alpha)    ....   1.000
   Maximum AH scaling param. (alpha)    .... 1000.000
   Quad. conv. algorithm                .... NR
   White noise on init. David. guess    .... on
   Maximum white noise                  ....   0.010
   Pseudo random numbers                .... off
   Inactive MOs                         .... canonical
   Orbital update algorithm             .... Taylor
   Preconditioner                       .... Diag
   Full preconditioner red. dimension   ....   250
   COSX micro iterations for RIJONX calc.... off
 SOSCF                  CNVSOSCF        .... on
   Start iteration      SOSCFMaxIt      ....   150
   Startup grad/error   SOSCFStart      ....  0.003300
   Hessian update       SOSCFHessUp     .... L-BFGS
 Level Shifting         CNVShift        .... on
   Level shift para.    LevelShift      ....    0.2500
   Turn off err/grad.   ShiftErr        ....    0.0010
 Zerner damping         CNVZerner       .... off
 Static damping         CNVDamp         .... on
   Fraction old density DampFac         ....    0.7000
   Max. Damping (<1)    DampMax         ....    0.9800
   Min. Damping (>=0)   DampMin         ....    0.0000
   Turn off err/grad.   DampErr         ....    0.1000

SCF Procedure:
 Maximum # iterations   MaxIter         ....   125
 SCF integral mode      SCFMode         .... Direct
   Integral package                     .... SHARK and LIBINT hybrid scheme
 Reset frequency        DirectResetFreq ....    20
 Integral Threshold     Thresh          ....  2.500e-11 Eh
 Primitive CutOff       TCut            ....  2.500e-12 Eh

Convergence Tolerance:
 Convergence Check Mode ConvCheckMode   .... Total+1el-Energy
 Convergence forced     ConvForced      .... 0
 Energy Change          TolE            ....  1.000e-08 Eh
 1-El. energy change                    ....  1.000e-05 Eh
 Orbital Gradient       TolG            ....  1.000e-05
 Orbital Rotation angle TolX            ....  1.000e-05
 DIIS Error             TolErr          ....  5.000e-07

------------------------------
INITIAL GUESS: MODEL POTENTIAL
------------------------------
Loading Hartree-Fock densities                     ... done
Calculating cut-offs                               ... done
Initializing the effective Hamiltonian             ... done
Setting up the integral package (SHARK)            ... done
Starting the Coulomb interaction                   ... done (   0.0 sec)
Making the grid                                    ... done (   0.0 sec)
Mapping shells                                     ... done
Starting the XC term evaluation                    ... done (   0.0 sec)
  promolecular density results
     # of electrons  =     41.994764258
     EX              =    -40.726400671
     EC              =     -1.442805020
     EX+EC           =    -42.169205692
Transforming the Hamiltonian                       ... done (   0.0 sec)
Diagonalizing the Hamiltonian                      ... done (   0.0 sec)
Back transforming the eigenvectors                 ... done (   0.0 sec)
Now organizing SCF variables                       ... done
                      ------------------
                      INITIAL GUESS DONE (   0.1 sec)
                      ------------------
             **** ENERGY FILE WAS UPDATED (data/geom_opt/68983/68983.en.tmp) ****
Finished Guess after   0.1 sec
Maximum memory used throughout the entire GUESS-calculation: 8.2 MB


           ************************************************************
           *        Program running with 6 parallel MPI-processes     *
           *              working on a common directory               *
           ************************************************************

-------------------------------------------------------------------------------------------
                                      ORCA LEAN-SCF
                              memory conserving SCF solver
-------------------------------------------------------------------------------------------

----------------------------------------D-I-I-S--------------------------------------------
Iteration    Energy (Eh)           Delta-E    RMSDP     MaxDP     DIISErr   Damp  Time(sec)
-------------------------------------------------------------------------------------------
               ***  Starting incremental Fock matrix formation  ***
    1    -460.5707063340714740     0.00e+00  4.72e-03  9.07e-02  1.86e-01  0.700   0.2
    2    -460.6629659160111032    -9.23e-02  3.40e-03  5.80e-02  9.51e-02  0.700   0.2
                               ***Turning on AO-DIIS***
    3    -460.6993453055715690    -3.64e-02  1.48e-03  3.13e-02  3.39e-02  0.700   0.2
    4    -460.7199186601357042    -2.06e-02  2.67e-03  7.19e-02  1.54e-02  0.000   0.2
    5    -460.7645607144735322    -4.46e-02  4.15e-04  8.46e-03  7.68e-03  0.000   0.2
                              *** Initializing SOSCF ***
---------------------------------------S-O-S-C-F--------------------------------------
Iteration    Energy (Eh)           Delta-E    RMSDP     MaxDP     MaxGrad    Time(sec)
--------------------------------------------------------------------------------------
    6    -460.7649339062555782    -3.73e-04  1.45e-04  2.12e-03  2.24e-03     0.2
               *** Restarting incremental Fock matrix formation ***
    7    -460.7649700787043230    -3.62e-05  1.01e-04  9.83e-04  3.26e-04     0.2
    8    -460.7649704857618644    -4.07e-07  3.51e-05  6.60e-04  3.16e-04     0.2
    9    -460.7649730579978495    -2.57e-06  9.54e-06  1.74e-04  2.78e-05     0.2
   10    -460.7649730729914381    -1.50e-08  3.83e-06  6.86e-05  2.00e-05     0.2
   11    -460.7649730829762120    -9.98e-09  3.55e-07  4.98e-06  1.66e-06     0.2
                 **** Energy Check signals convergence ****

               *****************************************************
               *                     SUCCESS                       *
               *           SCF CONVERGED AFTER  11 CYCLES          *
               *****************************************************

             **** ENERGY FILE WAS UPDATED (data/geom_opt/68983/68983.en.tmp) ****

----------------
TOTAL SCF ENERGY
----------------

Total Energy       :       -460.76497308297621 Eh          -12538.05234 eV

Components:
Nuclear Repulsion  :        178.01614420653496 Eh            4844.06555 eV
Electronic Energy  :       -638.78111728951114 Eh          -17382.11789 eV
One Electron Energy:       -984.71356951862867 Eh          -26795.41848 eV
Two Electron Energy:        345.93245222911753 Eh            9413.30059 eV

Virial components:
Potential Energy   :       -919.23398908492595 Eh          -25013.62851 eV
Kinetic Energy     :        458.46901600194980 Eh           12475.57617 eV
Virial Ratio       :          2.00500787839721

DFT components:
N(Alpha)           :       21.000018418883 electrons
N(Beta)            :       21.000018418883 electrons
N(Total)           :       42.000036837766 electrons
E(X)               :      -32.780629499642 Eh       
E(C)               :       -1.708174991920 Eh       
E(XC)              :      -34.488804491561 Eh       

---------------
SCF CONVERGENCE
---------------

  Last Energy change         ...    9.9848e-09  Tolerance :   1.0000e-08
  Last MAX-Density change    ...    4.9809e-06  Tolerance :   1.0000e-07
  Last RMS-Density change    ...    3.5519e-07  Tolerance :   5.0000e-09
  Last DIIS Error            ...    2.2422e-03  Tolerance :   5.0000e-07
  Last Orbital Gradient      ...    1.6638e-06  Tolerance :   1.0000e-05
  Last Orbital Rotation      ...    2.1066e-06  Tolerance :   1.0000e-05


----------------
ORBITAL ENERGIES
----------------

  NO   OCC          E(Eh)            E(eV) 
   0   2.0000     -77.029855     -2096.0889 
   1   2.0000     -10.175216      -276.8817 
   2   2.0000     -10.175202      -276.8813 
   3   2.0000     -10.175137      -276.8795 
   4   2.0000      -6.529062      -177.6648 
   5   2.0000      -4.694393      -127.7409 
   6   2.0000      -4.694392      -127.7409 
   7   2.0000      -4.691239      -127.6551 
   8   2.0000      -0.754715       -20.5368 
   9   2.0000      -0.679022       -18.4771 
  10   2.0000      -0.679016       -18.4770 
  11   2.0000      -0.522810       -14.2264 
  12   2.0000      -0.433008       -11.7827 
  13   2.0000      -0.422794       -11.5048 
  14   2.0000      -0.422786       -11.5046 
  15   2.0000      -0.393303       -10.7023 
  16   2.0000      -0.393299       -10.7022 
  17   2.0000      -0.382526       -10.4091 
  18   2.0000      -0.326509        -8.8848 
  19   2.0000      -0.326503        -8.8846 
  20   2.0000      -0.214587        -5.8392 
  21   0.0000       0.054804         1.4913 
  22   0.0000       0.072122         1.9625 
  23   0.0000       0.072128         1.9627 
  24   0.0000       0.098341         2.6760 
  25   0.0000       0.114860         3.1255 
  26   0.0000       0.114866         3.1257 
  27   0.0000       0.137402         3.7389 
  28   0.0000       0.137405         3.7390 
  29   0.0000       0.167612         4.5610 
  30   0.0000       0.167625         4.5613 
  31   0.0000       0.170762         4.6467 
*Only the first 10 virtual orbitals were printed.

                    ********************************
                    * MULLIKEN POPULATION ANALYSIS *
                    ********************************

-----------------------
MULLIKEN ATOMIC CHARGES
-----------------------
   0 C :   -0.138322
   1 P :    0.106634
   2 C :   -0.138203
   3 C :   -0.138522
   4 H :    0.022295
   5 H :    0.040245
   6 H :    0.040245
   7 H :    0.040223
   8 H :    0.040227
   9 H :    0.022267
  10 H :    0.040287
  11 H :    0.022322
  12 H :    0.040302
Sum of atomic charges:   -0.0000000

--------------------------------
MULLIKEN REDUCED ORBITAL CHARGES
--------------------------------
  0 C s       :     3.053369  s :     3.053369
      pz      :     1.012850  p :     3.062026
      px      :     1.024671
      py      :     1.024504
      dz2     :     0.007812  d :     0.022927
      dxz     :     0.002041
      dyz     :     0.004037
      dx2y2   :     0.005453
      dxy     :     0.003584

  1 P s       :     5.804003  s :     5.804003
      pz      :     3.338889  p :     8.906291
      px      :     2.778205
      py      :     2.789197
      dz2     :     0.019870  d :     0.183072
      dxz     :     0.031925
      dyz     :     0.045162
      dx2y2   :     0.038907
      dxy     :     0.047207

  2 C s       :     3.053307  s :     3.053307
      pz      :     1.013536  p :     3.061969
      px      :     1.023408
      py      :     1.025025
      dz2     :     0.008313  d :     0.022927
      dxz     :     0.001215
      dyz     :     0.004109
      dx2y2   :     0.003092
      dxy     :     0.006197

  3 C s       :     3.053391  s :     3.053391
      pz      :     1.012673  p :     3.062203
      px      :     1.025775
      py      :     1.023755
      dz2     :     0.007776  d :     0.022928
      dxz     :     0.002619
      dyz     :     0.003540
      dx2y2   :     0.003716
      dxy     :     0.005277

  4 H s       :     0.953852  s :     0.953852
      pz      :     0.013837  p :     0.023853
      px      :     0.005079
      py      :     0.004937

  5 H s       :     0.935795  s :     0.935795
      pz      :     0.005146  p :     0.023960
      px      :     0.013059
      py      :     0.005755

  6 H s       :     0.935796  s :     0.935796
      pz      :     0.006526  p :     0.023959
      px      :     0.005024
      py      :     0.012409

  7 H s       :     0.935818  s :     0.935818
      pz      :     0.005035  p :     0.023959
      px      :     0.012421
      py      :     0.006503

  8 H s       :     0.935812  s :     0.935812
      pz      :     0.005259  p :     0.023962
      px      :     0.009226
      py      :     0.009477

  9 H s       :     0.953880  s :     0.953880
      pz      :     0.013430  p :     0.023853
      px      :     0.004975
      py      :     0.005448

 10 H s       :     0.935755  s :     0.935755
      pz      :     0.005434  p :     0.023958
      px      :     0.010097
      py      :     0.008426

 11 H s       :     0.953829  s :     0.953829
      pz      :     0.013988  p :     0.023849
      px      :     0.004840
      py      :     0.005021

 12 H s       :     0.935738  s :     0.935738
      pz      :     0.006591  p :     0.023959
      px      :     0.005259
      py      :     0.012109



                     *******************************
                     * LOEWDIN POPULATION ANALYSIS *
                     *******************************

----------------------
LOEWDIN ATOMIC CHARGES
----------------------
   0 C :   -0.212903
   1 P :    0.439868
   2 C :   -0.212885
   3 C :   -0.212949
   4 H :    0.013617
   5 H :    0.026334
   6 H :    0.026331
   7 H :    0.026321
   8 H :    0.026334
   9 H :    0.013614
  10 H :    0.026342
  11 H :    0.013620
  12 H :    0.026354

-------------------------------
LOEWDIN REDUCED ORBITAL CHARGES
-------------------------------
  0 C s       :     2.893522  s :     2.893522
      pz      :     1.085539  p :     3.260962
      px      :     1.087614
      py      :     1.087809
      dz2     :     0.019582  d :     0.058419
      dxz     :     0.005145
      dyz     :     0.010379
      dx2y2   :     0.013824
      dxy     :     0.009489

  1 P s       :     5.295940  s :     5.295940
      pz      :     3.414593  p :     9.025613
      px      :     2.799504
      py      :     2.811516
      dz2     :     0.024849  d :     0.238578
      dxz     :     0.039751
      dyz     :     0.059635
      dx2y2   :     0.050994
      dxy     :     0.063349

  2 C s       :     2.893518  s :     2.893518
      pz      :     1.090030  p :     3.260948
      px      :     1.078811
      py      :     1.092107
      dz2     :     0.020882  d :     0.058420
      dxz     :     0.002696
      dyz     :     0.011209
      dx2y2   :     0.007860
      dxy     :     0.015773

  3 C s       :     2.893517  s :     2.893517
      pz      :     1.084281  p :     3.261014
      px      :     1.095117
      py      :     1.081617
      dz2     :     0.019585  d :     0.058417
      dxz     :     0.006674
      dyz     :     0.008794
      dx2y2   :     0.009583
      dxy     :     0.013781

  4 H s       :     0.916714  s :     0.916714
      pz      :     0.041566  p :     0.069669
      px      :     0.014039
      py      :     0.014064

  5 H s       :     0.905175  s :     0.905175
      pz      :     0.013223  p :     0.068491
      px      :     0.039186
      py      :     0.016082

  6 H s       :     0.905178  s :     0.905178
      pz      :     0.017241  p :     0.068490
      px      :     0.014030
      py      :     0.037219

  7 H s       :     0.905189  s :     0.905189
      pz      :     0.013501  p :     0.068490
      px      :     0.035398
      py      :     0.019592

  8 H s       :     0.905176  s :     0.905176
      pz      :     0.014118  p :     0.068490
      px      :     0.025498
      py      :     0.028874

  9 H s       :     0.916719  s :     0.916719
      pz      :     0.041453  p :     0.069668
      px      :     0.012691
      py      :     0.015524

 10 H s       :     0.905166  s :     0.905166
      pz      :     0.013890  p :     0.068492
      px      :     0.031344
      py      :     0.023257

 11 H s       :     0.916710  s :     0.916710
      pz      :     0.041660  p :     0.069669
      px      :     0.014621
      py      :     0.013388

 12 H s       :     0.905154  s :     0.905154
      pz      :     0.017292  p :     0.068492
      px      :     0.016088
      py      :     0.035111



                      *****************************
                      * MAYER POPULATION ANALYSIS *
                      *****************************

  NA   - Mulliken gross atomic population
  ZA   - Total nuclear charge
  QA   - Mulliken gross atomic charge
  VA   - Mayer's total valence
  BVA  - Mayer's bonded valence
  FA   - Mayer's free valence

  ATOM       NA         ZA         QA         VA         BVA        FA
  0 C      6.1383     6.0000    -0.1383     3.8848     3.8848    -0.0000
  1 P     14.8934    15.0000     0.1066     3.1015     3.1015    -0.0000
  2 C      6.1382     6.0000    -0.1382     3.8849     3.8849    -0.0000
  3 C      6.1385     6.0000    -0.1385     3.8849     3.8849    -0.0000
  4 H      0.9777     1.0000     0.0223     0.9914     0.9914    -0.0000
  5 H      0.9598     1.0000     0.0402     0.9868     0.9868    -0.0000
  6 H      0.9598     1.0000     0.0402     0.9868     0.9868    -0.0000
  7 H      0.9598     1.0000     0.0402     0.9867     0.9867    -0.0000
  8 H      0.9598     1.0000     0.0402     0.9868     0.9868    -0.0000
  9 H      0.9777     1.0000     0.0223     0.9914     0.9914    -0.0000
 10 H      0.9597     1.0000     0.0403     0.9868     0.9868    -0.0000
 11 H      0.9777     1.0000     0.0223     0.9914     0.9914     0.0000
 12 H      0.9597     1.0000     0.0403     0.9868     0.9868    -0.0000

  Mayer bond orders larger than 0.100000
B(  0-C ,  1-P ) :   0.9867 B(  0-C ,  4-H ) :   0.9520 B(  0-C ,  5-H ) :   0.9694 
B(  0-C ,  6-H ) :   0.9694 B(  1-P ,  2-C ) :   0.9868 B(  1-P ,  3-C ) :   0.9868 
B(  2-C ,  7-H ) :   0.9694 B(  2-C ,  8-H ) :   0.9694 B(  2-C ,  9-H ) :   0.9519 
B(  3-C , 10-H ) :   0.9694 B(  3-C , 11-H ) :   0.9519 B(  3-C , 12-H ) :   0.9694 


-------
TIMINGS
-------

Total SCF time: 0 days 0 hours 0 min 2 sec 

Total time                  ....       2.322 sec
Sum of individual times     ....       2.289 sec  ( 98.6%)

SCF preparation             ....       0.053 sec  (  2.3%)
Fock matrix formation       ....       2.035 sec  ( 87.6%)
  Startup                   ....       0.023 sec  (  1.1% of F)
  Exchange formation        ....       0.924 sec  ( 45.4% of F)
  Split-RI-J                ....       0.222 sec  ( 10.9% of F)
  XC integration            ....       0.782 sec  ( 38.4% of F)
    Basis function eval.    ....       0.206 sec  ( 26.3% of XC)
    Density eval.           ....       0.128 sec  ( 16.4% of XC)
    XC-Functional eval.     ....       0.038 sec  (  4.9% of XC)
    XC-Potential eval.      ....       0.160 sec  ( 20.5% of XC)
Diagonalization             ....       0.000 sec  (  0.0%)
Density matrix formation    ....       0.043 sec  (  1.9%)
Total Energy calculation    ....       0.020 sec  (  0.9%)
Population analysis         ....       0.024 sec  (  1.0%)
Orbital Transformation      ....       0.013 sec  (  0.6%)
Orbital Orthonormalization  ....       0.000 sec  (  0.0%)
DIIS solution               ....       0.066 sec  (  2.8%)
SOSCF solution              ....       0.035 sec  (  1.5%)
Finished LeanSCF after   2.3 sec

Maximum memory used throughout the entire LEANSCF-calculation: 10.5 MB


-------------------------------------------------------------------------------
                          DFT DISPERSION CORRECTION                            
                                                                               
                              DFTD3 V3.1  Rev 1                                
                          USING Becke-Johnson damping                          
-------------------------------------------------------------------------------
The B3LYP functional is recognized
Active option DFTDOPT                   ...         4   

molecular C6(AA) [au] = 1662.749928 


            DFT-D V3
 parameters
 s6 scaling factor         :     1.0000 
 a1 scaling factor         :     0.3981 
 s8 scaling factor         :     1.9889 
 a2 scaling factor         :     4.4211 
 ad hoc parameters k1-k3   :    16.0000     1.3333    -4.0000 

 Edisp/kcal,au: -11.150943614673  -0.017770157880 
 E6   /kcal   :  -5.122533452 
 E8   /kcal   :  -6.028410163 
 % E8         :  54.061883651 

-------------------------   ----------------
Dispersion correction           -0.017770158
-------------------------   ----------------


-------------------------   --------------------
FINAL SINGLE POINT ENERGY      -460.782743240856
-------------------------   --------------------



           ************************************************************
           *        Program running with 6 parallel MPI-processes     *
           *              working on a common directory               *
           ************************************************************
------------------------------------------------------------------------------
                         ORCA SCF GRADIENT CALCULATION
------------------------------------------------------------------------------

Nuc. rep. gradient        (SHARK) ... done (  0.0 sec)
HCore & Overlap gradient  (SHARK) ... done (  0.0 sec)
Split-RIJ-J gradient      (SHARK) ... done (  0.1 sec)
O(N)X-gradient            (SHARK) ... done (  0.4 sec)
XC gradient                       ... done (  0.5 sec)
Dispersion correction             ... done (  0.1 sec)

-------------------
DISPERSION GRADIENT
-------------------

   1   C   :   -0.000398723   -0.000330740   -0.000040710
   2   P   :   -0.000021728    0.000045988   -0.000291023
   3   C   :   -0.000090258    0.000507115    0.000068658
   4   C   :    0.000485022   -0.000167996   -0.000080975
   5   H   :   -0.000212154   -0.000210388    0.000133579
   6   H   :   -0.000238697   -0.000152656   -0.000022701
   7   H   :   -0.000194813   -0.000204156   -0.000034116
   8   H   :   -0.000083139    0.000269871    0.000032453
   9   H   :   -0.000015724    0.000282285    0.000029382
  10   H   :   -0.000038989    0.000259962    0.000194976
  11   H   :    0.000274388   -0.000058171   -0.000046078
  12   H   :    0.000283959   -0.000119029    0.000110975
  13   H   :    0.000250857   -0.000122085   -0.000054421

Difference to translation invariance:
           :    0.0000000000   -0.0000000000    0.0000000000

Difference to rotation invariance:
           :    0.0000000000    0.0000000000    0.0000000000

Norm of the Dispersion gradient    ...    0.0013051749
RMS gradient                       ...    0.0002089952
MAX gradient                       ...    0.0005071153

------------------
CARTESIAN GRADIENT
------------------

   1   C   :    0.001720483    0.002409077   -0.004253263
   2   P   :    0.001530415   -0.003218700    0.020412154
   3   C   :    0.000136808   -0.001912160   -0.004823010
   4   C   :   -0.002856458    0.001572590   -0.004068075
   5   H   :   -0.000584862    0.001093474   -0.007193479
   6   H   :    0.004414479   -0.001765031    0.001844738
   7   H   :   -0.000495786    0.003998524    0.003124759
   8   H   :    0.004351055   -0.001950287    0.001819844
   9   H   :   -0.003197269   -0.003328445    0.002164169
  10   H   :   -0.000552976    0.001206482   -0.007176107
  11   H   :   -0.003323722   -0.003185723    0.002203024
  12   H   :   -0.000461008    0.001114642   -0.007190584
  13   H   :   -0.000681159    0.003965555    0.003135831

Difference to translation invariance:
           :    0.0000000000   -0.0000000000    0.0000000000

Difference to rotation invariance:
           :   -0.0000316394    0.0000152052    0.0000533752

Norm of the Cartesian gradient     ...    0.0287426482
RMS gradient                       ...    0.0046025072
MAX gradient                       ...    0.0204121537

-------
TIMINGS
-------

Total SCF gradient time     ....        1.075 sec

One electron gradient       ....       0.029 sec  (  2.7%)
Two electron gradient       ....       0.431 sec  ( 40.1%)
RI-J Coulomb gradient       ....       0.084 sec  (  7.8%)
XC gradient                 ....       0.471 sec  ( 43.8%)

Maximum memory used throughout the entire SCFGRAD-calculation: 27.0 MB
------------------------------------------------------------------------------
                         ORCA GEOMETRY RELAXATION STEP
------------------------------------------------------------------------------

Reading the OPT-File                    .... done
Getting information on internals        .... done
Copying old internal coords+grads       .... done
Making the new internal coordinates     .... (2022 redundants) done
Validating the new internal coordinates .... (2022 redundants) done
Calculating the B-matrix                .... done
Calculating the G,G- and P matrices     .... done
Transforming gradient to internals      .... done
Projecting the internal gradient        .... done
Number of atoms                         ....  13
Number of internal coordinates          ....  48
Current Energy                          ....  -460.782743241 Eh
Current gradient norm                   ....     0.028742648 Eh/bohr
Maximum allowed component of the step   ....  0.300
Current trust radius                    ....  0.300
Evaluating the initial hessian          ....  (Almloef) done
Projecting the Hessian                  .... done
Forming the augmented Hessian           .... done
Diagonalizing the augmented Hessian     .... done
Last element of RFO vector              ....  0.997182634
Lowest eigenvalues of augmented Hessian:
 -0.001785403  0.003786815  0.003786821  0.003786832  0.110165789
Length of the computed step             ....  0.075223892
The final length of the internal step   ....  0.075223892
Converting the step to Cartesian space:
 Initial RMS(Int)=    0.0108576336
Transforming coordinates:
 Iter   0:  RMS(Cart)=    0.0117085227 RMS(Int)=    0.0108433291
done
Storing new coordinates                 .... done

                                .--------------------.
          ----------------------|Geometry convergence|-------------------------
          Item                value                   Tolerance       Converged
          ---------------------------------------------------------------------
          RMS gradient        0.0036299057            0.0001000000      NO
          MAX gradient        0.0096578650            0.0003000000      NO
          RMS step            0.0108576336            0.0020000000      NO
          MAX step            0.0234128567            0.0040000000      NO
          ........................................................
          Max(Bonds)      0.0124      Max(Angles)    0.54
          Max(Dihed)        0.78      Max(Improp)    0.00
          ---------------------------------------------------------------------

The optimization has not yet converged - more geometry cycles are needed


    ---------------------------------------------------------------------------
                         Redundant Internal Coordinates
                            (Angstroem and degrees)

        Definition                    Value    dE/dq     Step     New-Value
    ----------------------------------------------------------------------------
     1. B(P   1,C   0)                1.8342 -0.009647  0.0124    1.8466   
     2. B(C   2,P   1)                1.8342 -0.009652  0.0124    1.8466   
     3. B(C   3,P   1)                1.8342 -0.009658  0.0124    1.8466   
     4. B(H   4,C   0)                1.0941 -0.007267  0.0108    1.1049   
     5. B(H   5,C   0)                1.0940 -0.004958  0.0074    1.1013   
     6. B(H   6,C   0)                1.0940 -0.004958  0.0074    1.1013   
     7. B(H   7,C   2)                1.0940 -0.004964  0.0074    1.1014   
     8. B(H   8,C   2)                1.0940 -0.004956  0.0074    1.1013   
     9. B(H   9,C   2)                1.0941 -0.007264  0.0108    1.1049   
    10. B(H  10,C   3)                1.0940 -0.004963  0.0074    1.1014   
    11. B(H  11,C   3)                1.0941 -0.007259  0.0108    1.1049   
    12. B(H  12,C   3)                1.0940 -0.004958  0.0074    1.1013   
    13. A(P   1,C   0,H   6)          110.36  0.001414   -0.29    110.07   
    14. A(P   1,C   0,H   4)          111.80 -0.002103    0.40    112.20   
    15. A(P   1,C   0,H   5)          110.36  0.001674   -0.29    110.07   
    16. A(H   4,C   0,H   6)          108.12 -0.000872    0.19    108.32   
    17. A(H   5,C   0,H   6)          107.96  0.000264   -0.21    107.75   
    18. A(H   4,C   0,H   5)          108.12 -0.000385    0.19    108.31   
    19. A(C   2,P   1,C   3)          100.01  0.001483   -0.54     99.47   
    20. A(C   0,P   1,C   2)          100.01  0.000933   -0.53     99.48   
    21. A(C   0,P   1,C   3)          100.01  0.001208   -0.53     99.48   
    22. A(H   7,C   2,H   9)          108.12 -0.000640    0.19    108.31   
    23. A(P   1,C   2,H   9)          111.80 -0.001837    0.40    112.20   
    24. A(H   7,C   2,H   8)          107.96 -0.000231   -0.20    107.76   
    25. A(P   1,C   2,H   8)          110.36  0.001556   -0.29    110.07   
    26. A(H   8,C   2,H   9)          108.12 -0.000143    0.18    108.31   
    27. A(P   1,C   2,H   7)          110.36  0.001274   -0.28    110.07   
    28. A(H  11,C   3,H  12)          108.12 -0.000390    0.19    108.31   
    29. A(H  10,C   3,H  12)          107.96 -0.000241   -0.20    107.76   
    30. A(P   1,C   3,H  12)          110.36  0.001426   -0.29    110.07   
    31. A(H  10,C   3,H  11)          108.12 -0.000399    0.19    108.31   
    32. A(P   1,C   3,H  11)          111.80 -0.001828    0.39    112.20   
    33. A(P   1,C   3,H  10)          110.36  0.001409   -0.29    110.07   
    34. D(C   2,P   1,C   0,H   4)    -51.07 -0.000813    0.25    -50.82   
    35. D(C   2,P   1,C   0,H   6)   -171.45  0.000725   -0.06   -171.51   
    36. D(C   3,P   1,C   0,H   5)    171.45  0.000452   -0.23    171.22   
    37. D(C   2,P   1,C   0,H   5)     69.31 -0.001557    0.56     69.87   
    38. D(C   3,P   1,C   0,H   4)     51.07  0.001196   -0.54     50.54   
    39. D(H   7,C   2,P   1,C   3)   -171.45 -0.000236    0.17   -171.29   
    40. D(H   7,C   2,P   1,C   0)    -69.31  0.001547   -0.62    -69.93   
    41. D(H   9,C   2,P   1,C   0)     51.07  0.000385   -0.31     50.76   
    42. D(H   8,C   2,P   1,C   3)     69.31 -0.001740    0.78     70.09   
    43. D(H   8,C   2,P   1,C   0)    171.45  0.000043   -0.01    171.44   
    44. D(H  11,C   3,P   1,C   2)     51.07  0.000778   -0.41     50.66   
    45. D(H  11,C   3,P   1,C   0)    -51.07 -0.000779    0.38    -50.70   
    46. D(H  10,C   3,P   1,C   2)    -69.31  0.001538   -0.72    -70.03   
    47. D(H  12,C   3,P   1,C   0)     69.31 -0.001516    0.68     69.99   
    48. D(H  10,C   3,P   1,C   0)   -171.45 -0.000020    0.07   -171.38   
    ----------------------------------------------------------------------------

Geometry step timings:
Preparation and reading OPT file:      0.000 s ( 0.000 %)
Internal coordinates            :      0.000 s ( 0.000 %)
B/P matrices and projection     :      0.000 s ( 0.000 %)
Hessian update/contruction      :      0.001 s (33.333 %)
Making the step                 :      0.001 s (33.333 %)
Converting the step to Cartesian:      0.000 s ( 0.000 %)
Storing new data                :      0.000 s ( 0.000 %)
Checking convergence            :      0.000 s ( 0.000 %)
Final printing                  :      0.001 s (33.333 %)
Total time                      :      0.003 s

Time for energy+gradient        :      4.277 s
Time for complete geometry iter :      4.388 s

         *************************************************************
         *                GEOMETRY OPTIMIZATION CYCLE   2            *
         *************************************************************
---------------------------------
CARTESIAN COORDINATES (ANGSTROEM)
---------------------------------
  C     -1.248978   -1.036586   -0.125772
  P     -0.067955    0.144225   -0.913621
  C     -0.282701    1.588478    0.216809
  C      1.519803   -0.526627   -0.251152
  H     -1.078196   -1.134925    0.961388
  H     -2.284697   -0.697148   -0.283997
  H     -1.148624   -2.033294   -0.583448
  H     -1.278093    2.037059    0.072032
  H      0.469696    2.360356   -0.009175
  H     -0.180815    1.305236    1.279888
  H      2.349560    0.154832   -0.496306
  H      1.491760   -0.659067    0.845388
  H      1.739239   -1.502538   -0.712037

----------------------------
CARTESIAN COORDINATES (A.U.)
----------------------------
  NO LB      ZA    FRAG     MASS         X           Y           Z
   0 C     6.0000    0    12.011   -2.360226   -1.958863   -0.237674
   1 P    15.0000    0    30.974   -0.128417    0.272546   -1.726493
   2 C     6.0000    0    12.011   -0.534227    3.001789    0.409710
   3 C     6.0000    0    12.011    2.872012   -0.995182   -0.474608
   4 H     1.0000    0     1.008   -2.037496   -2.144697    1.816760
   5 H     1.0000    0     1.008   -4.317451   -1.317419   -0.536677
   6 H     1.0000    0     1.008   -2.170585   -3.842369   -1.102558
   7 H     1.0000    0     1.008   -2.415245    3.849484    0.136121
   8 H     1.0000    0     1.008    0.887597    4.460426   -0.017338
   9 H     1.0000    0     1.008   -0.341691    2.466538    2.418638
  10 H     1.0000    0     1.008    4.440025    0.292589   -0.937881
  11 H     1.0000    0     1.008    2.819017   -1.245457    1.597552
  12 H     1.0000    0     1.008    3.286685   -2.839386   -1.345555

--------------------------------
INTERNAL COORDINATES (ANGSTROEM)
--------------------------------
 C      0   0   0     0.000000000000     0.00000000     0.00000000
 P      1   0   0     1.846573802830     0.00000000     0.00000000
 C      2   1   0     1.846578878861    99.47232991     0.00000000
 C      2   1   3     1.846587554969    99.47126365   101.35733006
 H      1   2   3     1.104876662393   112.20170230   309.18099801
 H      1   2   3     1.101347580293   110.06490200    69.86511522
 H      1   2   3     1.101347858325   110.06749709   188.48654063
 H      3   2   1     1.101358298418   110.07132542   290.07332296
 H      3   2   1     1.101346654235   110.06534135   171.44217212
 H      3   2   1     1.104872772991   112.19693842    50.76517156
 H      4   2   1     1.101355102338   110.06911667   188.61571360
 H      4   2   1     1.104864912483   112.19584796   309.30302670
 H      4   2   1     1.101349051806   110.06602648    69.98460949

---------------------------
INTERNAL COORDINATES (A.U.)
---------------------------
 C      0   0   0     0.000000000000     0.00000000     0.00000000
 P      1   0   0     3.489518773423     0.00000000     0.00000000
 C      2   1   0     3.489528365731    99.47232991     0.00000000
 C      2   1   3     3.489544761198    99.47126365   101.35733006
 H      1   2   3     2.087914303683   112.20170230   309.18099801
 H      1   2   3     2.081245305011   110.06490200    69.86511522
 H      1   2   3     2.081245830415   110.06749709   188.48654063
 H      3   2   1     2.081265559331   110.07132542   290.07332296
 H      3   2   1     2.081243555015   110.06534135   171.44217212
 H      3   2   1     2.087906953779   112.19693842    50.76517156
 H      4   2   1     2.081259519617   110.06911667   188.61571360
 H      4   2   1     2.087892099572   112.19584796   309.30302670
 H      4   2   1     2.081248085768   110.06602648    69.98460949



           ************************************************************
           *        Program running with 6 parallel MPI-processes     *
           *              working on a common directory               *
           ************************************************************
------------------------------------------------------------------------------
                   ___                                                        
                  /   \      - P O W E R E D   B Y -                         
                 /     \                                                     
                 |  |  |   _    _      __       _____    __    __             
                 |  |  |  | |  | |    /  \     |  _  \  |  |  /  |          
                  \  \/   | |  | |   /    \    | | | |  |  | /  /          
                 / \  \   | |__| |  /  /\  \   | |_| |  |  |/  /          
                |  |  |   |  __  | /  /__\  \  |    /   |      \           
                |  |  |   | |  | | |   __   |  |    \   |  |\   \          
                \     /   | |  | | |  |  |  |  | |\  \  |  | \   \       
                 \___/    |_|  |_| |__|  |__|  |_| \__\ |__|  \__/        
                                                                              
                      - O R C A' S   B I G   F R I E N D -                    
                                      &                                       
                       - I N T E G R A L  F E E D E R -                       
                                                                              
 v1 FN, 2020, v2 2021, v3 2022-2024                                           
------------------------------------------------------------------------------


----------------------
SHARK INTEGRAL PACKAGE
----------------------

Number of atoms                             ...     13
Number of basis functions                   ...    105
Number of shells                            ...     53
Maximum angular momentum                    ...      2
Integral batch strategy                     ... SHARK/LIBINT Hybrid
RI-J (if used) integral strategy            ... SPLIT-RIJ (Revised 2003 algorithm where possible)
Printlevel                                  ...      1
Contraction scheme used                     ... SEGMENTED contraction
Prescreening option                         ... SCHWARTZ
   Thresh                                   ... 2.500e-11
   Tcut                                     ... 2.500e-12
   Tpresel                                  ... 2.500e-12 
Coulomb Range Separation                    ... NOT USED
Exchange Range Separation                   ... NOT USED
Multipole approximations                    ... NOT USED
Finite Nucleus Model                        ... NOT USED
CABS basis                                  ... NOT available
Auxiliary Coulomb fitting basis             ... AVAILABLE
   # of basis functions in Aux-J            ...    297
   # of shells in Aux-J                     ...    107
   Maximum angular momentum in Aux-J        ...      4
Auxiliary J/K fitting basis                 ... NOT available
Auxiliary Correlation fitting basis         ... NOT available
Auxiliary 'external' fitting basis          ... NOT available

Checking pre-screening integrals            ... done (  0.0 sec) Dimension = 53
Check shell pair data                       ... done (  0.0 sec)
Shell pair information
Shell pair cut-off parameter TPreSel        ...   2.5e-12
Total number of shell pairs                 ...      1431
Shell pairs after pre-screening             ...      1416
Total number of primitive shell pairs       ...      5039
Primitive shell pairs kept                  ...      3947
          la=0 lb=0:    490 shell pairs
          la=1 lb=0:    552 shell pairs
          la=1 lb=1:    168 shell pairs
          la=2 lb=0:    124 shell pairs
          la=2 lb=1:     72 shell pairs
          la=2 lb=2:     10 shell pairs

Calculating one electron integrals          ... done (  0.0 sec)
Calculating RI/J V-Matrix + Cholesky decomp.... done (  0.0 sec)
Calculating Nuclear repulsion               ... done (  0.0 sec) ENN=    176.941848777218 Eh

Diagonalization of the overlap matrix:
Smallest eigenvalue                        ... 2.887e-03
Time for diagonalization                   ...    0.001 sec
Threshold for overlap eigenvalues          ... 1.000e-07
Number of eigenvalues below threshold      ... 0
Time for construction of square roots      ...    0.001 sec
Total time needed                          ...    0.004 sec

-------------------
DFT GRID GENERATION
-------------------

General Integration Accuracy     IntAcc      ... 4.388
Radial Grid Type                 RadialGrid  ... OptM3 with GC (2021)
Angular Grid (max. ang.)         AngularGrid ... 4 (Lebedev-302)
Angular grid pruning method      GridPruning ... 4 (adaptive)
Weight generation scheme         WeightScheme... mBecke (2022)
Basis function cutoff            BFCut       ... 1.0000e-11
Integration weight cutoff        WCut        ... 1.0000e-14
Partially contracted basis set               ... off
Rotationally invariant grid construction     ... off
Angular grids for H and He will be reduced by one unit

Total number of grid points                  ...    54569
Total number of batches                      ...      861
Average number of points per batch           ...       63
Average number of grid points per atom       ...     4198
Initializing property integral containers    ... done (  0.0 sec)

SHARK setup successfully completed in   0.3 seconds

Maximum memory used throughout the entire STARTUP-calculation: 15.7 MB


           ************************************************************
           *        Program running with 6 parallel MPI-processes     *
           *              working on a common directory               *
           ************************************************************
Occupation numbers will be reassigned to an Aufbau configuration
             **** ENERGY FILE WAS UPDATED (data/geom_opt/68983/68983.en.tmp) ****
Finished Guess after   0.1 sec
Maximum memory used throughout the entire GUESS-calculation: 7.1 MB


           ************************************************************
           *        Program running with 6 parallel MPI-processes     *
           *              working on a common directory               *
           ************************************************************
----------------------------------------D-I-I-S--------------------------------------------
Iteration    Energy (Eh)           Delta-E    RMSDP     MaxDP     DIISErr   Damp  Time(sec)
-------------------------------------------------------------------------------------------
               ***  Starting incremental Fock matrix formation  ***
    1    -460.7659766153742567     0.00e+00  1.44e-04  3.20e-03  3.73e-03  0.700   0.2
                              *** Initializing SOSCF ***
---------------------------------------S-O-S-C-F--------------------------------------
Iteration    Energy (Eh)           Delta-E    RMSDP     MaxDP     MaxGrad    Time(sec)
--------------------------------------------------------------------------------------
    2    -460.7660369387963328    -6.03e-05  4.33e-04  1.04e-02  2.29e-03     0.2
               *** Restarting incremental Fock matrix formation ***
    3    -460.7661539602023595    -1.17e-04  1.92e-04  3.20e-03  7.28e-04     0.2
    4    -460.7661475217324778     6.44e-06  9.47e-05  1.56e-03  9.06e-04     0.2
    5    -460.7661691548263434    -2.16e-05  5.35e-06  1.84e-04  1.54e-05     0.2
    6    -460.7661691642422284    -9.42e-09  9.70e-07  1.91e-05  6.23e-06     0.2
                 **** Energy Check signals convergence ****

               *****************************************************
               *                     SUCCESS                       *
               *           SCF CONVERGED AFTER   6 CYCLES          *
               *****************************************************

             **** ENERGY FILE WAS UPDATED (data/geom_opt/68983/68983.en.tmp) ****

----------------
TOTAL SCF ENERGY
----------------

Total Energy       :       -460.76616916424223 Eh          -12538.08489 eV

Components:
Nuclear Repulsion  :        176.94184877721770 Eh            4814.83249 eV
Electronic Energy  :       -637.70801794145996 Eh          -17352.91737 eV
One Electron Energy:       -982.59728083511914 Eh          -26737.83134 eV
Two Electron Energy:        344.88926289365912 Eh            9384.91396 eV

Virial components:
Potential Energy   :       -919.09859793187297 Eh          -25009.94433 eV
Kinetic Energy     :        458.33242876763069 Eh           12471.85944 eV
Virial Ratio       :          2.00530998952694

DFT components:
N(Alpha)           :       21.000016479528 electrons
N(Beta)            :       21.000016479528 electrons
N(Total)           :       42.000032959056 electrons
E(X)               :      -32.752125859815 Eh       
E(C)               :       -1.706167094258 Eh       
E(XC)              :      -34.458292954073 Eh       

---------------
SCF CONVERGENCE
---------------

  Last Energy change         ...    9.4159e-09  Tolerance :   1.0000e-08
  Last MAX-Density change    ...    1.9113e-05  Tolerance :   1.0000e-07
  Last RMS-Density change    ...    9.6977e-07  Tolerance :   5.0000e-09
  Last DIIS Error            ...    2.2928e-03  Tolerance :   5.0000e-07
  Last Orbital Gradient      ...    6.2324e-06  Tolerance :   1.0000e-05
  Last Orbital Rotation      ...    8.1867e-06  Tolerance :   1.0000e-05


Total SCF time: 0 days 0 hours 0 min 1 sec 
Finished LeanSCF after   1.3 sec

Maximum memory used throughout the entire LEANSCF-calculation: 10.7 MB


-------------------------------------------------------------------------------
                          DFT DISPERSION CORRECTION                            
                                                                               
                              DFTD3 V3.1  Rev 1                                
                          USING Becke-Johnson damping                          
-------------------------------------------------------------------------------
-------------------------   ----------------
Dispersion correction           -0.017702843
-------------------------   ----------------


-------------------------   --------------------
FINAL SINGLE POINT ENERGY      -460.783872007358
-------------------------   --------------------



           ************************************************************
           *        Program running with 6 parallel MPI-processes     *
           *              working on a common directory               *
           ************************************************************
------------------------------------------------------------------------------
                         ORCA SCF GRADIENT CALCULATION
------------------------------------------------------------------------------

Nuc. rep. gradient        (SHARK) ... done (  0.0 sec)
HCore & Overlap gradient  (SHARK) ... done (  0.0 sec)
Split-RIJ-J gradient      (SHARK) ... done (  0.1 sec)
O(N)X-gradient            (SHARK) ... done (  0.4 sec)
XC gradient                       ... done (  0.5 sec)
Dispersion correction             ... done (  0.1 sec)

-------------------
DISPERSION GRADIENT
-------------------

   1   C   :   -0.000401076   -0.000333259   -0.000038617
   2   P   :   -0.000022927    0.000048649   -0.000308178
   3   C   :   -0.000090675    0.000509983    0.000071428
   4   C   :    0.000488282   -0.000169437   -0.000078816
   5   H   :   -0.000213710   -0.000212166    0.000134140
   6   H   :   -0.000236660   -0.000153412   -0.000021502
   7   H   :   -0.000194994   -0.000202158   -0.000032610
   8   H   :   -0.000081185    0.000268838    0.000033548
   9   H   :   -0.000017244    0.000280620    0.000030465
  10   H   :   -0.000039178    0.000262120    0.000196036
  11   H   :    0.000272832   -0.000059674   -0.000044775
  12   H   :    0.000285981   -0.000119809    0.000111531
  13   H   :    0.000250554   -0.000120296   -0.000052649

[...]
  22   0.0000       0.065455         1.7811 
  23   0.0000       0.065463         1.7813 
  24   0.0000       0.097503         2.6532 
  25   0.0000       0.114852         3.1253 
  26   0.0000       0.114856         3.1254 
  27   0.0000       0.133944         3.6448 
  28   0.0000       0.133952         3.6450 
  29   0.0000       0.165242         4.4965 
  30   0.0000       0.165291         4.4978 
  31   0.0000       0.168776         4.5926 
*Only the first 10 virtual orbitals were printed.

                    ********************************
                    * MULLIKEN POPULATION ANALYSIS *
                    ********************************

-----------------------
MULLIKEN ATOMIC CHARGES
-----------------------
   0 C :   -0.154981
   1 P :    0.124871
   2 C :   -0.154877
   3 C :   -0.155172
   4 H :    0.029194
   5 H :    0.042085
   6 H :    0.042085
   7 H :    0.042063
   8 H :    0.042068
   9 H :    0.029168
  10 H :    0.042133
  11 H :    0.029224
  12 H :    0.042139
Sum of atomic charges:   -0.0000000

--------------------------------
MULLIKEN REDUCED ORBITAL CHARGES
--------------------------------
  0 C s       :     3.076074  s :     3.076074
      pz      :     1.009622  p :     3.056586
      px      :     1.023924
      py      :     1.023041
      dz2     :     0.007421  d :     0.022321
      dxz     :     0.002031
      dyz     :     0.004063
      dx2y2   :     0.005365
      dxy     :     0.003440

  1 P s       :     5.814536  s :     5.814536
      pz      :     3.317526  p :     8.888202
      px      :     2.780074
      py      :     2.790602
      dz2     :     0.018295  d :     0.172390
      dxz     :     0.030747
      dyz     :     0.043571
      dx2y2   :     0.035855
      dxy     :     0.043922

  2 C s       :     3.076028  s :     3.076028
      pz      :     1.009841  p :     3.056529
      px      :     1.021621
      py      :     1.025067
      dz2     :     0.007928  d :     0.022320
      dxz     :     0.001260
      dyz     :     0.004050
      dx2y2   :     0.002949
      dxy     :     0.006133

  3 C s       :     3.076103  s :     3.076103
      pz      :     1.009658  p :     3.056748
      px      :     1.025176
      py      :     1.021914
      dz2     :     0.007379  d :     0.022321
      dxz     :     0.002584
      dyz     :     0.003601
      dx2y2   :     0.003580
      dxy     :     0.005176

  4 H s       :     0.947648  s :     0.947648
      pz      :     0.013586  p :     0.023158
      px      :     0.004863
      py      :     0.004709

  5 H s       :     0.934435  s :     0.934435
      pz      :     0.004978  p :     0.023480
      px      :     0.012823
      py      :     0.005679

  6 H s       :     0.934437  s :     0.934437
      pz      :     0.006381  p :     0.023478
      px      :     0.004941
      py      :     0.012157

  7 H s       :     0.934459  s :     0.934459
      pz      :     0.004871  p :     0.023478
      px      :     0.012230
      py      :     0.006377

  8 H s       :     0.934451  s :     0.934451
      pz      :     0.005106  p :     0.023481
      px      :     0.009074
      py      :     0.009300

  9 H s       :     0.947674  s :     0.947674
      pz      :     0.013151  p :     0.023159
      px      :     0.004779
      py      :     0.005229

 10 H s       :     0.934391  s :     0.934391
      pz      :     0.005271  p :     0.023476
      px      :     0.009888
      py      :     0.008317

 11 H s       :     0.947620  s :     0.947620
      pz      :     0.013746  p :     0.023156
      px      :     0.004597
      py      :     0.004812

 12 H s       :     0.934382  s :     0.934382
      pz      :     0.006443  p :     0.023478
      px      :     0.005159
      py      :     0.011877



                     *******************************
                     * LOEWDIN POPULATION ANALYSIS *
                     *******************************

----------------------
LOEWDIN ATOMIC CHARGES
----------------------
   0 C :   -0.215146
   1 P :    0.440396
   2 C :   -0.215124
   3 C :   -0.215175
   4 H :    0.016263
   5 H :    0.026043
   6 H :    0.026040
   7 H :    0.026030
   8 H :    0.026041
   9 H :    0.016258
  10 H :    0.026052
  11 H :    0.016262
  12 H :    0.026061

-------------------------------
LOEWDIN REDUCED ORBITAL CHARGES
-------------------------------
  0 C s       :     2.904891  s :     2.904891
      pz      :     1.082183  p :     3.253955
      px      :     1.085910
      py      :     1.085862
      dz2     :     0.018560  d :     0.056300
      dxz     :     0.005066
      dyz     :     0.010283
      dx2y2   :     0.013400
      dxy     :     0.008991

  1 P s       :     5.331584  s :     5.331584
      pz      :     3.394685  p :     9.005762
      px      :     2.799732
      py      :     2.811345
      dz2     :     0.022133  d :     0.222259
      dxz     :     0.038086
      dyz     :     0.057149
      dx2y2   :     0.046494
      dxy     :     0.058396

  2 C s       :     2.904892  s :     2.904892
      pz      :     1.085995  p :     3.253934
      px      :     1.077905
      py      :     1.090033
      dz2     :     0.019817  d :     0.056299
      dxz     :     0.002788
      dyz     :     0.010869
      dx2y2   :     0.007432
      dxy     :     0.015392

  3 C s       :     2.904885  s :     2.904885
      pz      :     1.081138  p :     3.253994
      px      :     1.092521
      py      :     1.080335
      dz2     :     0.018558  d :     0.056296
      dxz     :     0.006486
      dyz     :     0.008843
      dx2y2   :     0.009104
      dxy     :     0.013305

  4 H s       :     0.915899  s :     0.915899
      pz      :     0.041108  p :     0.067838
      px      :     0.013386
      py      :     0.013344

  5 H s       :     0.906581  s :     0.906581
      pz      :     0.012760  p :     0.067375
      px      :     0.038831
      py      :     0.015784

  6 H s       :     0.906585  s :     0.906585
      pz      :     0.016958  p :     0.067375
      px      :     0.013679
      py      :     0.036737

  7 H s       :     0.906597  s :     0.906597
      pz      :     0.013037  p :     0.067373
      px      :     0.035101
      py      :     0.019235

  8 H s       :     0.906584  s :     0.906584
      pz      :     0.013709  p :     0.067375
      px      :     0.025132
      py      :     0.028534

  9 H s       :     0.915903  s :     0.915903
      pz      :     0.040872  p :     0.067839
      px      :     0.012076
      py      :     0.014891

 10 H s       :     0.906573  s :     0.906573
      pz      :     0.013473  p :     0.067375
      px      :     0.030904
      py      :     0.022999

 11 H s       :     0.915894  s :     0.915894
      pz      :     0.041246  p :     0.067844
      px      :     0.013867
      py      :     0.012731

 12 H s       :     0.906563  s :     0.906563
      pz      :     0.017008  p :     0.067376
      px      :     0.015711
      py      :     0.034657



                      *****************************
                      * MAYER POPULATION ANALYSIS *
                      *****************************

  NA   - Mulliken gross atomic population
  ZA   - Total nuclear charge
  QA   - Mulliken gross atomic charge
  VA   - Mayer's total valence
  BVA  - Mayer's bonded valence
  FA   - Mayer's free valence

  ATOM       NA         ZA         QA         VA         BVA        FA
  0 C      6.1550     6.0000    -0.1550     3.8887     3.8887    -0.0000
  1 P     14.8751    15.0000     0.1249     3.0795     3.0795    -0.0000
  2 C      6.1549     6.0000    -0.1549     3.8888     3.8888    -0.0000
  3 C      6.1552     6.0000    -0.1552     3.8888     3.8888    -0.0000
  4 H      0.9708     1.0000     0.0292     0.9902     0.9902    -0.0000
  5 H      0.9579     1.0000     0.0421     0.9851     0.9851    -0.0000
  6 H      0.9579     1.0000     0.0421     0.9851     0.9851     0.0000
  7 H      0.9579     1.0000     0.0421     0.9851     0.9851    -0.0000
  8 H      0.9579     1.0000     0.0421     0.9851     0.9851     0.0000
  9 H      0.9708     1.0000     0.0292     0.9902     0.9902    -0.0000
 10 H      0.9579     1.0000     0.0421     0.9851     0.9851    -0.0000
 11 H      0.9708     1.0000     0.0292     0.9902     0.9902    -0.0000
 12 H      0.9579     1.0000     0.0421     0.9851     0.9851    -0.0000

  Mayer bond orders larger than 0.100000
B(  0-C ,  1-P ) :   0.9852 B(  0-C ,  4-H ) :   0.9561 B(  0-C ,  5-H ) :   0.9698 
B(  0-C ,  6-H ) :   0.9698 B(  1-P ,  2-C ) :   0.9853 B(  1-P ,  3-C ) :   0.9853 
B(  2-C ,  7-H ) :   0.9698 B(  2-C ,  8-H ) :   0.9698 B(  2-C ,  9-H ) :   0.9561 
B(  3-C , 10-H ) :   0.9698 B(  3-C , 11-H ) :   0.9561 B(  3-C , 12-H ) :   0.9698 


-------
TIMINGS
-------

Total SCF time: 0 days 0 hours 0 min 0 sec 

Total time                  ....       0.899 sec
Sum of individual times     ....       0.874 sec  ( 97.2%)

SCF preparation             ....       0.053 sec  (  5.9%)
Fock matrix formation       ....       0.729 sec  ( 81.1%)
  Startup                   ....       0.011 sec  (  1.5% of F)
  Exchange formation        ....       0.346 sec  ( 47.5% of F)
  Split-RI-J                ....       0.083 sec  ( 11.4% of F)
  XC integration            ....       0.260 sec  ( 35.7% of F)
    Basis function eval.    ....       0.062 sec  ( 23.8% of XC)
    Density eval.           ....       0.046 sec  ( 17.7% of XC)
    XC-Functional eval.     ....       0.010 sec  (  3.8% of XC)
    XC-Potential eval.      ....       0.054 sec  ( 20.8% of XC)
Diagonalization             ....       0.000 sec  (  0.0%)
Density matrix formation    ....       0.014 sec  (  1.6%)
Total Energy calculation    ....       0.007 sec  (  0.8%)
Population analysis         ....       0.031 sec  (  3.4%)
Orbital Transformation      ....       0.006 sec  (  0.7%)
Orbital Orthonormalization  ....       0.000 sec  (  0.0%)
DIIS solution               ....       0.010 sec  (  1.1%)
SOSCF solution              ....       0.024 sec  (  2.7%)
Finished LeanSCF after   0.9 sec

Maximum memory used throughout the entire LEANSCF-calculation: 11.0 MB


-------------------------------------------------------------------------------
                          DFT DISPERSION CORRECTION                            
                                                                               
                              DFTD3 V3.1  Rev 1                                
                          USING Becke-Johnson damping                          
-------------------------------------------------------------------------------
The B3LYP functional is recognized
Active option DFTDOPT                   ...         4   

molecular C6(AA) [au] = 1663.421895 


            DFT-D V3
 parameters
 s6 scaling factor         :     1.0000 
 a1 scaling factor         :     0.3981 
 s8 scaling factor         :     1.9889 
 a2 scaling factor         :     4.4211 
 ad hoc parameters k1-k3   :    16.0000     1.3333    -4.0000 

 Edisp/kcal,au: -11.067056766394  -0.017636475692 
 E6   /kcal   :  -5.081087607 
 E8   /kcal   :  -5.985969160 
 % E8         :  54.088176163 

-------------------------   ----------------
Dispersion correction           -0.017636476
-------------------------   ----------------


-------------------------   --------------------
FINAL SINGLE POINT ENERGY      -460.784173205277
-------------------------   --------------------

                                *** OPTIMIZATION RUN DONE ***



           ************************************************************
           *        Program running with 6 parallel MPI-processes     *
           *              working on a common directory               *
           ************************************************************

------------------------------------------------------------------------------
                              ORCA PROPERTY CALCULATIONS
------------------------------------------------------------------------------

GBWName                                 ... data/geom_opt/68983/68983.gbw
Number of atoms                         ...     13
Number of basis functions               ...    105
Max core memory                         ...   1024 MB

Electric properties:
Dipole moment                           ... YES
Quadrupole moment                       ...  NO
Static polarizability (Dipole/Dipole)   ...  NO
Static polarizability (Dipole/Quad.)    ...  NO
Static polarizability (Quad./Quad.)     ...  NO
Static polarizability (Velocity)        ...  NO

Atomic electric properties:
Dipole moment                           ...  NO
Quadrupole moment                       ...  NO
Static polarizability                   ...  NO

Choice of electric origin               ... Center of mass
Position of electric origin             ...    -0.054386     0.115114    -0.728561

General magnetic properties:
Magnetizability                         ...  NO

EPR properties:
g-Tensor (aka g-matrix)                 ...  NO
Zero-Field splitting spin-orbit         ...  NO
Zero-field splitting spin-spin          ...  NO
Hyperfine couplings                     ...  NO (   0 nuclei)
Quadrupole couplings                    ...  NO (   0 nuclei)
Contact density                         ...  NO (   0 nuclei)

NMR properties:
Chemical shifts                         ...  NO (   0 nuclei)
Spin-rotation constants                 ...  NO (   0 nuclei)
Spin-spin couplings                     ...  NO (   0 nuclei,    0 pairs)

Choice of magnetic origin               ... GIAO
Position of magnetic origin             ...     0.000000     0.000000     0.000000

Properties with geometric perturbations:
SCF Hessian                             ...  NO
IR spectrum                             ...  NO
VCD spectrum                            ...  NO
X-ray spectroscopy properties:
SCF XES/XAS/RIXS spectra                ...  NO


-------------
DIPOLE MOMENT
-------------

Method             : SCF
Type of density    : Electron Density
Multiplicity       :   1
Irrep              :   0
Energy             :  -460.7665367295849137 Eh
Relativity type    : 
Basis              : AO
                                X                 Y                 Z
Electronic contribution:     -0.322337028       0.682319659      -4.318944283
Nuclear contribution   :      0.353976214      -0.749258916       4.742053289
                        -----------------------------------------
Total Dipole Moment    :      0.031639186      -0.066939257       0.423109006
                        -----------------------------------------
Magnitude (a.u.)       :      0.429538279
Magnitude (Debye)      :      1.091799538



--------------------
Rotational spectrum 
--------------------
 
Rotational constants in cm-1:             0.189935             0.189930             0.122286 
Rotational constants in MHz :          5694.105064          5693.969609          3666.036794 

Dipole components along the rotational axes: 
x,y,z [a.u.] :    -0.000020    -0.000094     0.429538 
x,y,z [Debye]:    -0.000051    -0.000239     1.091800 

 

Dipole moment calculation done in   0.0 sec 

Maximum memory used throughout the entire PROP-calculation: 5.7 MB

--------------------------------
SUGGESTED CITATIONS FOR THIS RUN
--------------------------------

Below you find a list of papers that are relevant to this ORCA run
We neither can nor want to force you to cite these papers, but we appreciate if you do
You receive ORCA, which is the product of decades of hard work by many enthusiastic individuals, for free
The only thing we kindly ask in return is that you cite our papers,
We deeply appreciate it, if you show your appreciation for ORCA by not just citing the generic ORCA reference.

Please note that relegating all ORCA citations to the supporting information does *not* help us.
SI sections are not indexed - citations you put there will not count into any citation statistics
But we need these citations in order to attract the funding resources that allow us to do what we are doing

Therefore, if you are a happy ORCA user, please consider citing a few of the papers listed below in the main body of your paper

In addition to the list printed below, the program has created the file data/geom_opt/68983/68983.bibtex that contains the list in bibtex format
You can import this file easily into all common literature databanks and citation aid programs


List of essential papers. We consider these as the minimum necessary citations

  1. Neese,F.
     Software update: the ORCA program system, version 5.0
     WIRES Comput. Molec. Sci., 2022 12(1)e1606
     doi.org/10.1002/wcms.1606

List of papers to cite with high priority. The work reported in these papers was absolutely
necessary for this run to complete.
Our perspective: the developers of density functionals and basis sets usually get cited in chemistry papers
Good! But without the algorithms to do something with them, the functionals or basis sets would not do anything.
Hence, in our opinion, the algorithm design and method developments papers are equally worthy of getting cited

  1. Neese,F.
     An improvement of the resolution of the identity approximation for the formation of the Coulomb matrix
     J. Comp. Chem., 2003 24(14)1740-1747
     doi.org/10.1002/jcc.10318
  2. Neese,F.
     The SHARK Integral Generation and Digestion System
     J. Comp. Chem., 2022  1-16
     doi.org/10.1002/jcc.26942
  3. Grimme,S.; Antony,J.; Ehrlich,S.; Krieg,H.
     A consistent and accurate ab initio parametrization of density functional dispersion correction (DFT-D) for the 94 elements H-Pu
     J. Chem. Phys., 2010 132 154104-XXXX
     doi.org/10.1063/1.3382344
  4. Grimme,S.; Ehrlich,S.; Goerigk,L.
     Effect of the damping function in dispersion corrected density functional theory
     J. Comput. Chem., 2011 32(7)1456-1465
     doi.org/10.1002/jcc.21759

List of suggested additional citations. These are papers that are important in the 'surrounding' of 
of this run, or papers that preceded the highly important papers. If you like your results we are grateful for a citation.

  1. Neese,F.
     The ORCA program system
     WIRES Comput. Molec. Sci., 2012 2(1)73-78
     doi.org/10.1002/wcms.81
  2. Neese,F.
     Software update: the ORCA program system, version 4.0
     WIRES Comput. Molec. Sci., 2018 8(1)1-6
     doi.org/10.1002/wcms.1327
  3. Neese,F.; Wennmohs,F.; Becker,U.; Riplinger,C.
     The ORCA quantum chemistry program package
     J. Chem. Phys., 2020 152 Art. No. L224108
     doi.org/10.1063/5.0004608

List of optional additional citations

  1. Neese,F.
     Approximate second-order SCF convergence for spin unrestricted wavefunctions
     Chem. Phys. Lett., 2000 325(1-3)93-98
     doi.org/10.1016/s0009-2614(00)00662-x

Timings for individual modules:

Sum of individual times          ...       17.743 sec (=   0.296 min)
Startup calculation              ...        2.274 sec (=   0.038 min)  12.8 %
SCF iterations                   ...        9.335 sec (=   0.156 min)  52.6 %
Property calculations            ...        0.119 sec (=   0.002 min)   0.7 %
SCF Gradient evaluation          ...        5.988 sec (=   0.100 min)  33.7 %
Geometry relaxation              ...        0.027 sec (=   0.000 min)   0.2 %
                             ****ORCA TERMINATED NORMALLY****
TOTAL RUN TIME: 0 days 0 hours 0 minutes 18 seconds 757 msec
