
                                 *****************
                                 * O   R   C   A *
                                 *****************

                                            #,                                       
                                            ###                                      
                                            ####                                     
                                            #####                                    
                                            ######                                   
                                           ########,                                 
                                     ,,################,,,,,                         
                               ,,#################################,,                 
                          ,,##########################################,,             
                       ,#########################################, ''#####,          
                    ,#############################################,,   '####,        
                  ,##################################################,,,,####,       
                ,###########''''           ''''###############################       
              ,#####''   ,,,,##########,,,,          '''####'''          '####       
            ,##' ,,,,###########################,,,                        '##       
           ' ,,###''''                  '''############,,,                           
         ,,##''                                '''############,,,,        ,,,,,,###''
      ,#''                                            '''#######################'''  
     '                                                          ''''####''''         
             ,#######,   #######,   ,#######,      ##                                
            ,#'     '#,  ##    ##  ,#'     '#,    #''#        ,####,   ,####,        
            ##       ##  ##   ,#'  ##            #'  '#       #'       #'  '#        
            ##       ##  #######   ##           ,######,      #####,   #    #        
            '#,     ,#'  ##    ##  '#,     ,#' ,#      #,     #,   #   #,  ,#        
             '#######'   ##     ##  '#######'  #'      '#     '####' # '####'        



                #########################################################
                #                        -***-                          #
                #          Department of theory and spectroscopy        #
                #                                                       #
                #                      Frank Neese                      #
                #                                                       #
                #     Directorship, Architecture, Infrastructure        #
                #                    SHARK, DRIVERS                     #
                #        Core code/Algorithms in most modules           #
                #                                                       #
                #        Max Planck Institute fuer Kohlenforschung      #
                #                Kaiser Wilhelm Platz 1                 #
                #                 D-45470 Muelheim/Ruhr                 #
                #                      Germany                          #
                #                                                       #
                #                  All rights reserved                  #
                #                        -***-                          #
                #########################################################


                         Program Version 6.0.0  -   RELEASE   -


 With contributions from (in alphabetic order):
   Daniel Aravena         : Magnetic Suceptibility
   Michael Atanasov       : Ab Initio Ligand Field Theory (pilot matlab implementation)
   Alexander A. Auer      : GIAO ZORA, VPT2 properties, NMR spectrum
   Ute Becker             : All parallelization in ORCA, NUMFREQ, NUMCALC
   Giovanni Bistoni       : ED, misc. LED, open-shell LED, HFLD
   Martin Brehm           : Molecular dynamics
   Dmytro Bykov           : pre 5.0 version of the SCF Hessian
   Marcos Casanova-Páez   : Triplet and SCS-CIS(D). UHF-(DLPNO)-IP/EA/STEOM-CCSD. UHF-CVS-IP/STEOM-CCSD
   Vijay G. Chilkuri      : MRCI spin determinant printing, contributions to CSF-ICE
   Pauline Colinet        : FMM embedding
   Dipayan Datta          : RHF DLPNO-CCSD density
   Achintya Kumar Dutta   : EOM-CC, STEOM-CC
   Nicolas Foglia         : Exact transition moments, OPA infrastructure, MCD improvements
   Dmitry Ganyushin       : Spin-Orbit,Spin-Spin,Magnetic field MRCI
   Miquel Garcia          : C-PCM and meta-GGA Hessian, CCSD/C-PCM, Gaussian charge scheme
   Tiago L. C. Gouveia    : GS-ROHF, GS-ROCIS
   Yang Guo               : DLPNO-NEVPT2, F12-NEVPT2, CIM, IAO-localization
   Andreas Hansen         : Spin unrestricted coupled pair/coupled cluster methods
   Ingolf Harden          : AUTO-CI MPn and infrastructure 
   Benjamin Helmich-Paris : MC-RPA, TRAH-(SCF,CASSCF), AVAS, COSX integrals, SCF dyn. polar.
   Lee Huntington         : MR-EOM, pCC
   Robert Izsak           : Overlap fitted RIJCOSX, COSX-SCS-MP3, EOM
   Riya Kayal             : Wick's Theorem for AUTO-CI, AUTO-CI UHF-CCSDT
   Emily Kempfer          : AUTO-CI, RHF CISDT and CCSDT
   Christian Kollmar      : KDIIS, OOCD, Brueckner-CCSD(T), CCSD density, CASPT2, CASPT2-K, improved NEVPT2
   Axel Koslowski         : Symmetry handling
   Simone Kossmann        : Meta GGA functionals, TD-DFT gradient, OOMP2, (MP2 Hessian; deprecated post 5.0)
   Lucas Lang             : DCDCAS
   Marvin Lechner         : AUTO-CI (C++ implementation), FIC-MRCC
   Spencer Leger          : CASSCF response
   Dagmar Lenk            : GEPOL surface, SMD, ORCA-2-JSON
   Dimitrios Liakos       : Extrapolation schemes; Compound Job, initial MDCI parallelization
   Dimitrios Manganas     : Further ROCIS development; embedding schemes. LFT, Crystal Embedding
   Dimitrios Pantazis     : SARC Basis sets
   Anastasios Papadopoulos: AUTO-CI, single reference methods and gradients
   Taras Petrenko         : pre 6.0 DFT Hessian and TD-DFT gradient, (ASA, deprecated), ECA, 1-Electron XAS/XES, NRVS
   Peter Pinski           : DLPNO-MP2, DLPNO-MP2 Gradient
   Christoph Reimann      : Effective Core Potentials
   Marius Retegan         : Local ZFS, SOC
   Christoph Riplinger    : Optimizer, TS searches, QM/MM, DLPNO-CCSD(T), (RO)-DLPNO pert. Triples
   Michael Roemelt        : Original ROCIS implementation
   Masaaki Saitow         : Open-shell DLPNO-CCSD energy and density
   Barbara Sandhoefer     : DKH picture change effects
   Kantharuban Sivalingam : CASSCF convergence/infrastructure, NEVPT2 and variants, FIC-MRCI
   Bernardo de Souza      : ESD, SOC TD-DFT
   Georgi Stoychev        : AutoAux, RI-MP2 NMR, DLPNO-MP2 response, X2C
   Van Anh Tran           : RI-MP2 g-tensors
   Willem Van den Heuvel  : Paramagnetic NMR
   Zikuan Wang            : NOTCH, Electric field optimization 
   Frank Wennmohs         : Technical directorship and infrastructure
   Hang Xu                : AUTO-CI-Response properties 


 We gratefully acknowledge several colleagues who have allowed us to
 interface, adapt or use parts of their codes:
   Stefan Grimme, W. Hujo, H. Kruse, P. Pracht,  : VdW corrections, initial TS optimization,
                  C. Bannwarth, S. Ehlert,         DFT functionals, gCP, sTDA/sTD-DF
                  L. Wittmann, M. Mueller
   Ed Valeev, F. Pavosevic, A. Kumar             : LibInt (2-el integral package), F12 methods
   Garnet Chan, S. Sharma, J. Yang, R. Olivares  : DMRG
   Ulf Ekstrom                                   : XCFun DFT Library
   Mihaly Kallay                                 : mrcc  (arbitrary order and MRCC methods)
   Frank Weinhold                                : gennbo (NPA and NBO analysis)
   Simon Mueller                                 : openCOSMO-RS
   Christopher J. Cramer and Donald G. Truhlar   : smd solvation model
   Lars Goerigk                                  : TD-DFT with DH, B97 family of functionals
   V. Asgeirsson, H. Jonsson                     : NEB implementation
   FAccTs GmbH                                   : IRC, NEB, NEB-TS, DLPNO-Multilevel, CI-OPT
                                                   MM, QMMM, 2- and 3-layer-ONIOM, Crystal-QMMM,
                                                   LR-CPCM, SF, NACMEs, symmetry and pop. for TD-DFT,
                                                   nearIR, NL-DFT gradient (VV10), updates on ESD,
                                                   ML-optimized integration grids, MBIS, APM,
                                                   GOAT, DOCKER, SOLVATOR, interface openCOSMO-RS
   S Lehtola, MJT Oliveira, MAL Marques          : LibXC Library
   Liviu Ungur et al                             : ANISO software


 Your calculation uses the libint2 library for the computation of 2-el integrals
 For citations please refer to: http://libint.valeyev.net

 Your ORCA version has been built with support for libXC version: 6.2.2
 For citations please refer to: https://libxc.gitlab.io

 This ORCA versions uses:
   CBLAS   interface :  Fast vector & matrix operations
   LAPACKE interface :  Fast linear algebra routines
   Shared memory     :  Shared parallel matrices


Your calculation utilizes the atom-pairwise dispersion correction
with the zero-damping scheme (D30)


XCFun DFT library Copyright 2009-2010 Ulf Ekstrom and contributors.
See http://admol.org/xcfun for more information.
This is free software; see the source code for copying conditions.
There is ABSOLUTELY NO WARRANTY; not even for MERCHANTABILITY or FITNESS FOR A PARTICULAR PURPOSE.
For details see the documentation.
Scientific users of this library should cite U. Ekstrom, L. Visscher, R. Bast, A. J. Thorvaldsen and K. Ruud;
J.Chem.Theor.Comp. 2010, DOI: 10.1021/ct100117s
XCFun Version 0.99 

Warning: RI is on but no J-basis has been assigned. Assigning Def2/J (nothing to worry about!)
================================================================================

----- Orbital basis set information -----
Your calculation utilizes the basis: def2-TZVP
   F. Weigend and R. Ahlrichs, Phys. Chem. Chem. Phys. 7, 3297 (2005).

----- AuxJ basis set information -----
Your calculation utilizes the auxiliary basis: def2/J
   F. Weigend, Phys. Chem. Chem. Phys. 8, 1057 (2006).

================================================================================
                                        WARNINGS
                       Please study these warnings very carefully!
================================================================================

WARNING: Functional chosen is sensitive to the integration grid.
         DEFGRID3 seems to be a minimum grid for robust results!

================================================================================
                                       INPUT FILE
================================================================================
NAME = data/single_point_P_M06-2x/11437688/11437688.inp
|  1> ! RIJCOSX M062X def2-TZVP D3ZERO NormalSCF
|  2> %pal
|  3> nprocs 6
|  4> end
|  5> 
|  6> * xyz 0 1
|  7>   C           6.00817329035668     -0.05014518225633     -0.29556828097337
|  8>   C           4.92566218719629     -0.60861611903769      0.28899081976846
|  9>   C           3.52206430525716     -0.49406787988684     -0.13727556269009
| 10>   C           2.51742605909672     -1.15456339674567      0.60819508420325
| 11>   C           1.16440266281937     -1.07211729542583      0.25061175617403
| 12>   C           0.76988973300777     -0.32621496803741     -0.87811378422720
| 13>   C           1.77041757865562      0.32315916620678     -1.64083973130615
| 14>   C           3.11576625350475      0.25060110662427     -1.27325854097187
| 15>   P          -0.98015875615548     -0.14285041205942     -1.44589263800139
| 16>   C          -1.84717986675306     -1.30454958207845     -0.29354228414640
| 17>   C          -1.90755546523213     -2.66327711498957     -0.67655414528895
| 18>   C          -2.52720773199632     -3.61137536199749      0.15144870878150
| 19>   C          -3.11429999600329     -3.20982447171090      1.36431288422583
| 20>   C          -3.07207573905653     -1.85823805249020      1.74524870715332
| 21>   C          -2.43935244029255     -0.90980917335175      0.92430654601661
| 22>   C          -1.42114253716231      1.49325989534027     -0.69788066629884
| 23>   C          -2.64290039283412      2.07588036748995     -1.10271590442750
| 24>   C          -3.06135528310804      3.30261474787290     -0.56563656858145
| 25>   C          -2.25316026160312      3.97400377764696      0.36867670097893
| 26>   C          -1.02968269892939      3.40885674384995      0.76543118826553
| 27>   C          -0.61547240445283      2.17381326267672      0.23919581003574
| 28>   H           5.93524009569660      0.57765305656110     -1.19796735906916
| 29>   H           7.01643226538143     -0.20613614526348      0.11626958080607
| 30>   H           5.08191281835267     -1.22600202727300      1.19174644929879
| 31>   H           2.80950988258174     -1.74110905081502      1.49426573017759
| 32>   H           0.40546047516113     -1.58772257363650      0.85758470064043
| 33>   H           1.48040159688083      0.89877050959037     -2.53496250825573
| 34>   H           3.86822024024797      0.77300409134052     -1.88299482217085
| 35>   H          -1.45880346717150     -2.97694749521002     -1.63318374815886
| 36>   H          -2.56123313867598     -4.66814950963031     -0.15572567093726
| 37>   H          -3.60921984014633     -3.95110727917180      2.01045005115666
| 38>   H          -3.53199200689082     -1.53791095518302      2.69313257640009
| 39>   H          -2.40023233095720      0.14575490560231      1.23240010595712
| 40>   H          -3.27095777128103      1.55693087720340     -1.84511440748183
| 41>   H          -4.01881998870013      3.74254463486160     -0.88506116384252
| 42>   H          -2.57563221799101      4.94122843894538      0.78390293051479
| 43>   H          -0.39193083635951      3.93131776096334      1.49544823970748
| 44>   H           0.33938572755591      1.73134170347486      0.56067021656721
| 45> **                         ****END OF INPUT****
================================================================================

                       ****************************
                       * Single Point Calculation *
                       ****************************

---------------------------------
CARTESIAN COORDINATES (ANGSTROEM)
---------------------------------
  C      6.008173   -0.050145   -0.295568
  C      4.925662   -0.608616    0.288991
  C      3.522064   -0.494068   -0.137276
  C      2.517426   -1.154563    0.608195
  C      1.164403   -1.072117    0.250612
  C      0.769890   -0.326215   -0.878114
  C      1.770418    0.323159   -1.640840
  C      3.115766    0.250601   -1.273259
  P     -0.980159   -0.142850   -1.445893
  C     -1.847180   -1.304550   -0.293542
  C     -1.907555   -2.663277   -0.676554
  C     -2.527208   -3.611375    0.151449
  C     -3.114300   -3.209824    1.364313
  C     -3.072076   -1.858238    1.745249
  C     -2.439352   -0.909809    0.924307
  C     -1.421143    1.493260   -0.697881
  C     -2.642900    2.075880   -1.102716
  C     -3.061355    3.302615   -0.565637
  C     -2.253160    3.974004    0.368677
  C     -1.029683    3.408857    0.765431
  C     -0.615472    2.173813    0.239196
  H      5.935240    0.577653   -1.197967
  H      7.016432   -0.206136    0.116270
  H      5.081913   -1.226002    1.191746
  H      2.809510   -1.741109    1.494266
  H      0.405460   -1.587723    0.857585
  H      1.480402    0.898771   -2.534963
  H      3.868220    0.773004   -1.882995
  H     -1.458803   -2.976947   -1.633184
  H     -2.561233   -4.668150   -0.155726
  H     -3.609220   -3.951107    2.010450
  H     -3.531992   -1.537911    2.693133
  H     -2.400232    0.145755    1.232400
  H     -3.270958    1.556931   -1.845114
  H     -4.018820    3.742545   -0.885061
  H     -2.575632    4.941228    0.783903
  H     -0.391931    3.931318    1.495448
  H      0.339386    1.731342    0.560670

----------------------------
CARTESIAN COORDINATES (A.U.)
----------------------------
  NO LB      ZA    FRAG     MASS         X           Y           Z
   0 C     6.0000    0    12.011   11.353802   -0.094761   -0.558543
   1 C     6.0000    0    12.011    9.308153   -1.150118    0.546114
   2 C     6.0000    0    12.011    6.655737   -0.933653   -0.259413
   3 C     6.0000    0    12.011    4.757246   -2.181809    1.149322
   4 C     6.0000    0    12.011    2.200402   -2.026008    0.473588
   5 C     6.0000    0    12.011    1.454881   -0.616457   -1.659395
   6 C     6.0000    0    12.011    3.345604    0.610682   -3.100738
   7 C     6.0000    0    12.011    5.887945    0.473567   -2.406110
   8 P    15.0000    0    30.974   -1.852232   -0.269948   -2.732341
   9 C     6.0000    0    12.011   -3.490664   -2.465241   -0.554715
  10 C     6.0000    0    12.011   -3.604757   -5.032864   -1.278502
  11 C     6.0000    0    12.011   -4.775730   -6.824510    0.286197
  12 C     6.0000    0    12.011   -5.885174   -6.065689    2.578178
  13 C     6.0000    0    12.011   -5.805382   -3.511561    3.298042
  14 C     6.0000    0    12.011   -4.609708   -1.719290    1.746686
  15 C     6.0000    0    12.011   -2.685570    2.821852   -1.318803
  16 C     6.0000    0    12.011   -4.994358    3.922845   -2.083831
  17 C     6.0000    0    12.011   -5.785123    6.241037   -1.068898
  18 C     6.0000    0    12.011   -4.257856    7.509779    0.696698
  19 C     6.0000    0    12.011   -1.945818    6.441806    1.446455
  20 C     6.0000    0    12.011   -1.163074    4.107912    0.452015
  21 H     1.0000    0     1.008   11.215978    1.091606   -2.263830
  22 H     1.0000    0     1.008   13.259135   -0.389541    0.219718
  23 H     1.0000    0     1.008    9.603423   -2.316808    2.252074
  24 H     1.0000    0     1.008    5.309204   -3.290219    2.823753
  25 H     1.0000    0     1.008    0.766209   -3.000361    1.620600
  26 H     1.0000    0     1.008    2.797554    1.698430   -4.790385
  27 H     1.0000    0     1.008    7.309877    1.460766   -3.558345
  28 H     1.0000    0     1.008   -2.756739   -5.625615   -3.086270
  29 H     1.0000    0     1.008   -4.840029   -8.821524   -0.294279
  30 H     1.0000    0     1.008   -6.820437   -7.466511    3.799200
  31 H     1.0000    0     1.008   -6.674498   -2.906231    5.089283
  32 H     1.0000    0     1.008   -4.535782    0.275437    2.328899
  33 H     1.0000    0     1.008   -6.181214    2.942173   -3.486761
  34 H     1.0000    0     1.008   -7.594469    7.072384   -1.672523
  35 H     1.0000    0     1.008   -4.867240    9.337569    1.481362
  36 H     1.0000    0     1.008   -0.740642    7.429114    2.825988
  37 H     1.0000    0     1.008    0.641346    3.271762    1.059513

--------------------------------
INTERNAL COORDINATES (ANGSTROEM)
--------------------------------
 C      0   0   0     0.000000000000     0.00000000     0.00000000
 C      1   0   0     1.351084533978     0.00000000     0.00000000
 C      2   1   0     1.471363769464   127.35777174     0.00000000
 C      3   2   1     1.414665620851   119.23805361   180.05801089
 C      4   3   2     1.401904243157   121.56925911   179.62179489
 C      5   4   3     1.409266504018   120.37130324     0.36139830
 C      6   5   4     1.415801400794   118.45131771     0.50216524
 C      7   6   5     1.396547049124   121.00768642   358.79877429
 P      6   5   4     1.848963250474   124.29163265   180.07781800
 C      9   6   5     1.851805039920   100.94408604   353.75308446
 C     10   9   6     1.412969853662   117.03759002   273.80167600
 C     11  10   9     1.403013878775   120.57824883   178.93674664
 C     12  11  10     1.406044078976   120.03316334     1.02968840
 C     13  12  11     1.404877516969   119.74259565   359.70707940
 C     14  13  12     1.404920689404   120.30223529   359.60315455
 C      9   6   5     1.852254178805   100.89041939    97.38470188
 C     16   9   6     1.412809414781   117.02815240   170.03441158
 C     17  16   9     1.403009603745   120.58415479   178.88022673
 C     18  17  16     1.406016965674   120.03003955     0.99353332
 C     19  18  17     1.404885276226   119.74649820   359.72581751
 C     20  19  18     1.404929265742   120.30515200   359.61170474
 H      1   2   3     1.101714107967   122.47200109   359.92231681
 H      1   2   3     1.100240776218   120.90912258   179.94561892
 H      2   1   3     1.104783845860   118.11323693   180.05237172
 H      4   3   2     1.102029924234   118.94504358     0.03969310
 H      5   4   3     1.100117358485   119.83643197   180.71145097
 H      7   6   5     1.102221950687   119.37977100   179.13242578
 H      8   7   6     1.100395480369   119.22394362   180.46694715
 H     11  10   9     1.102228497308   119.44047081   359.19126899
 H     12  11  10     1.101038340368   119.84090736   180.42054101
 H     13  12  11     1.100881052273   120.11263817   179.41955004
 H     14  13  12     1.101188563447   120.04686161   179.88061745
 H     15  14  13     1.100303389711   120.00141961   180.62345805
 H     17  16   9     1.102234177218   119.44537574   359.06160166
 H     18  17  16     1.101049063384   119.84531329   180.38799793
 H     19  18  17     1.100874438696   120.11937168   179.42427459
 H     20  19  18     1.101189288002   120.04803820   179.88644066
 H     21  20  19     1.100400348519   119.99230373   180.57296835

---------------------------
INTERNAL COORDINATES (A.U.)
---------------------------
 C      0   0   0     0.000000000000     0.00000000     0.00000000
 C      1   0   0     2.553179752995     0.00000000     0.00000000
 C      2   1   0     2.780474567661   127.35777174     0.00000000
 C      3   2   1     2.673330594483   119.23805361   180.05801089
 C      4   3   2     2.649215085549   121.56925911   179.62179489
 C      5   4   3     2.663127742302   120.37130324     0.36139830
 C      6   5   4     2.675476907522   118.45131771     0.50216524
 C      7   6   5     2.639091455980   121.00768642   358.79877429
 P      6   5   4     3.494034175081   124.29163265   180.07781800
 C      9   6   5     3.499404378865   100.94408604   353.75308446
 C     10   9   6     2.670126058908   117.03759002   273.80167600
 C     11  10   9     2.651311992975   120.57824883   178.93674664
 C     12  11  10     2.657038241486   120.03316334     1.02968840
 C     13  12  11     2.654833758775   119.74259565   359.70707940
 C     14  13  12     2.654915342853   120.30223529   359.60315455
 C      9   6   5     3.500253128353   100.89041939    97.38470188
 C     16   9   6     2.669822873362   117.02815240   170.03441158
 C     17  16   9     2.651303914339   120.58415479   178.88022673
 C     18  17  16     2.656987004771   120.03003955     0.99353332
 C     19  18  17     2.654848421646   119.74649820   359.72581751
 C     20  19  18     2.654931549784   120.30515200   359.61170474
 H      1   2   3     2.081937941935   122.47200109   359.92231681
 H      1   2   3     2.079153748425   120.90912258   179.94561892
 H      2   1   3     2.087738905855   118.11323693   180.05237172
 H      4   3   2     2.082534748188   118.94504358     0.03969310
 H      5   4   3     2.078920522710   119.83643197   180.71145097
 H      7   6   5     2.082897625595   119.37977100   179.13242578
 H      8   7   6     2.079446096902   119.22394362   180.46694715
 H     11  10   9     2.082909996916   119.44047081   359.19126899
 H     12  11  10     2.080660926243   119.84090736   180.42054101
 H     13  12  11     2.080363694818   120.11263817   179.41955004
 H     14  13  12     2.080944806721   120.04686161   179.88061745
 H     15  14  13     2.079272070779   120.00141961   180.62345805
 H     17  16   9     2.082920730390   119.44537574   359.06160166
 H     18  17  16     2.080681189806   119.84531329   180.38799793
 H     19  18  17     2.080351196970   120.11937168   179.42427459
 H     20  19  18     2.080946175932   120.04803820   179.88644066
 H     21  20  19     2.079455296372   119.99230373   180.57296835

---------------------
BASIS SET INFORMATION
---------------------
There are 3 groups of distinct atoms

 Group   1 Type C   : 11s6p2d1f contracted to 5s3p2d1f pattern {62111/411/11/1}
 Group   2 Type P   : 14s9p3d1f contracted to 5s5p2d1f pattern {73211/51111/21/1}
 Group   3 Type H   : 5s1p contracted to 3s1p pattern {311/1}

Atom   0C    basis set group =>   1
Atom   1C    basis set group =>   1
Atom   2C    basis set group =>   1
Atom   3C    basis set group =>   1
Atom   4C    basis set group =>   1
Atom   5C    basis set group =>   1
Atom   6C    basis set group =>   1
Atom   7C    basis set group =>   1
Atom   8P    basis set group =>   2
Atom   9C    basis set group =>   1
Atom  10C    basis set group =>   1
Atom  11C    basis set group =>   1
Atom  12C    basis set group =>   1
Atom  13C    basis set group =>   1
Atom  14C    basis set group =>   1
Atom  15C    basis set group =>   1
Atom  16C    basis set group =>   1
Atom  17C    basis set group =>   1
Atom  18C    basis set group =>   1
Atom  19C    basis set group =>   1
Atom  20C    basis set group =>   1
Atom  21H    basis set group =>   3
Atom  22H    basis set group =>   3
Atom  23H    basis set group =>   3
Atom  24H    basis set group =>   3
Atom  25H    basis set group =>   3
Atom  26H    basis set group =>   3
Atom  27H    basis set group =>   3
Atom  28H    basis set group =>   3
Atom  29H    basis set group =>   3
Atom  30H    basis set group =>   3
Atom  31H    basis set group =>   3
Atom  32H    basis set group =>   3
Atom  33H    basis set group =>   3
Atom  34H    basis set group =>   3
Atom  35H    basis set group =>   3
Atom  36H    basis set group =>   3
Atom  37H    basis set group =>   3
---------------------------------
AUXILIARY/J BASIS SET INFORMATION
---------------------------------
There are 3 groups of distinct atoms

 Group   1 Type C   : 12s5p4d2f1g contracted to 6s4p3d1f1g pattern {711111/2111/211/2/1}
 Group   2 Type P   : 14s5p5d2f1g contracted to 8s4p3d1f1g pattern {71111111/2111/311/2/1}
 Group   3 Type H   : 5s2p1d contracted to 3s1p1d pattern {311/2/1}

Atom   0C    basis set group =>   1
Atom   1C    basis set group =>   1
Atom   2C    basis set group =>   1
Atom   3C    basis set group =>   1
Atom   4C    basis set group =>   1
Atom   5C    basis set group =>   1
Atom   6C    basis set group =>   1
Atom   7C    basis set group =>   1
Atom   8P    basis set group =>   2
Atom   9C    basis set group =>   1
Atom  10C    basis set group =>   1
Atom  11C    basis set group =>   1
Atom  12C    basis set group =>   1
Atom  13C    basis set group =>   1
Atom  14C    basis set group =>   1
Atom  15C    basis set group =>   1
Atom  16C    basis set group =>   1
Atom  17C    basis set group =>   1
Atom  18C    basis set group =>   1
Atom  19C    basis set group =>   1
Atom  20C    basis set group =>   1
Atom  21H    basis set group =>   3
Atom  22H    basis set group =>   3
Atom  23H    basis set group =>   3
Atom  24H    basis set group =>   3
Atom  25H    basis set group =>   3
Atom  26H    basis set group =>   3
Atom  27H    basis set group =>   3
Atom  28H    basis set group =>   3
Atom  29H    basis set group =>   3
Atom  30H    basis set group =>   3
Atom  31H    basis set group =>   3
Atom  32H    basis set group =>   3
Atom  33H    basis set group =>   3
Atom  34H    basis set group =>   3
Atom  35H    basis set group =>   3
Atom  36H    basis set group =>   3
Atom  37H    basis set group =>   3


           ************************************************************
           *        Program running with 6 parallel MPI-processes     *
           *              working on a common directory               *
           ************************************************************
------------------------------------------------------------------------------
                             ORCA STARTUP CALCULATIONS
                           -- RI-GTO INTEGRALS CHOSEN --
------------------------------------------------------------------------------
------------------------------------------------------------------------------
                   ___                                                        
                  /   \      - P O W E R E D   B Y -                         
                 /     \                                                     
                 |  |  |   _    _      __       _____    __    __             
                 |  |  |  | |  | |    /  \     |  _  \  |  |  /  |          
                  \  \/   | |  | |   /    \    | | | |  |  | /  /          
                 / \  \   | |__| |  /  /\  \   | |_| |  |  |/  /          
                |  |  |   |  __  | /  /__\  \  |    /   |      \           
                |  |  |   | |  | | |   __   |  |    \   |  |\   \          
                \     /   | |  | | |  |  |  |  | |\  \  |  | \   \       
                 \___/    |_|  |_| |__|  |__|  |_| \__\ |__|  \__/        
                                                                              
                      - O R C A' S   B I G   F R I E N D -                    
                                      &                                       
                       - I N T E G R A L  F E E D E R -                       
                                                                              
 v1 FN, 2020, v2 2021, v3 2022-2024                                           
------------------------------------------------------------------------------


----------------------
SHARK INTEGRAL PACKAGE
----------------------

Number of atoms                             ...     38
Number of basis functions                   ...    759
Number of shells                            ...    301
Maximum angular momentum                    ...      3
Integral batch strategy                     ... SHARK/LIBINT Hybrid
RI-J (if used) integral strategy            ... SPLIT-RIJ (Revised 2003 algorithm where possible)
Printlevel                                  ...      1
Contraction scheme used                     ... SEGMENTED contraction
Prescreening option                         ... SCHWARTZ
   Thresh                                   ... 1.000e-10
   Tcut                                     ... 1.000e-11
   Tpresel                                  ... 1.000e-11 
Coulomb Range Separation                    ... NOT USED
Exchange Range Separation                   ... NOT USED
Multipole approximations                    ... NOT USED
Finite Nucleus Model                        ... NOT USED
CABS basis                                  ... NOT available
Auxiliary Coulomb fitting basis             ... AVAILABLE
   # of basis functions in Aux-J            ...   1218
   # of shells in Aux-J                     ...    402
   Maximum angular momentum in Aux-J        ...      4
Auxiliary J/K fitting basis                 ... NOT available
Auxiliary Correlation fitting basis         ... NOT available
Auxiliary 'external' fitting basis          ... NOT available

Checking pre-screening integrals            ... done (  0.0 sec) Dimension = 301
Check shell pair data                       ... done (  0.0 sec)
Shell pair information
Shell pair cut-off parameter TPreSel        ...   1.0e-11
Total number of shell pairs                 ...     45451
Shell pairs after pre-screening             ...     31575
Total number of primitive shell pairs       ...    140712
Primitive shell pairs kept                  ...     64473
          la=0 lb=0:   8092 shell pairs
          la=1 lb=0:   9227 shell pairs
          la=1 lb=1:   2640 shell pairs
          la=2 lb=0:   4434 shell pairs
          la=2 lb=1:   2551 shell pairs
          la=2 lb=2:    638 shell pairs
          la=3 lb=0:   2081 shell pairs
          la=3 lb=1:   1193 shell pairs
          la=3 lb=2:    575 shell pairs
          la=3 lb=3:    144 shell pairs

Calculating one electron integrals          ... done (  0.1 sec)
Calculating RI/J V-Matrix + Cholesky decomp.... done (  0.1 sec)
Calculating Nuclear repulsion               ... done (  0.0 sec) ENN=   1608.246673568727 Eh

Diagonalization of the overlap matrix:
Smallest eigenvalue                        ... 6.950e-06
Time for diagonalization                   ...    0.114 sec
Threshold for overlap eigenvalues          ... 1.000e-07
Number of eigenvalues below threshold      ... 0
Time for construction of square roots      ...    0.054 sec
Total time needed                          ...    0.176 sec

-------------------
DFT GRID GENERATION
-------------------

General Integration Accuracy     IntAcc      ... 4.388
Radial Grid Type                 RadialGrid  ... OptM3 with GC (2021)
Angular Grid (max. ang.)         AngularGrid ... 4 (Lebedev-302)
Angular grid pruning method      GridPruning ... 4 (adaptive)
Weight generation scheme         WeightScheme... mBecke (2022)
Basis function cutoff            BFCut       ... 1.0000e-10
Integration weight cutoff        WCut        ... 1.0000e-14
Partially contracted basis set               ... off
Rotationally invariant grid construction     ... off
Angular grids for H and He will be reduced by one unit

Total number of grid points                  ...   181085
Total number of batches                      ...     2850
Average number of points per batch           ...       63
Average number of grid points per atom       ...     4765

--------------------
COSX GRID GENERATION
--------------------

GRIDX 1
-------
General Integration Accuracy     IntAcc      ... 3.816
Radial Grid Type                 RadialGrid  ... OptM3 with GC (2021)
Angular Grid (max. ang.)         AngularGrid ... 1 (Lebedev-50)
Angular grid pruning method      GridPruning ... 4 (adaptive)
Weight generation scheme         WeightScheme... mBecke (2022)
Basis function cutoff            BFCut       ... 1.0000e-10
Integration weight cutoff        WCut        ... 1.0000e-14
Partially contracted basis set               ... on
Rotationally invariant grid construction     ... off
Angular grids for H and He will be reduced by one unit

Total number of grid points                  ...    24015
Total number of batches                      ...      200
Average number of points per batch           ...      120
Average number of grid points per atom       ...      632
UseSFitting                                  ... on

GRIDX 2
-------
General Integration Accuracy     IntAcc      ... 4.020
Radial Grid Type                 RadialGrid  ... OptM3 with GC (2021)
Angular Grid (max. ang.)         AngularGrid ... 2 (Lebedev-110)
Angular grid pruning method      GridPruning ... 4 (adaptive)
Weight generation scheme         WeightScheme... mBecke (2022)
Basis function cutoff            BFCut       ... 1.0000e-10
Integration weight cutoff        WCut        ... 1.0000e-14
Partially contracted basis set               ... on
Rotationally invariant grid construction     ... off
Angular grids for H and He will be reduced by one unit

Total number of grid points                  ...    49735
Total number of batches                      ...      408
Average number of points per batch           ...      121
Average number of grid points per atom       ...     1309
UseSFitting                                  ... on

GRIDX 3
-------
General Integration Accuracy     IntAcc      ... 4.338
Radial Grid Type                 RadialGrid  ... OptM3 with GC (2021)
Angular Grid (max. ang.)         AngularGrid ... 3 (Lebedev-194)
Angular grid pruning method      GridPruning ... 4 (adaptive)
Weight generation scheme         WeightScheme... mBecke (2022)
Basis function cutoff            BFCut       ... 1.0000e-10
Integration weight cutoff        WCut        ... 1.0000e-14
Partially contracted basis set               ... on
Rotationally invariant grid construction     ... off
Angular grids for H and He will be reduced by one unit

Total number of grid points                  ...   109169
Total number of batches                      ...      871
Average number of points per batch           ...      125
Average number of grid points per atom       ...     2873
UseSFitting                                  ... on
Initializing property integral containers    ... done (  0.0 sec)

SHARK setup successfully completed in   4.3 seconds

Maximum memory used throughout the entire STARTUP-calculation: 72.8 MB


           ************************************************************
           *        Program running with 6 parallel MPI-processes     *
           *              working on a common directory               *
           ************************************************************
-------------------------------------------------------------------------------
                                 ORCA GUESS
                   Start orbitals & Density for SCF / CASSCF
-------------------------------------------------------------------------------

------------
SCF SETTINGS
------------
Hamiltonian:
 Density Functional     Method          .... DFT(GTOs)
 Exchange Functional    Exchange        .... M062X
 Correlation Functional Correlation     .... M062X
 Gradients option       PostSCFGGA      .... off
 Hybrid DFT is turned on
   Fraction HF Exchange ScalHFX         ....  0.540000
   Scaling of DF-GGA-X  ScalDFX         ....  0.460000
   Scaling of DF-GGA-C  ScalDFC         ....  1.000000
   Scaling of DF-LDA-C  ScalLDAC        ....  1.000000
   Perturbative correction              ....  0.000000
 RI-approximation to the Coulomb term is turned on
   Number of AuxJ basis functions       .... 1218
   RIJ-COSX (HFX calculated with COS-X)).... on


General Settings:
 Integral files         IntName         .... data/single_point_P_M06-2x/11437688/11437688
 Hartree-Fock type      HFTyp           .... RHF
 Total Charge           Charge          ....    0
 Multiplicity           Mult            ....    1
 Number of Electrons    NEL             ....  152
 Basis Dimension        Dim             ....  759
 Nuclear Repulsion      ENuc            ....   1608.2466735687 Eh

Convergence Acceleration:
 AO-DIIS                CNVDIIS         .... on
   Start iteration      DIISMaxIt       ....    12
   Startup error        DIISStart       ....  0.200000
   # of expansion vecs  DIISMaxEq       ....     5
   Bias factor          DIISBfac        ....   1.050
   Max. coefficient     DIISMaxC        ....  10.000
 MO-DIIS                CNVKDIIS        .... off
 Trust-Rad. Augm. Hess. CNVTRAH         .... auto
   Auto Start mean grad. ratio tolernc. ....  1.125000
   Auto Start start iteration           ....    50
   Auto Start num. interpolation iter.  ....    10
   Max. Number of Micro iterations      ....    24
   Max. Number of Macro iterations      .... Maxiter - #DIIS iter
   Number of Davidson start vectors     ....     2
   Converg. threshold    (grad. norm)   ....   5.000e-05
   Grad. Scal. Fac. for Micro threshold ....   0.100
   Minimum threshold for Micro iter.    ....   1.000e-02
   NR start threshold (gradient norm)   ....   1.000e-04
   Initial trust radius                 ....   0.400
   Minimum AH scaling param. (alpha)    ....   1.000
   Maximum AH scaling param. (alpha)    .... 1000.000
   Quad. conv. algorithm                .... NR
   White noise on init. David. guess    .... on
   Maximum white noise                  ....   0.010
   Pseudo random numbers                .... off
   Inactive MOs                         .... canonical
   Orbital update algorithm             .... Taylor
   Preconditioner                       .... Diag
   Full preconditioner red. dimension   ....   250
 SOSCF                  CNVSOSCF        .... on
   Start iteration      SOSCFMaxIt      ....   150
   Startup grad/error   SOSCFStart      ....  0.003300
   Hessian update       SOSCFHessUp     .... L-BFGS
 Level Shifting         CNVShift        .... on
   Level shift para.    LevelShift      ....    0.2500
   Turn off err/grad.   ShiftErr        ....    0.0010
 Zerner damping         CNVZerner       .... off
 Static damping         CNVDamp         .... on
   Fraction old density DampFac         ....    0.7000
   Max. Damping (<1)    DampMax         ....    0.9800
   Min. Damping (>=0)   DampMin         ....    0.0000
   Turn off err/grad.   DampErr         ....    0.1000

SCF Procedure:
 Maximum # iterations   MaxIter         ....   125
 SCF integral mode      SCFMode         .... Direct
   Integral package                     .... SHARK and LIBINT hybrid scheme
 Reset frequency        DirectResetFreq ....    20
 Integral Threshold     Thresh          ....  1.000e-10 Eh
 Primitive CutOff       TCut            ....  1.000e-11 Eh

Convergence Tolerance:
 Convergence Check Mode ConvCheckMode   .... Total+1el-Energy
 Convergence forced     ConvForced      .... 0
 Energy Change          TolE            ....  1.000e-06 Eh
 1-El. energy change                    ....  1.000e-03 Eh
 Orbital Gradient       TolG            ....  5.000e-05
 Orbital Rotation angle TolX            ....  5.000e-05
 DIIS Error             TolErr          ....  1.000e-05

------------------------------
INITIAL GUESS: MODEL POTENTIAL
------------------------------
Loading Hartree-Fock densities                     ... done
Calculating cut-offs                               ... done
Initializing the effective Hamiltonian             ... done
Setting up the integral package (SHARK)            ... done
Starting the Coulomb interaction                   ... done (   0.6 sec)
Making the grid                                    ... done (   0.3 sec)
Mapping shells                                     ... done
Starting the XC term evaluation                    ... done (   0.5 sec)
  promolecular density results
     # of electrons  =    151.993839986
     EX              =   -129.668726710
     EC              =     -5.102551713
     EX+EC           =   -134.771278423
Transforming the Hamiltonian                       ... done (   0.1 sec)
Diagonalizing the Hamiltonian                      ... done (   0.1 sec)
Back transforming the eigenvectors                 ... done (   0.0 sec)
Now organizing SCF variables                       ... done
                      ------------------
                      INITIAL GUESS DONE (   1.6 sec)
                      ------------------
             **** ENERGY FILE WAS UPDATED (data/single_point_P_M06-2x/11437688/11437688.en.tmp) ****
Finished Guess after   1.9 sec
Maximum memory used throughout the entire GUESS-calculation: 56.2 MB


           ************************************************************
           *        Program running with 6 parallel MPI-processes     *
           *              working on a common directory               *
           ************************************************************

-------------------------------------------------------------------------------------------
                                      ORCA LEAN-SCF
                              memory conserving SCF solver
-------------------------------------------------------------------------------------------

----------------------------------------D-I-I-S--------------------------------------------
Iteration    Energy (Eh)           Delta-E    RMSDP     MaxDP     DIISErr   Damp  Time(sec)
-------------------------------------------------------------------------------------------
               ***  Starting incremental Fock matrix formation  ***
    1    -1113.1523202848845813     0.00e+00  1.18e-03  4.61e-02  1.41e-01  0.700  15.6
    2    -1113.3508187527393147    -1.98e-01  9.52e-04  3.29e-02  8.46e-02  0.700   8.9
                               ***Turning on AO-DIIS***
    3    -1113.4495993695202287    -9.88e-02  6.79e-04  2.43e-02  4.23e-02  0.700   8.5
    4    -1113.5076026971280498    -5.80e-02  1.59e-03  6.13e-02  2.53e-02  0.000   8.1
    5    -1113.6306002442313456    -1.23e-01  1.19e-04  1.48e-02  3.58e-03  0.000   8.6
                              *** Initializing SOSCF ***
---------------------------------------S-O-S-C-F--------------------------------------
Iteration    Energy (Eh)           Delta-E    RMSDP     MaxDP     MaxGrad    Time(sec)
--------------------------------------------------------------------------------------
    6    -1113.6308876236296328    -2.87e-04  4.98e-05  6.17e-03  8.45e-04     7.6
               *** Restarting incremental Fock matrix formation ***
    7    -1113.6309848237062852    -9.72e-05  1.15e-04  5.29e-03  5.42e-04    15.2
    8    -1113.6309938962374417    -9.07e-06  5.81e-05  2.52e-03  2.00e-04    10.9
    9    -1113.6309958394583646    -1.94e-06  4.91e-05  2.23e-03  1.31e-04    10.4
   10    -1113.6309969554511099    -1.12e-06  8.45e-06  3.69e-04  3.40e-05    10.1
   11    -1113.6309970797308324    -1.24e-07  6.14e-06  2.76e-04  3.34e-05     8.9
                 **** Energy Check signals convergence ****

               *****************************************************
               *                     SUCCESS                       *
               *           SCF CONVERGED AFTER  11 CYCLES          *
               *****************************************************

Recomputing exchange energy using gridx3       ... done (   22.613 sec)
Old exchange energy                            :    -71.370527305 Eh
New exchange energy                            :    -71.370544390 Eh
Exchange energy change after final integration :     -0.000017085 Eh
Total energy after final integration           :  -1113.631014165 Eh
             **** ENERGY FILE WAS UPDATED (data/single_point_P_M06-2x/11437688/11437688.en.tmp) ****

----------------
TOTAL SCF ENERGY
----------------

Total Energy       :      -1113.63101416498216 Eh          -30303.44049 eV

Components:
Nuclear Repulsion  :       1608.24667356872737 Eh           43762.61684 eV
Electronic Energy  :      -2721.87767064845821 Eh          -74066.05686 eV
One Electron Energy:      -4710.28420408435613 Eh         -128173.34940 eV
Two Electron Energy:       1988.40653343589793 Eh           54107.29254 eV

Virial components:
Potential Energy   :      -2221.54964709573323 Eh          -60451.43919 eV
Kinetic Energy     :       1107.91863293075107 Eh           30147.99870 eV
Virial Ratio       :          2.00515595736405

DFT components:
N(Alpha)           :       75.999884123824 electrons
N(Beta)            :       75.999884123824 electrons
N(Total)           :      151.999768247647 electrons
E(XC)              :      -66.276843184289 Eh       

---------------
SCF CONVERGENCE
---------------

  Last Energy change         ...    1.2428e-07  Tolerance :   1.0000e-06
  Last MAX-Density change    ...    2.7551e-04  Tolerance :   1.0000e-05
  Last RMS-Density change    ...    6.1382e-06  Tolerance :   1.0000e-06
  Last DIIS Error            ...    8.4462e-04  Tolerance :   1.0000e-05
  Last Orbital Gradient      ...    3.3397e-05  Tolerance :   5.0000e-05
  Last Orbital Rotation      ...    7.8149e-05  Tolerance :   5.0000e-05


----------------
ORBITAL ENERGIES
----------------

  NO   OCC          E(Eh)            E(eV) 
   0   2.0000     -78.032418     -2123.3701 
   1   2.0000     -10.561786      -287.4008 
   2   2.0000     -10.556031      -287.2442 
   3   2.0000     -10.555726      -287.2359 
   4   2.0000     -10.555698      -287.2351 
   5   2.0000     -10.554802      -287.2108 
   6   2.0000     -10.553712      -287.1811 
   7   2.0000     -10.553056      -287.1633 
   8   2.0000     -10.552992      -287.1615 
   9   2.0000     -10.552703      -287.1536 
  10   2.0000     -10.552647      -287.1521 
  11   2.0000     -10.552338      -287.1437 
  12   2.0000     -10.552219      -287.1405 
  13   2.0000     -10.551716      -287.1268 
  14   2.0000     -10.551657      -287.1252 
  15   2.0000     -10.551482      -287.1204 
  16   2.0000     -10.551462      -287.1199 
  17   2.0000     -10.551234      -287.1137 
  18   2.0000     -10.550820      -287.1024 
  19   2.0000     -10.550804      -287.1020 
  20   2.0000     -10.545296      -286.9521 
  21   2.0000      -6.848484      -186.3567 
  22   2.0000      -4.963116      -135.0533 
  23   2.0000      -4.962702      -135.0420 
  24   2.0000      -4.962699      -135.0419 
  25   2.0000      -0.966111       -26.2892 
  26   2.0000      -0.958218       -26.0744 
  27   2.0000      -0.954449       -25.9719 
  28   2.0000      -0.893218       -24.3057 
  29   2.0000      -0.859327       -23.3835 
  30   2.0000      -0.844512       -22.9803 
  31   2.0000      -0.842225       -22.9181 
  32   2.0000      -0.841778       -22.9059 
  33   2.0000      -0.835568       -22.7370 
  34   2.0000      -0.819068       -22.2880 
  35   2.0000      -0.736891       -20.0518 
  36   2.0000      -0.702201       -19.1079 
  37   2.0000      -0.689678       -18.7671 
  38   2.0000      -0.687866       -18.7178 
  39   2.0000      -0.682402       -18.5691 
  40   2.0000      -0.675901       -18.3922 
  41   2.0000      -0.642633       -17.4869 
  42   2.0000      -0.632080       -17.1998 
  43   2.0000      -0.589971       -16.0539 
  44   2.0000      -0.584138       -15.8952 
  45   2.0000      -0.563789       -15.3415 
  46   2.0000      -0.539053       -14.6684 
  47   2.0000      -0.526145       -14.3171 
  48   2.0000      -0.524941       -14.2844 
  49   2.0000      -0.517658       -14.0862 
  50   2.0000      -0.515980       -14.0405 
  51   2.0000      -0.512218       -13.9382 
  52   2.0000      -0.499092       -13.5810 
  53   2.0000      -0.488322       -13.2879 
  54   2.0000      -0.487542       -13.2667 
  55   2.0000      -0.486191       -13.2299 
  56   2.0000      -0.473737       -12.8910 
  57   2.0000      -0.468413       -12.7462 
  58   2.0000      -0.449665       -12.2360 
  59   2.0000      -0.442160       -12.0318 
  60   2.0000      -0.439309       -11.9542 
  61   2.0000      -0.433757       -11.8031 
  62   2.0000      -0.418547       -11.3892 
  63   2.0000      -0.404971       -11.0198 
  64   2.0000      -0.404302       -11.0016 
  65   2.0000      -0.398445       -10.8422 
  66   2.0000      -0.380451       -10.3526 
  67   2.0000      -0.378367       -10.2959 
  68   2.0000      -0.365900        -9.9566 
  69   2.0000      -0.330281        -8.9874 
  70   2.0000      -0.317231        -8.6323 
  71   2.0000      -0.314584        -8.5603 
  72   2.0000      -0.309000        -8.4083 
  73   2.0000      -0.307372        -8.3640 
  74   2.0000      -0.290931        -7.9166 
  75   2.0000      -0.262040        -7.1305 
  76   0.0000      -0.024590        -0.6691 
  77   0.0000      -0.002445        -0.0665 
  78   0.0000      -0.001520        -0.0414 
  79   0.0000       0.010356         0.2818 
  80   0.0000       0.021837         0.5942 
  81   0.0000       0.021985         0.5983 
  82   0.0000       0.062069         1.6890 
  83   0.0000       0.075131         2.0444 
  84   0.0000       0.080154         2.1811 
  85   0.0000       0.080601         2.1933 
  86   0.0000       0.089164         2.4263 
*Only the first 10 virtual orbitals were printed.

                    ********************************
                    * MULLIKEN POPULATION ANALYSIS *
                    ********************************

-----------------------
MULLIKEN ATOMIC CHARGES
-----------------------
   0 C :   -0.303688
   1 C :   -0.153489
   2 C :    0.201059
   3 C :   -0.206685
   4 C :   -0.133806
   5 C :   -0.108487
   6 C :   -0.168546
   7 C :   -0.186601
   8 P :    0.125487
   9 C :   -0.090564
  10 C :   -0.151510
  11 C :   -0.142468
  12 C :   -0.137786
  13 C :   -0.160508
  14 C :   -0.133737
  15 C :   -0.101409
  16 C :   -0.141626
  17 C :   -0.146633
  18 C :   -0.135324
  19 C :   -0.161424
  20 C :   -0.135683
  21 H :    0.123135
  22 H :    0.137126
  23 H :    0.126969
  24 H :    0.146528
  25 H :    0.183507
  26 H :    0.154749
  27 H :    0.141551
  28 H :    0.156311
  29 H :    0.146546
  30 H :    0.146020
  31 H :    0.146434
  32 H :    0.184855
  33 H :    0.154705
  34 H :    0.146220
  35 H :    0.146184
  36 H :    0.146677
  37 H :    0.185912
Sum of atomic charges:   -0.0000000

--------------------------------
MULLIKEN REDUCED ORBITAL CHARGES
--------------------------------
  0 C s       :     3.327417  s :     3.327417
      pz      :     0.993358  p :     2.937804
      px      :     0.961265
      py      :     0.983181
      dz2     :     0.006896  d :     0.034096
      dxz     :     0.004188
      dyz     :     0.006608
      dx2y2   :     0.011502
      dxy     :     0.004903
      f0      :     0.000242  f :     0.004371
      f+1     :     0.000548
      f-1     :     0.000775
      f+2     :     0.000973
      f-2     :     0.000376
      f+3     :     0.000942
      f-3     :     0.000516

  1 C s       :     3.266880  s :     3.266880
      pz      :     0.975827  p :     2.824272
      px      :     0.878367
      py      :     0.970078
      dz2     :     0.007662  d :     0.056227
      dxz     :     0.012590
      dyz     :     0.007376
      dx2y2   :     0.011565
      dxy     :     0.017034
      f0      :     0.000295  f :     0.006110
      f+1     :     0.001078
      f-1     :     0.000736
      f+2     :     0.001172
      f-2     :     0.000531
      f+3     :     0.001295
      f-3     :     0.001003

  2 C s       :     3.134918  s :     3.134918
      pz      :     0.871273  p :     2.581629
      px      :     0.814298
      py      :     0.896057
      dz2     :     0.017110  d :     0.074199
      dxz     :     0.017084
      dyz     :     0.006467
      dx2y2   :     0.013847
      dxy     :     0.019691
      f0      :     0.001050  f :     0.008195
      f+1     :     0.001301
      f-1     :     0.000942
      f+2     :     0.001612
      f-2     :     0.001120
      f+3     :     0.001107
      f-3     :     0.001064

  3 C s       :     3.204916  s :     3.204916
      pz      :     1.007149  p :     2.934066
      px      :     0.946161
      py      :     0.980756
      dz2     :     0.007284  d :     0.061259
      dxz     :     0.018625
      dyz     :     0.007156
      dx2y2   :     0.008317
      dxy     :     0.019879
      f0      :     0.000394  f :     0.006443
      f+1     :     0.001079
      f-1     :     0.000818
      f+2     :     0.001229
      f-2     :     0.000757
      f+3     :     0.000973
      f-3     :     0.001193

  4 C s       :     3.178171  s :     3.178171
      pz      :     0.916772  p :     2.883268
      px      :     1.009457
      py      :     0.957039
      dz2     :     0.013609  d :     0.065852
      dxz     :     0.017130
      dyz     :     0.008667
      dx2y2   :     0.009428
      dxy     :     0.017017
      f0      :     0.000991  f :     0.006514
      f+1     :     0.000782
      f-1     :     0.000701
      f+2     :     0.001277
      f-2     :     0.001034
      f+3     :     0.000567
      f-3     :     0.001163

  5 C s       :     3.242665  s :     3.242665
      pz      :     0.882763  p :     2.780254
      px      :     0.926888
      py      :     0.970603
      dz2     :     0.021572  d :     0.078610
      dxz     :     0.019711
      dyz     :     0.007002
      dx2y2   :     0.015932
      dxy     :     0.014394
      f0      :     0.000968  f :     0.006958
      f+1     :     0.001042
      f-1     :     0.000952
      f+2     :     0.001431
      f-2     :     0.001045
      f+3     :     0.000802
      f-3     :     0.000718

  6 C s       :     3.210326  s :     3.210326
      pz      :     0.988699  p :     2.887198
      px      :     0.944181
      py      :     0.954318
      dz2     :     0.008717  d :     0.064416
      dxz     :     0.018598
      dyz     :     0.007964
      dx2y2   :     0.008993
      dxy     :     0.020143
      f0      :     0.000389  f :     0.006606
      f+1     :     0.001145
      f-1     :     0.000841
      f+2     :     0.001234
      f-2     :     0.000763
      f+3     :     0.000998
      f-3     :     0.001236

  7 C s       :     3.202187  s :     3.202187
      pz      :     0.929998  p :     2.919569
      px      :     1.017346
      py      :     0.972225
      dz2     :     0.013874  d :     0.058422
      dxz     :     0.012277
      dyz     :     0.008633
      dx2y2   :     0.009109
      dxy     :     0.014530
      f0      :     0.000957  f :     0.006424
      f+1     :     0.000820
      f-1     :     0.000736
      f+2     :     0.001243
      f-2     :     0.001014
      f+3     :     0.000528
      f-3     :     0.001126

  8 P s       :     5.749185  s :     5.749185
      pz      :     3.339226  p :     8.842578
      px      :     2.756860
      py      :     2.746492
      dz2     :     0.028165  d :     0.257230
      dxz     :     0.046084
      dyz     :     0.057124
      dx2y2   :     0.071408
      dxy     :     0.054450
      f0      :     0.002456  f :     0.025520
      f+1     :     0.002518
      f-1     :     0.003464
      f+2     :     0.005295
      f-2     :     0.004346
      f+3     :     0.003165
      f-3     :     0.004277

  9 C s       :     3.239990  s :     3.239990
      pz      :     0.884915  p :     2.766397
      px      :     0.963945
      py      :     0.917537
      dz2     :     0.019936  d :     0.077208
      dxz     :     0.010285
      dyz     :     0.017693
      dx2y2   :     0.010942
      dxy     :     0.018353
      f0      :     0.001146  f :     0.006969
      f+1     :     0.000911
      f-1     :     0.001057
      f+2     :     0.001296
      f-2     :     0.000761
      f+3     :     0.001102
      f-3     :     0.000696

 10 C s       :     3.207518  s :     3.207518
      pz      :     1.017909  p :     2.873384
      px      :     0.950946
      py      :     0.904528
      dz2     :     0.012255  d :     0.064068
      dxz     :     0.007835
      dyz     :     0.015039
      dx2y2   :     0.012506
      dxy     :     0.016433
      f0      :     0.000511  f :     0.006540
      f+1     :     0.000801
      f-1     :     0.001150
      f+2     :     0.001260
      f-2     :     0.000679
      f+3     :     0.001228
      f-3     :     0.000910

 11 C s       :     3.223741  s :     3.223741
      pz      :     0.907263  p :     2.851830
      px      :     0.940676
      py      :     1.003891
      dz2     :     0.017407  d :     0.060584
      dxz     :     0.009734
      dyz     :     0.013155
      dx2y2   :     0.012693
      dxy     :     0.007596
      f0      :     0.001055  f :     0.006312
      f+1     :     0.000877
      f-1     :     0.000980
      f+2     :     0.001302
      f-2     :     0.000820
      f+3     :     0.000425
      f-3     :     0.000854

 12 C s       :     3.225459  s :     3.225459
      pz      :     0.940386  p :     2.844970
      px      :     0.965834
      py      :     0.938750
      dz2     :     0.013424  d :     0.061068
      dxz     :     0.010226
      dyz     :     0.014431
      dx2y2   :     0.008010
      dxy     :     0.014976
      f0      :     0.001076  f :     0.006288
      f+1     :     0.000728
      f-1     :     0.000880
      f+2     :     0.001139
      f-2     :     0.000844
      f+3     :     0.001082
      f-3     :     0.000538

 13 C s       :     3.233589  s :     3.233589
      pz      :     0.999036  p :     2.859898
      px      :     0.967956
      py      :     0.892906
      dz2     :     0.010113  d :     0.060750
      dxz     :     0.007100
      dyz     :     0.015755
      dx2y2   :     0.010828
      dxy     :     0.016953
      f0      :     0.000447  f :     0.006271
      f+1     :     0.000786
      f-1     :     0.001093
      f+2     :     0.001225
      f-2     :     0.000706
      f+3     :     0.001151
      f-3     :     0.000863

 14 C s       :     3.189046  s :     3.189046
      pz      :     0.883720  p :     2.872905
      px      :     0.944666
      py      :     1.044520
      dz2     :     0.017992  d :     0.065329
      dxz     :     0.011767
      dyz     :     0.014315
      dx2y2   :     0.013940
      dxy     :     0.007316
      f0      :     0.001046  f :     0.006457
      f+1     :     0.000952
      f-1     :     0.001002
      f+2     :     0.001291
      f-2     :     0.000878
      f+3     :     0.000428
      f-3     :     0.000860

 15 C s       :     3.243883  s :     3.243883
      pz      :     0.912554  p :     2.773451
      px      :     0.935455
      py      :     0.925442
      dz2     :     0.019394  d :     0.077111
      dxz     :     0.010161
      dyz     :     0.013850
      dx2y2   :     0.019054
      dxy     :     0.014652
      f0      :     0.000735  f :     0.006965
      f+1     :     0.001114
      f-1     :     0.000942
      f+2     :     0.001233
      f-2     :     0.001068
      f+3     :     0.001118
      f-3     :     0.000755

 16 C s       :     3.202425  s :     3.202425
      pz      :     0.990946  p :     2.868564
      px      :     0.939737
      py      :     0.937881
      dz2     :     0.006854  d :     0.064093
      dxz     :     0.013301
      dyz     :     0.013756
      dx2y2   :     0.016849
      dxy     :     0.013333
      f0      :     0.000499  f :     0.006544
      f+1     :     0.000788
      f-1     :     0.001032
      f+2     :     0.000819
      f-2     :     0.001140
      f+3     :     0.001289
      f-3     :     0.000977

 17 C s       :     3.226577  s :     3.226577
      pz      :     0.934151  p :     2.853430
      px      :     1.001156
      py      :     0.918123
      dz2     :     0.016586  d :     0.060317
      dxz     :     0.008363
      dyz     :     0.008851
      dx2y2   :     0.011784
      dxy     :     0.014732
      f0      :     0.000673  f :     0.006310
      f+1     :     0.000729
      f-1     :     0.001141
      f+2     :     0.001144
      f-2     :     0.000963
      f+3     :     0.000673
      f-3     :     0.000987

 18 C s       :     3.223236  s :     3.223236
      pz      :     0.943209  p :     2.844764
      px      :     0.909340
      py      :     0.992215
      dz2     :     0.014280  d :     0.061035
      dxz     :     0.010409
      dyz     :     0.009262
      dx2y2   :     0.013240
      dxy     :     0.013845
      f0      :     0.000777  f :     0.006289
      f+1     :     0.001037
      f-1     :     0.000620
      f+2     :     0.001152
      f-2     :     0.000965
      f+3     :     0.001121
      f-3     :     0.000619

 19 C s       :     3.234840  s :     3.234840
      pz      :     0.988071  p :     2.859765
      px      :     0.936258
      py      :     0.935436
      dz2     :     0.005994  d :     0.060547
      dxz     :     0.012930
      dyz     :     0.012798
      dx2y2   :     0.017698
      dxy     :     0.011127
      f0      :     0.000511  f :     0.006273
      f+1     :     0.000757
      f-1     :     0.000942
      f+2     :     0.000833
      f-2     :     0.001127
      f+3     :     0.001158
      f-3     :     0.000945

 20 C s       :     3.190621  s :     3.190621
      pz      :     0.903768  p :     2.873397
      px      :     1.012502
      py      :     0.957127
      dz2     :     0.015821  d :     0.065203
      dxz     :     0.008821
      dyz     :     0.012042
      dx2y2   :     0.013227
      dxy     :     0.015293
      f0      :     0.000662  f :     0.006462
      f+1     :     0.000679
      f-1     :     0.001147
      f+2     :     0.001279
      f-2     :     0.000975
      f+3     :     0.000692
      f-3     :     0.001028

 21 H s       :     0.857065  s :     0.857065
      pz      :     0.010138  p :     0.019800
      px      :     0.002739
      py      :     0.006924

 22 H s       :     0.843198  s :     0.843198
      pz      :     0.004476  p :     0.019676
      px      :     0.011364
      py      :     0.003836

 23 H s       :     0.853458  s :     0.853458
      pz      :     0.010051  p :     0.019573
      px      :     0.002920
      py      :     0.006603

 24 H s       :     0.833767  s :     0.833767
      pz      :     0.009889  p :     0.019705
      px      :     0.003383
      py      :     0.006433

 25 H s       :     0.795828  s :     0.795828
      pz      :     0.006197  p :     0.020665
      px      :     0.008658
      py      :     0.005810

 26 H s       :     0.825317  s :     0.825317
      pz      :     0.010136  p :     0.019934
      px      :     0.003525
      py      :     0.006272

 27 H s       :     0.838292  s :     0.838292
      pz      :     0.006390  p :     0.020157
      px      :     0.007879
      py      :     0.005887

 28 H s       :     0.823788  s :     0.823788
      pz      :     0.011011  p :     0.019901
      px      :     0.005314
      py      :     0.003576

 29 H s       :     0.833783  s :     0.833783
      pz      :     0.003722  p :     0.019671
      px      :     0.003554
      py      :     0.012394

 30 H s       :     0.834332  s :     0.834332
      pz      :     0.006530  p :     0.019648
      px      :     0.005668
      py      :     0.007451

 31 H s       :     0.833907  s :     0.833907
      pz      :     0.010704  p :     0.019659
      px      :     0.005377
      py      :     0.003578

 32 H s       :     0.794523  s :     0.794523
      pz      :     0.003672  p :     0.020622
      px      :     0.003559
      py      :     0.013391

 33 H s       :     0.825384  s :     0.825384
      pz      :     0.008142  p :     0.019911
      px      :     0.006338
      py      :     0.005431

 34 H s       :     0.834113  s :     0.834113
      pz      :     0.004170  p :     0.019667
      px      :     0.010865
      py      :     0.004631

 35 H s       :     0.834181  s :     0.834181
      pz      :     0.004793  p :     0.019635
      px      :     0.003804
      py      :     0.011038

 36 H s       :     0.833659  s :     0.833659
      pz      :     0.007916  p :     0.019664
      px      :     0.006431
      py      :     0.005317

 37 H s       :     0.793515  s :     0.793515
      pz      :     0.004076  p :     0.020573
      px      :     0.011380
      py      :     0.005117



                     *******************************
                     * LOEWDIN POPULATION ANALYSIS *
                     *******************************

----------------------
LOEWDIN ATOMIC CHARGES
----------------------
   0 C :   -0.196163
   1 C :   -0.162281
   2 C :   -0.138348
   3 C :   -0.104910
   4 C :   -0.135778
   5 C :   -0.275585
   6 C :   -0.140197
   7 C :   -0.097319
   8 P :    0.700275
   9 C :   -0.276759
  10 C :   -0.143203
  11 C :   -0.143880
  12 C :   -0.141248
  13 C :   -0.142493
  14 C :   -0.136209
  15 C :   -0.276961
  16 C :   -0.142406
  17 C :   -0.143540
  18 C :   -0.141085
  19 C :   -0.142614
  20 C :   -0.137207
  21 H :    0.123303
  22 H :    0.127161
  23 H :    0.151807
  24 H :    0.150829
  25 H :    0.158835
  26 H :    0.151992
  27 H :    0.149972
  28 H :    0.150840
  29 H :    0.147982
  30 H :    0.147140
  31 H :    0.147988
  32 H :    0.158053
  33 H :    0.150675
  34 H :    0.147942
  35 H :    0.147170
  36 H :    0.148081
  37 H :    0.158141

-------------------------------
LOEWDIN REDUCED ORBITAL CHARGES
-------------------------------
  0 C s       :     2.866194  s :     2.866194
      pz      :     1.017720  p :     3.076231
      px      :     1.069813
      py      :     0.988698
      dz2     :     0.043920  d :     0.228049
      dxz     :     0.047725
      dyz     :     0.039115
      dx2y2   :     0.065057
      dxy     :     0.032232
      f0      :     0.001709  f :     0.025689
      f+1     :     0.004711
      f-1     :     0.002967
      f+2     :     0.003429
      f-2     :     0.004752
      f+3     :     0.004860
      f-3     :     0.003261

  1 C s       :     2.787155  s :     2.787155
      pz      :     0.970013  p :     2.952698
      px      :     1.046273
      py      :     0.936412
      dz2     :     0.062377  d :     0.383605
      dxz     :     0.092036
      dyz     :     0.046824
      dx2y2   :     0.094078
      dxy     :     0.088289
      f0      :     0.002448  f :     0.038823
      f+1     :     0.008660
      f-1     :     0.003118
      f+2     :     0.005236
      f-2     :     0.005832
      f+3     :     0.007356
      f-3     :     0.006172

  2 C s       :     2.713771  s :     2.713771
      pz      :     0.972087  p :     2.866781
      px      :     0.988255
      py      :     0.906439
      dz2     :     0.102670  d :     0.503827
      dxz     :     0.133719
      dyz     :     0.069171
      dx2y2   :     0.099487
      dxy     :     0.098780
      f0      :     0.006440  f :     0.053970
      f+1     :     0.010477
      f-1     :     0.005748
      f+2     :     0.008664
      f-2     :     0.008109
      f+3     :     0.006787
      f-3     :     0.007745

  3 C s       :     2.769960  s :     2.769960
      pz      :     0.954286  p :     2.923184
      px      :     1.046426
      py      :     0.922473
      dz2     :     0.059533  d :     0.371931
      dxz     :     0.097835
      dyz     :     0.043377
      dx2y2   :     0.082553
      dxy     :     0.088633
      f0      :     0.003095  f :     0.039835
      f+1     :     0.008347
      f-1     :     0.003352
      f+2     :     0.006265
      f-2     :     0.005576
      f+3     :     0.006349
      f-3     :     0.006851

  4 C s       :     2.774749  s :     2.774749
      pz      :     0.976865  p :     2.937835
      px      :     1.031604
      py      :     0.929366
      dz2     :     0.066080  d :     0.382409
      dxz     :     0.125135
      dyz     :     0.046154
      dx2y2   :     0.058434
      dxy     :     0.086606
      f0      :     0.006516  f :     0.040785
      f+1     :     0.006174
      f-1     :     0.004808
      f+2     :     0.006626
      f-2     :     0.005296
      f+3     :     0.004561
      f-3     :     0.006805

  5 C s       :     2.779841  s :     2.779841
      pz      :     1.016486  p :     2.995175
      px      :     1.040093
      py      :     0.938596
      dz2     :     0.098991  d :     0.455762
      dxz     :     0.129738
      dyz     :     0.067292
      dx2y2   :     0.093840
      dxy     :     0.065902
      f0      :     0.005709  f :     0.044807
      f+1     :     0.008589
      f-1     :     0.005784
      f+2     :     0.007538
      f-2     :     0.007051
      f+3     :     0.005173
      f-3     :     0.004963

  6 C s       :     2.775555  s :     2.775555
      pz      :     0.960018  p :     2.938444
      px      :     1.059300
      py      :     0.919126
      dz2     :     0.063869  d :     0.385307
      dxz     :     0.101086
      dyz     :     0.043725
      dx2y2   :     0.087524
      dxy     :     0.089103
      f0      :     0.003216  f :     0.040891
      f+1     :     0.008731
      f-1     :     0.003421
      f+2     :     0.006602
      f-2     :     0.005621
      f+3     :     0.006446
      f-3     :     0.006855

  7 C s       :     2.767703  s :     2.767703
      pz      :     0.971698  p :     2.921461
      px      :     1.025764
      py      :     0.923998
      dz2     :     0.063796  d :     0.368167
      dxz     :     0.119771
      dyz     :     0.045044
      dx2y2   :     0.056837
      dxy     :     0.082718
      f0      :     0.006289  f :     0.039988
      f+1     :     0.006097
      f-1     :     0.004676
      f+2     :     0.006653
      f-2     :     0.005040
      f+3     :     0.004488
      f-3     :     0.006746

  8 P s       :     4.927082  s :     4.927082
      pz      :     3.285134  p :     8.784002
      px      :     2.754617
      py      :     2.744250
      dz2     :     0.072098  d :     0.493283
      dxz     :     0.078373
      dyz     :     0.097853
      dx2y2   :     0.137360
      dxy     :     0.107599
      f0      :     0.007736  f :     0.095358
      f+1     :     0.008524
      f-1     :     0.011818
      f+2     :     0.020913
      f-2     :     0.015454
      f+3     :     0.015802
      f-3     :     0.015111

  9 C s       :     2.780026  s :     2.780026
      pz      :     1.036250  p :     2.996582
      px      :     0.919221
      py      :     1.041111
      dz2     :     0.101049  d :     0.455399
      dxz     :     0.061798
      dyz     :     0.146030
      dx2y2   :     0.064849
      dxy     :     0.081672
      f0      :     0.007179  f :     0.044752
      f+1     :     0.005946
      f-1     :     0.009364
      f+2     :     0.007357
      f-2     :     0.004119
      f+3     :     0.006152
      f-3     :     0.004634

 10 C s       :     2.777643  s :     2.777643
      pz      :     0.978326  p :     2.942159
      px      :     0.912194
      py      :     1.051639
      dz2     :     0.077964  d :     0.382746
      dxz     :     0.037531
      dyz     :     0.105043
      dx2y2   :     0.077212
      dxy     :     0.084996
      f0      :     0.003652  f :     0.040655
      f+1     :     0.003756
      f-1     :     0.009007
      f+2     :     0.007017
      f-2     :     0.005304
      f+3     :     0.006660
      f-3     :     0.005259

 11 C s       :     2.778251  s :     2.778251
      pz      :     1.022982  p :     2.949539
      px      :     0.931869
      py      :     0.994688
      dz2     :     0.102863  d :     0.375512
      dxz     :     0.067935
      dyz     :     0.094760
      dx2y2   :     0.074582
      dxy     :     0.035371
      f0      :     0.005890  f :     0.040578
      f+1     :     0.006202
      f-1     :     0.008366
      f+2     :     0.006491
      f-2     :     0.006223
      f+3     :     0.003104
      f-3     :     0.004302

 12 C s       :     2.778973  s :     2.778973
      pz      :     1.001230  p :     2.947421
      px      :     0.915276
      py      :     1.030914
      dz2     :     0.070973  d :     0.374329
      dxz     :     0.048235
      dyz     :     0.131274
      dx2y2   :     0.050689
      dxy     :     0.073158
      f0      :     0.007060  f :     0.040526
      f+1     :     0.005164
      f-1     :     0.007399
      f+2     :     0.006580
      f-2     :     0.004124
      f+3     :     0.006056
      f-3     :     0.004143

 13 C s       :     2.778507  s :     2.778507
      pz      :     0.971390  p :     2.947760
      px      :     0.919189
      py      :     1.057182
      dz2     :     0.074775  d :     0.375743
      dxz     :     0.037209
      dyz     :     0.102872
      dx2y2   :     0.077823
      dxy     :     0.083065
      f0      :     0.003559  f :     0.040483
      f+1     :     0.003722
      f-1     :     0.008835
      f+2     :     0.007028
      f-2     :     0.005338
      f+3     :     0.006674
      f-3     :     0.005327

 14 C s       :     2.776682  s :     2.776682
      pz      :     1.010017  p :     2.938235
      px      :     0.927081
      py      :     1.001137
      dz2     :     0.102056  d :     0.380708
      dxz     :     0.070365
      dyz     :     0.096516
      dx2y2   :     0.075372
      dxy     :     0.036400
      f0      :     0.005886  f :     0.040583
      f+1     :     0.006304
      f-1     :     0.008272
      f+2     :     0.006543
      f-2     :     0.006091
      f+3     :     0.003181
      f-3     :     0.004306

 15 C s       :     2.780115  s :     2.780115
      pz      :     0.971784  p :     2.996823
      px      :     1.018746
      py      :     1.006293
      dz2     :     0.073140  d :     0.455280
      dxz     :     0.086342
      dyz     :     0.089112
      dx2y2   :     0.112654
      dxy     :     0.094032
      f0      :     0.004976  f :     0.044743
      f+1     :     0.005014
      f-1     :     0.005540
      f+2     :     0.008931
      f-2     :     0.005501
      f+3     :     0.008591
      f-3     :     0.006189

 16 C s       :     2.777547  s :     2.777547
      pz      :     0.936635  p :     2.941496
      px      :     0.997653
      py      :     1.007207
      dz2     :     0.039659  d :     0.382702
      dxz     :     0.072001
      dyz     :     0.067224
      dx2y2   :     0.090431
      dxy     :     0.113386
      f0      :     0.003022  f :     0.040660
      f+1     :     0.004283
      f-1     :     0.005751
      f+2     :     0.007200
      f-2     :     0.004460
      f+3     :     0.008943
      f-3     :     0.007002

 17 C s       :     2.778267  s :     2.778267
      pz      :     0.962292  p :     2.949296
      px      :     0.972620
      py      :     1.014384
      dz2     :     0.067395  d :     0.375399
      dxz     :     0.048821
      dyz     :     0.081637
      dx2y2   :     0.087781
      dxy     :     0.089766
      f0      :     0.004378  f :     0.040577
      f+1     :     0.004509
      f-1     :     0.005417
      f+2     :     0.008252
      f-2     :     0.005067
      f+3     :     0.006183
      f-3     :     0.006770

 18 C s       :     2.778985  s :     2.778985
      pz      :     0.954821  p :     2.947230
      px      :     1.023291
      py      :     0.969118
      dz2     :     0.058385  d :     0.374343
      dxz     :     0.082566
      dyz     :     0.052287
      dx2y2   :     0.099378
      dxy     :     0.081727
      f0      :     0.004962  f :     0.040527
      f+1     :     0.004945
      f-1     :     0.004090
      f+2     :     0.007764
      f-2     :     0.005120
      f+3     :     0.008220
      f-3     :     0.005426

 19 C s       :     2.778531  s :     2.778531
      pz      :     0.933981  p :     2.947854
      px      :     1.004406
      py      :     1.009467
      dz2     :     0.037869  d :     0.375749
      dxz     :     0.071115
      dyz     :     0.064978
      dx2y2   :     0.090427
      dxy     :     0.111359
      f0      :     0.003077  f :     0.040480
      f+1     :     0.004257
      f-1     :     0.005484
      f+2     :     0.007223
      f-2     :     0.004369
      f+3     :     0.008963
      f-3     :     0.007107

 20 C s       :     2.776893  s :     2.776893
      pz      :     0.949969  p :     2.938938
      px      :     0.975963
      py      :     1.013006
      dz2     :     0.066422  d :     0.380812
      dxz     :     0.049079
      dyz     :     0.084016
      dx2y2   :     0.090741
      dxy     :     0.090555
      f0      :     0.004385  f :     0.040564
      f+1     :     0.004410
      f-1     :     0.005418
      f+2     :     0.008154
      f-2     :     0.005069
      f+3     :     0.006313
      f-3     :     0.006815

 21 H s       :     0.817582  s :     0.817582
      pz      :     0.028255  p :     0.059115
      px      :     0.010941
      py      :     0.019918

 22 H s       :     0.813588  s :     0.813588
      pz      :     0.015659  p :     0.059250
      px      :     0.030692
      py      :     0.012899

 23 H s       :     0.793572  s :     0.793572
      pz      :     0.026151  p :     0.054621
      px      :     0.010192
      py      :     0.018277

 24 H s       :     0.793327  s :     0.793327
      pz      :     0.026246  p :     0.055844
      px      :     0.011343
      py      :     0.018256

 25 H s       :     0.782768  s :     0.782768
      pz      :     0.018007  p :     0.058397
      px      :     0.023543
      py      :     0.016846

 26 H s       :     0.791989  s :     0.791989
      pz      :     0.026577  p :     0.056019
      px      :     0.011375
      py      :     0.018067

 27 H s       :     0.793713  s :     0.793713
      pz      :     0.018045  p :     0.056315
      px      :     0.021500
      py      :     0.016770

 28 H s       :     0.792936  s :     0.792936
      pz      :     0.028823  p :     0.056224
      px      :     0.015787
      py      :     0.011614

 29 H s       :     0.796224  s :     0.796224
      pz      :     0.012220  p :     0.055793
      px      :     0.011462
      py      :     0.032112

 30 H s       :     0.797028  s :     0.797028
      pz      :     0.018651  p :     0.055832
      px      :     0.016324
      py      :     0.020857

 31 H s       :     0.796236  s :     0.796236
      pz      :     0.028180  p :     0.055776
      px      :     0.015628
      py      :     0.011967

 32 H s       :     0.783496  s :     0.783496
      pz      :     0.011932  p :     0.058451
      px      :     0.011668
      py      :     0.034852

 33 H s       :     0.793121  s :     0.793121
      pz      :     0.022054  p :     0.056204
      px      :     0.018185
      py      :     0.015964

 34 H s       :     0.796262  s :     0.796262
      pz      :     0.013070  p :     0.055796
      px      :     0.028541
      py      :     0.014185

 35 H s       :     0.797009  s :     0.797009
      pz      :     0.014458  p :     0.055820
      px      :     0.012383
      py      :     0.028979

 36 H s       :     0.796127  s :     0.796127
      pz      :     0.021622  p :     0.055792
      px      :     0.018430
      py      :     0.015740

 37 H s       :     0.783442  s :     0.783442
      pz      :     0.012921  p :     0.058417
      px      :     0.030079
      py      :     0.015416



                      *****************************
                      * MAYER POPULATION ANALYSIS *
                      *****************************

  NA   - Mulliken gross atomic population
  ZA   - Total nuclear charge
  QA   - Mulliken gross atomic charge
  VA   - Mayer's total valence
  BVA  - Mayer's bonded valence
  FA   - Mayer's free valence

  ATOM       NA         ZA         QA         VA         BVA        FA
  0 C      6.3037     6.0000    -0.3037     3.8738     3.8738    -0.0000
  1 C      6.1535     6.0000    -0.1535     3.8220     3.8220     0.0000
  2 C      5.7989     6.0000     0.2011     3.7334     3.7334     0.0000
  3 C      6.2067     6.0000    -0.2067     4.0298     4.0298     0.0000
  4 C      6.1338     6.0000    -0.1338     3.8768     3.8768     0.0000
  5 C      6.1085     6.0000    -0.1085     3.8536     3.8536    -0.0000
  6 C      6.1685     6.0000    -0.1685     4.0014     4.0014    -0.0000
  7 C      6.1866     6.0000    -0.1866     3.9667     3.9667    -0.0000
  8 P     14.8745    15.0000     0.1255     3.0873     3.0873    -0.0000
  9 C      6.0906     6.0000    -0.0906     3.8217     3.8217     0.0000
 10 C      6.1515     6.0000    -0.1515     3.9342     3.9342    -0.0000
 11 C      6.1425     6.0000    -0.1425     3.9465     3.9465    -0.0000
 12 C      6.1378     6.0000    -0.1378     3.9213     3.9213    -0.0000
 13 C      6.1605     6.0000    -0.1605     3.9784     3.9784    -0.0000
 14 C      6.1337     6.0000    -0.1337     3.8327     3.8327     0.0000
 15 C      6.1014     6.0000    -0.1014     3.8306     3.8306    -0.0000
 16 C      6.1416     6.0000    -0.1416     3.9347     3.9347    -0.0000
 17 C      6.1466     6.0000    -0.1466     3.9520     3.9520     0.0000
 18 C      6.1353     6.0000    -0.1353     3.9189     3.9189    -0.0000
 19 C      6.1614     6.0000    -0.1614     3.9779     3.9779    -0.0000
 20 C      6.1357     6.0000    -0.1357     3.8236     3.8236    -0.0000
 21 H      0.8769     1.0000     0.1231     0.9755     0.9755     0.0000
 22 H      0.8629     1.0000     0.1371     0.9716     0.9716     0.0000
 23 H      0.8730     1.0000     0.1270     0.9705     0.9705    -0.0000
 24 H      0.8535     1.0000     0.1465     0.9681     0.9681     0.0000
 25 H      0.8165     1.0000     0.1835     0.9506     0.9506     0.0000
 26 H      0.8453     1.0000     0.1547     0.9698     0.9698    -0.0000
 27 H      0.8584     1.0000     0.1416     0.9664     0.9664     0.0000
 28 H      0.8437     1.0000     0.1563     0.9683     0.9683    -0.0000
 29 H      0.8535     1.0000     0.1465     0.9646     0.9646    -0.0000
 30 H      0.8540     1.0000     0.1460     0.9641     0.9641    -0.0000
 31 H      0.8536     1.0000     0.1464     0.9657     0.9657    -0.0000
 32 H      0.8151     1.0000     0.1849     0.9491     0.9491     0.0000
 33 H      0.8453     1.0000     0.1547     0.9688     0.9688    -0.0000
 34 H      0.8538     1.0000     0.1462     0.9648     0.9648     0.0000
 35 H      0.8538     1.0000     0.1462     0.9641     0.9641    -0.0000
 36 H      0.8533     1.0000     0.1467     0.9659     0.9659    -0.0000
 37 H      0.8141     1.0000     0.1859     0.9490     0.9490    -0.0000

  Mayer bond orders larger than 0.100000
B(  0-C ,  1-C ) :   1.8470 B(  0-C , 21-H ) :   0.9673 B(  0-C , 22-H ) :   0.9709 
B(  1-C ,  2-C ) :   1.0008 B(  1-C , 23-H ) :   0.9533 B(  2-C ,  3-C ) :   1.3921 
B(  2-C ,  7-C ) :   1.3216 B(  3-C ,  4-C ) :   1.5078 B(  3-C , 24-H ) :   0.9123 
B(  4-C ,  5-C ) :   1.3479 B(  4-C , 25-H ) :   0.9241 B(  5-C ,  6-C ) :   1.3710 
B(  5-C ,  8-P ) :   0.9355 B(  6-C ,  7-C ) :   1.5390 B(  6-C , 26-H ) :   0.9351 
B(  7-C , 27-H ) :   0.9202 B(  8-P ,  9-C ) :   0.9312 B(  8-P , 15-C ) :   0.9341 
B(  9-C , 10-C ) :   1.3941 B(  9-C , 14-C ) :   1.3413 B( 10-C , 11-C ) :   1.4602 
B( 10-C , 28-H ) :   0.9354 B( 11-C , 12-C ) :   1.4268 B( 11-C , 29-H ) :   0.9474 
B( 12-C , 13-C ) :   1.4381 B( 12-C , 30-H ) :   0.9471 B( 13-C , 14-C ) :   1.4613 
B( 13-C , 31-H ) :   0.9440 B( 14-C , 32-H ) :   0.9246 B( 15-C , 16-C ) :   1.4007 
B( 15-C , 20-C ) :   1.3355 B( 16-C , 17-C ) :   1.4606 B( 16-C , 33-H ) :   0.9346 
B( 17-C , 18-C ) :   1.4273 B( 17-C , 34-H ) :   0.9473 B( 18-C , 19-C ) :   1.4378 
B( 18-C , 35-H ) :   0.9469 B( 19-C , 20-C ) :   1.4598 B( 19-C , 36-H ) :   0.9441 
B( 20-C , 37-H ) :   0.9269 

-------
TIMINGS
-------

Total SCF time: 0 days 0 hours 2 min 16 sec 

Total time                  ....     136.242 sec
Sum of individual times     ....     136.296 sec  (100.0%)

SCF preparation             ....       0.326 sec  (  0.2%)
Fock matrix formation       ....     131.508 sec  ( 96.5%)
  Startup                   ....       0.151 sec  (  0.1% of F)
  Split-RI-J                ....       9.724 sec  (  7.4% of F)
  Chain of spheres X        ....      93.961 sec  ( 71.4% of F)
  XC integration            ....      27.259 sec  ( 20.7% of F)
    Basis function eval.    ....       4.066 sec  ( 14.9% of XC)
    Density eval.           ....      11.472 sec  ( 42.1% of XC)
    XC-Functional eval.     ....       0.452 sec  (  1.7% of XC)
    XC-Potential eval.      ....       9.799 sec  ( 35.9% of XC)
Diagonalization             ....       0.000 sec  (  0.0%)
Density matrix formation    ....       0.407 sec  (  0.3%)
Total Energy calculation    ....       0.145 sec  (  0.1%)
Population analysis         ....       0.212 sec  (  0.2%)
Orbital Transformation      ....       0.519 sec  (  0.4%)
Orbital Orthonormalization  ....       0.000 sec  (  0.0%)
DIIS solution               ....       2.062 sec  (  1.5%)
SOSCF solution              ....       1.117 sec  (  0.8%)
Finished LeanSCF after 136.3 sec

Maximum memory used throughout the entire LEANSCF-calculation: 108.2 MB


-------------------------------------------------------------------------------
                          DFT DISPERSION CORRECTION                            
                                                                               
                              DFTD3 V3.1  Rev 1                                
                              USING zero damping                               
-------------------------------------------------------------------------------
The M062X functional is recognized
Active option DFTDOPT                   ...         3   

molecular C6(AA) [au] = 20303.864827 


            DFT-D V3
 parameters
 s6 scaling factor         :     1.0000 
 rs6 scaling factor        :     1.6190 
 s8 scaling factor         :     0.0000 
 rs8 scaling factor        :     1.0000 
 Damping factor alpha6     :    14.0000 
 Damping factor alpha8     :    16.0000 
 ad hoc parameters k1-k3   :    16.0000     1.3333    -4.0000 

 Edisp/kcal,au: -1.463479043088  -0.002332202058 
 E6   /kcal   :  -1.463479043 
 E8   /kcal   :  -0.000000000 
 % E8         :   0.000000000 

-------------------------   ----------------
Dispersion correction           -0.002332202
-------------------------   ----------------


-------------------------   --------------------
FINAL SINGLE POINT ENERGY     -1113.633346367040
-------------------------   --------------------



           ************************************************************
           *        Program running with 6 parallel MPI-processes     *
           *              working on a common directory               *
           ************************************************************

------------------------------------------------------------------------------
                              ORCA PROPERTY CALCULATIONS
------------------------------------------------------------------------------

GBWName                                 ... data/single_point_P_M06-2x/11437688/11437688.gbw
Number of atoms                         ...     38
Number of basis functions               ...    759
Max core memory                         ...   1024 MB

Electric properties:
Dipole moment                           ... YES
Quadrupole moment                       ...  NO
Static polarizability (Dipole/Dipole)   ...  NO
Static polarizability (Dipole/Quad.)    ...  NO
Static polarizability (Quad./Quad.)     ...  NO
Static polarizability (Velocity)        ...  NO

Atomic electric properties:
Dipole moment                           ...  NO
Quadrupole moment                       ...  NO
Static polarizability                   ...  NO

Choice of electric origin               ... Center of mass
Position of electric origin             ...    -0.346651    -0.046849    -0.345626

General magnetic properties:
Magnetizability                         ...  NO

EPR properties:
g-Tensor (aka g-matrix)                 ...  NO
Zero-Field splitting spin-orbit         ...  NO
Zero-field splitting spin-spin          ...  NO
Hyperfine couplings                     ...  NO (   0 nuclei)
Quadrupole couplings                    ...  NO (   0 nuclei)
Contact density                         ...  NO (   0 nuclei)

NMR properties:
Chemical shifts                         ...  NO (   0 nuclei)
Spin-rotation constants                 ...  NO (   0 nuclei)
Spin-spin couplings                     ...  NO (   0 nuclei,    0 pairs)

Choice of magnetic origin               ... GIAO
Position of magnetic origin             ...     0.000000     0.000000     0.000000

Properties with geometric perturbations:
SCF Hessian                             ...  NO
IR spectrum                             ...  NO
VCD spectrum                            ...  NO
X-ray spectroscopy properties:
SCF XES/XAS/RIXS spectra                ...  NO


-------------
DIPOLE MOMENT
-------------

Method             : SCF
Type of density    : Electron Density
Multiplicity       :   1
Irrep              :   0
Energy             : -1113.6310141649821617 Eh
Relativity type    : 
Basis              : AO
                                X                 Y                 Z
Electronic contribution:     -6.535161454      -0.804061607      -5.650992180
Nuclear contribution   :      6.562539520       0.879402477       6.204123181
                        -----------------------------------------
Total Dipole Moment    :      0.027378066       0.075340870       0.553131001
                        -----------------------------------------
Magnitude (a.u.)       :      0.558909393
Magnitude (Debye)      :      1.420634778



--------------------
Rotational spectrum 
--------------------
 
Rotational constants in cm-1:             0.011622             0.007082             0.005051 
Rotational constants in MHz :           348.414691           212.302982           151.411133 

Dipole components along the rotational axes: 
x,y,z [a.u.] :    -0.016415    -0.004134     0.558653 
x,y,z [Debye]:    -0.041724    -0.010507     1.419983 

 

Dipole moment calculation done in   0.1 sec 

Maximum memory used throughout the entire PROP-calculation: 58.6 MB

--------------------------------
SUGGESTED CITATIONS FOR THIS RUN
--------------------------------

Below you find a list of papers that are relevant to this ORCA run
We neither can nor want to force you to cite these papers, but we appreciate if you do
You receive ORCA, which is the product of decades of hard work by many enthusiastic individuals, for free
The only thing we kindly ask in return is that you cite our papers,
We deeply appreciate it, if you show your appreciation for ORCA by not just citing the generic ORCA reference.

Please note that relegating all ORCA citations to the supporting information does *not* help us.
SI sections are not indexed - citations you put there will not count into any citation statistics
But we need these citations in order to attract the funding resources that allow us to do what we are doing

Therefore, if you are a happy ORCA user, please consider citing a few of the papers listed below in the main body of your paper

In addition to the list printed below, the program has created the file data/single_point_P_M06-2x/11437688/11437688.bibtex that contains the list in bibtex format
You can import this file easily into all common literature databanks and citation aid programs


List of essential papers. We consider these as the minimum necessary citations

  1. Neese,F.
     Software update: the ORCA program system, version 5.0
     WIRES Comput. Molec. Sci., 2022 12(1)e1606
     doi.org/10.1002/wcms.1606

List of papers to cite with high priority. The work reported in these papers was absolutely
necessary for this run to complete.
Our perspective: the developers of density functionals and basis sets usually get cited in chemistry papers
Good! But without the algorithms to do something with them, the functionals or basis sets would not do anything.
Hence, in our opinion, the algorithm design and method developments papers are equally worthy of getting cited

  1. Neese,F.
     An improvement of the resolution of the identity approximation for the formation of the Coulomb matrix
     J. Comp. Chem., 2003 24(14)1740-1747
     doi.org/10.1002/jcc.10318
  2. Neese,F.; Wennmohs,F.; Hansen,A.; Becker,U.
     Efficient, approximate and parallel Hartree-Fock and hybrid DFT calculations. A 'chain-of-spheres' algorithm for the Hartree-Fock exchange
     Chem. Phys., 2009 356(1-3)98-109
     doi.org/10.1016/j.chemphys.2008.10.036
  3. Helmich-Paris,B.; de Souza,B.; Neese,F.; Izsák,R.
     An improved chain of spheres for exchange algorithm
     J. Chem. Phys., 2021 155 104109
     doi.org/doi: 10.1063/5.0058766.
  4. Neese,F.
     The SHARK Integral Generation and Digestion System
     J. Comp. Chem., 2022  1-16
     doi.org/10.1002/jcc.26942
  5. Grimme,S.; Antony,J.; Ehrlich,S.; Krieg,H.
     A consistent and accurate ab initio parametrization of density functional dispersion correction (DFT-D) for the 94 elements H-Pu
     J. Chem. Phys., 2010 132 154104-XXXX
     doi.org/10.1063/1.3382344

List of suggested additional citations. These are papers that are important in the 'surrounding' of 
of this run, or papers that preceded the highly important papers. If you like your results we are grateful for a citation.

  1. Izsak,R.; Neese,F.
     An overlap fitted chain of spheres exchange method
     J. Chem. Phys., 2011 135 144105
     doi.org/10.1063/1.3646921
  2. Izsak,R.; Hansen,A.; Neese,F.
     The resolution of identity and chain of spheres approximations for the LPNO-CCSD singles Fock term
     Molec. Phys., 2012 110 2413-2417
     doi.org/10.1080/00268976.2012.687466
  3. Neese,F.
     The ORCA program system
     WIRES Comput. Molec. Sci., 2012 2(1)73-78
     doi.org/10.1002/wcms.81
  4. Izsak,R.; Neese,F.; Klopper,W.
     Robust fitting techniques in the chain of spheres approximation to the Fock exchange: The role of the complementary space
     J. Chem. Phys., 2013 139 
     doi.org/10.1063/1.4819264
  5. Neese,F.
     Software update: the ORCA program system, version 4.0
     WIRES Comput. Molec. Sci., 2018 8(1)1-6
     doi.org/10.1002/wcms.1327
  6. Neese,F.; Wennmohs,F.; Becker,U.; Riplinger,C.
     The ORCA quantum chemistry program package
     J. Chem. Phys., 2020 152 Art. No. L224108
     doi.org/10.1063/5.0004608

List of optional additional citations

  1. Neese,F.
     Approximate second-order SCF convergence for spin unrestricted wavefunctions
     Chem. Phys. Lett., 2000 325(1-3)93-98
     doi.org/10.1016/s0009-2614(00)00662-x

Timings for individual modules:

Sum of individual times          ...      143.250 sec (=   2.388 min)
Startup calculation              ...        4.455 sec (=   0.074 min)   3.1 %
SCF iterations                   ...      138.400 sec (=   2.307 min)  96.6 %
Property calculations            ...        0.395 sec (=   0.007 min)   0.3 %
                             ****ORCA TERMINATED NORMALLY****
TOTAL RUN TIME: 0 days 0 hours 2 minutes 23 seconds 615 msec
