
                                 *****************
                                 * O   R   C   A *
                                 *****************

                                            #,                                       
                                            ###                                      
                                            ####                                     
                                            #####                                    
                                            ######                                   
                                           ########,                                 
                                     ,,################,,,,,                         
                               ,,#################################,,                 
                          ,,##########################################,,             
                       ,#########################################, ''#####,          
                    ,#############################################,,   '####,        
                  ,##################################################,,,,####,       
                ,###########''''           ''''###############################       
              ,#####''   ,,,,##########,,,,          '''####'''          '####       
            ,##' ,,,,###########################,,,                        '##       
           ' ,,###''''                  '''############,,,                           
         ,,##''                                '''############,,,,        ,,,,,,###''
      ,#''                                            '''#######################'''  
     '                                                          ''''####''''         
             ,#######,   #######,   ,#######,      ##                                
            ,#'     '#,  ##    ##  ,#'     '#,    #''#        ,####,   ,####,        
            ##       ##  ##   ,#'  ##            #'  '#       #'       #'  '#        
            ##       ##  #######   ##           ,######,      #####,   #    #        
            '#,     ,#'  ##    ##  '#,     ,#' ,#      #,     #,   #   #,  ,#        
             '#######'   ##     ##  '#######'  #'      '#     '####' # '####'        



                #########################################################
                #                        -***-                          #
                #          Department of theory and spectroscopy        #
                #                                                       #
                #                      Frank Neese                      #
                #                                                       #
                #     Directorship, Architecture, Infrastructure        #
                #                    SHARK, DRIVERS                     #
                #        Core code/Algorithms in most modules           #
                #                                                       #
                #        Max Planck Institute fuer Kohlenforschung      #
                #                Kaiser Wilhelm Platz 1                 #
                #                 D-45470 Muelheim/Ruhr                 #
                #                      Germany                          #
                #                                                       #
                #                  All rights reserved                  #
                #                        -***-                          #
                #########################################################


                         Program Version 6.0.0  -   RELEASE   -


 With contributions from (in alphabetic order):
   Daniel Aravena         : Magnetic Suceptibility
   Michael Atanasov       : Ab Initio Ligand Field Theory (pilot matlab implementation)
   Alexander A. Auer      : GIAO ZORA, VPT2 properties, NMR spectrum
   Ute Becker             : All parallelization in ORCA, NUMFREQ, NUMCALC
   Giovanni Bistoni       : ED, misc. LED, open-shell LED, HFLD
   Martin Brehm           : Molecular dynamics
   Dmytro Bykov           : pre 5.0 version of the SCF Hessian
   Marcos Casanova-Páez   : Triplet and SCS-CIS(D). UHF-(DLPNO)-IP/EA/STEOM-CCSD. UHF-CVS-IP/STEOM-CCSD
   Vijay G. Chilkuri      : MRCI spin determinant printing, contributions to CSF-ICE
   Pauline Colinet        : FMM embedding
   Dipayan Datta          : RHF DLPNO-CCSD density
   Achintya Kumar Dutta   : EOM-CC, STEOM-CC
   Nicolas Foglia         : Exact transition moments, OPA infrastructure, MCD improvements
   Dmitry Ganyushin       : Spin-Orbit,Spin-Spin,Magnetic field MRCI
   Miquel Garcia          : C-PCM and meta-GGA Hessian, CCSD/C-PCM, Gaussian charge scheme
   Tiago L. C. Gouveia    : GS-ROHF, GS-ROCIS
   Yang Guo               : DLPNO-NEVPT2, F12-NEVPT2, CIM, IAO-localization
   Andreas Hansen         : Spin unrestricted coupled pair/coupled cluster methods
   Ingolf Harden          : AUTO-CI MPn and infrastructure 
   Benjamin Helmich-Paris : MC-RPA, TRAH-(SCF,CASSCF), AVAS, COSX integrals, SCF dyn. polar.
   Lee Huntington         : MR-EOM, pCC
   Robert Izsak           : Overlap fitted RIJCOSX, COSX-SCS-MP3, EOM
   Riya Kayal             : Wick's Theorem for AUTO-CI, AUTO-CI UHF-CCSDT
   Emily Kempfer          : AUTO-CI, RHF CISDT and CCSDT
   Christian Kollmar      : KDIIS, OOCD, Brueckner-CCSD(T), CCSD density, CASPT2, CASPT2-K, improved NEVPT2
   Axel Koslowski         : Symmetry handling
   Simone Kossmann        : Meta GGA functionals, TD-DFT gradient, OOMP2, (MP2 Hessian; deprecated post 5.0)
   Lucas Lang             : DCDCAS
   Marvin Lechner         : AUTO-CI (C++ implementation), FIC-MRCC
   Spencer Leger          : CASSCF response
   Dagmar Lenk            : GEPOL surface, SMD, ORCA-2-JSON
   Dimitrios Liakos       : Extrapolation schemes; Compound Job, initial MDCI parallelization
   Dimitrios Manganas     : Further ROCIS development; embedding schemes. LFT, Crystal Embedding
   Dimitrios Pantazis     : SARC Basis sets
   Anastasios Papadopoulos: AUTO-CI, single reference methods and gradients
   Taras Petrenko         : pre 6.0 DFT Hessian and TD-DFT gradient, (ASA, deprecated), ECA, 1-Electron XAS/XES, NRVS
   Peter Pinski           : DLPNO-MP2, DLPNO-MP2 Gradient
   Christoph Reimann      : Effective Core Potentials
   Marius Retegan         : Local ZFS, SOC
   Christoph Riplinger    : Optimizer, TS searches, QM/MM, DLPNO-CCSD(T), (RO)-DLPNO pert. Triples
   Michael Roemelt        : Original ROCIS implementation
   Masaaki Saitow         : Open-shell DLPNO-CCSD energy and density
   Barbara Sandhoefer     : DKH picture change effects
   Kantharuban Sivalingam : CASSCF convergence/infrastructure, NEVPT2 and variants, FIC-MRCI
   Bernardo de Souza      : ESD, SOC TD-DFT
   Georgi Stoychev        : AutoAux, RI-MP2 NMR, DLPNO-MP2 response, X2C
   Van Anh Tran           : RI-MP2 g-tensors
   Willem Van den Heuvel  : Paramagnetic NMR
   Zikuan Wang            : NOTCH, Electric field optimization 
   Frank Wennmohs         : Technical directorship and infrastructure
   Hang Xu                : AUTO-CI-Response properties 


 We gratefully acknowledge several colleagues who have allowed us to
 interface, adapt or use parts of their codes:
   Stefan Grimme, W. Hujo, H. Kruse, P. Pracht,  : VdW corrections, initial TS optimization,
                  C. Bannwarth, S. Ehlert,         DFT functionals, gCP, sTDA/sTD-DF
                  L. Wittmann, M. Mueller
   Ed Valeev, F. Pavosevic, A. Kumar             : LibInt (2-el integral package), F12 methods
   Garnet Chan, S. Sharma, J. Yang, R. Olivares  : DMRG
   Ulf Ekstrom                                   : XCFun DFT Library
   Mihaly Kallay                                 : mrcc  (arbitrary order and MRCC methods)
   Frank Weinhold                                : gennbo (NPA and NBO analysis)
   Simon Mueller                                 : openCOSMO-RS
   Christopher J. Cramer and Donald G. Truhlar   : smd solvation model
   Lars Goerigk                                  : TD-DFT with DH, B97 family of functionals
   V. Asgeirsson, H. Jonsson                     : NEB implementation
   FAccTs GmbH                                   : IRC, NEB, NEB-TS, DLPNO-Multilevel, CI-OPT
                                                   MM, QMMM, 2- and 3-layer-ONIOM, Crystal-QMMM,
                                                   LR-CPCM, SF, NACMEs, symmetry and pop. for TD-DFT,
                                                   nearIR, NL-DFT gradient (VV10), updates on ESD,
                                                   ML-optimized integration grids, MBIS, APM,
                                                   GOAT, DOCKER, SOLVATOR, interface openCOSMO-RS
   S Lehtola, MJT Oliveira, MAL Marques          : LibXC Library
   Liviu Ungur et al                             : ANISO software


 Your calculation uses the libint2 library for the computation of 2-el integrals
 For citations please refer to: http://libint.valeyev.net

 Your ORCA version has been built with support for libXC version: 6.2.2
 For citations please refer to: https://libxc.gitlab.io

 This ORCA versions uses:
   CBLAS   interface :  Fast vector & matrix operations
   LAPACKE interface :  Fast linear algebra routines
   Shared memory     :  Shared parallel matrices


Your calculation utilizes the atom-pairwise dispersion correction
with the Becke-Johnson damping scheme (D3BJ)


Warning: RI is on but no J-basis has been assigned. Assigning Def2/J (nothing to worry about!)
================================================================================

----- Orbital basis set information -----
Your calculation utilizes the basis: def2-SVP
   F. Weigend and R. Ahlrichs, Phys. Chem. Chem. Phys. 7, 3297 (2005).

----- AuxJ basis set information -----
Your calculation utilizes the auxiliary basis: def2/J
   F. Weigend, Phys. Chem. Chem. Phys. 8, 1057 (2006).

================================================================================
                                        WARNINGS
                       Please study these warnings very carefully!
================================================================================


WARNING: Geometry Optimization
  ===> : Switching off AutoStart
         For restart on a previous wavefunction, please use MOREAD

================================================================================
                                       INPUT FILE
================================================================================
NAME = data/geom_opt/342156/342156.inp
|  1> ! RIJONX B3LYP def2-SVP D3BJ TIGHTSCF Opt
|  2> %pal
|  3> nprocs 6
|  4> end
|  5> 
|  6> * xyz 0 1
|  7> C      3.229864   -1.206882   -0.699023
|  8> C      3.025283   -1.089084    0.672654
|  9> C      1.801058   -0.624707    1.160035
| 10> C      0.764748   -0.271789    0.282921
| 11> C      0.986304   -0.396013   -1.095072
| 12> C      2.211133   -0.860614   -1.582529
| 13> P     -0.798797    0.324134    0.996285
| 14> C     -2.053101   -0.750605    0.152697
| 15> C     -1.985436   -2.203158    0.622394
| 16> C     -3.025597   -3.002306   -0.037763
| 17> N     -3.850956   -3.623938   -0.565420
| 18> C     -1.078164    1.906468    0.069916
| 19> C     -0.078424    2.994167    0.460470
| 20> C     -0.368821    4.238408   -0.263349
| 21> N     -0.607394    5.215990   -0.840828
| 22> H      4.182102   -1.568121   -1.079188
| 23> H      3.818314   -1.358468    1.365805
| 24> H      1.668821   -0.542619    2.237491
| 25> H      0.216303   -0.135967   -1.816759
| 26> H      2.369389   -0.952077   -2.654497
| 27> H     -1.939672   -0.696988   -0.936173
| 28> H     -3.045019   -0.339575    0.379150
| 29> H     -1.004089   -2.638344    0.400130
| 30> H     -2.119087   -2.260248    1.709548
| 31> H     -1.048201    1.732610   -1.011866
| 32> H     -2.095941    2.247018    0.298566
| 33> H      0.946985    2.679065    0.234465
| 34> H     -0.121603    3.183642    1.539942
| 35> **                         ****END OF INPUT****
================================================================================

                       *****************************
                       * Geometry Optimization Run *
                       *****************************

Geometry optimization settings:
Update method            Update   .... BFGS
Choice of coordinates    CoordSys .... (2022) Redundant Internals
Initial Hessian          InHess   .... Almloef's Model
Max. no of cycles        MaxIter  .... 84

Convergence Tolerances:
Energy Change            TolE     ....  5.0000e-06 Eh
Max. Gradient            TolMAXG  ....  3.0000e-04 Eh/bohr
RMS Gradient             TolRMSG  ....  1.0000e-04 Eh/bohr
Max. Displacement        TolMAXD  ....  4.0000e-03 bohr
RMS Displacement         TolRMSD  ....  2.0000e-03 bohr
Strict Convergence                .... False

------------------------------------------------------------------------------
                        ORCA OPTIMIZATION COORDINATE SETUP
------------------------------------------------------------------------------

The optimization will be done in redundant internal coordinates (2022)
Making redundant internal coordinates   ...  (2022 redundants) done
Evaluating the initial hessian          ...  (Almloef) done
Evaluating the coordinates              ...  done
Calculating the B-matrix                .... done
Calculating the G-matrix                .... done
Diagonalizing the G-matrix              .... done
Small eigenvalue found = 9.107e-03
Small eigenvalue found = 9.689e-03
Small eigenvalue found = 1.781e-02
Small eigenvalue found = 2.708e-02
The first mode is                       ....   51
The number of degrees of freedom        ....   78

    -----------------------------------------------------------------
                    Redundant Internal Coordinates


    -----------------------------------------------------------------
         Definition                    Initial Value    Approx d2E/dq
    -----------------------------------------------------------------
      1. B(C   1,C   0)                  1.3918         0.620580   
      2. B(C   2,C   1)                  1.3971         0.608691   
      3. B(C   3,C   2)                  1.4028         0.596120   
      4. B(C   4,C   3)                  1.4012         0.599594   
      5. B(C   5,C   4)                  1.3977         0.607283   
      6. B(C   5,C   0)                  1.3922         0.619705   
      7. B(P   6,C   3)                  1.8190         0.434334   
      8. B(C   7,P   6)                  1.8547         0.380893   
      9. B(C   8,C   7)                  1.5281         0.376185   
     10. B(C   9,C   8)                  1.4685         0.468336   
     11. B(N  10,C   9)                  1.1602         1.301684   
     12. B(C  11,P   6)                  1.8547         0.380892   
     13. B(C  12,C  11)                  1.5281         0.376186   
     14. B(C  13,C  12)                  1.4685         0.468336   
     15. B(N  14,C  13)                  1.1602         1.301684   
     16. B(H  15,C   0)                  1.0871         0.363963   
     17. B(H  16,C   1)                  1.0872         0.363872   
     18. B(H  17,C   2)                  1.0886         0.361904   
     19. B(H  18,C   4)                  1.0869         0.364221   
     20. B(H  19,C   5)                  1.0874         0.363502   
     21. B(H  20,C   7)                  1.0961         0.352154   
     22. B(H  21,C   7)                  1.0973         0.350536   
     23. B(H  22,C   8)                  1.0963         0.351887   
     24. B(H  23,C   8)                  1.0968         0.351183   
     25. B(H  24,C  11)                  1.0961         0.352155   
     26. B(H  25,C  11)                  1.0973         0.350537   
     27. B(H  26,C  12)                  1.0963         0.351887   
     28. B(H  27,C  12)                  1.0968         0.351184   
     29. A(C   5,C   0,H  15)          120.1111         0.353519   
     30. A(C   1,C   0,C   5)          119.7886         0.434102   
     31. A(C   1,C   0,H  15)          120.1003         0.353603   
     32. A(C   2,C   1,H  16)          119.9422         0.352432   
     33. A(C   0,C   1,C   2)          120.0479         0.432704   
     34. A(C   0,C   1,H  16)          120.0099         0.353588   
     35. A(C   1,C   2,C   3)          120.8527         0.429590   
     36. A(C   1,C   2,H  17)          118.4745         0.352109   
     37. A(C   3,C   2,H  17)          120.6728         0.350869   
     38. A(C   2,C   3,P   6)          118.1782         0.431351   
     39. A(C   4,C   3,P   6)          123.4109         0.431801   
     40. A(C   2,C   3,C   4)          118.4109         0.428431   
     41. A(C   3,C   4,H  18)          121.3159         0.351593   
     42. A(C   3,C   4,C   5)          120.7301         0.429859   
     43. A(C   5,C   4,H  18)          117.9539         0.352351   
     44. A(C   0,C   5,C   4)          120.1698         0.432414   
     45. A(C   4,C   5,H  19)          119.9517         0.352234   
     46. A(C   0,C   5,H  19)          119.8785         0.353443   
     47. A(C   7,P   6,C  11)           99.5160         0.414799   
     48. A(C   3,P   6,C  11)          102.3037         0.424627   
     49. A(C   3,P   6,C   7)          102.3037         0.424627   
     50. A(C   8,C   7,H  20)          110.3203         0.323503   
     51. A(P   6,C   7,H  20)          110.7023         0.344144   
     52. A(P   6,C   7,C   8)          112.3996         0.388442   
     53. A(H  20,C   7,H  21)          106.2742         0.288603   
     54. A(C   8,C   7,H  21)          109.4297         0.323258   
     55. A(P   6,C   7,H  21)          107.4816         0.343878   
     56. A(C   7,C   8,C   9)          110.3500         0.378210   
     57. A(H  22,C   8,H  23)          106.8203         0.288652   
     58. A(C   9,C   8,H  23)          109.3267         0.335271   
     59. A(C   7,C   8,H  23)          110.4105         0.323356   
     60. A(C   9,C   8,H  22)          109.0805         0.335383   
     61. A(C   7,C   8,H  22)          110.7726         0.323462   
     62. L(C   8,C   9,N  10,C   7, 2) 179.9822         0.468878   
     63. L(C   8,C   9,N  10,C   7, 1) 179.4058         0.468878   
     64. A(C  12,C  11,H  25)          109.4297         0.323259   
     65. A(H  24,C  11,H  25)          106.2742         0.288603   
     66. A(P   6,C  11,H  25)          107.4816         0.343878   
     67. A(C  12,C  11,H  24)          110.3203         0.323503   
     68. A(P   6,C  11,H  24)          110.7023         0.344144   
     69. A(P   6,C  11,C  12)          112.3996         0.388442   
     70. A(H  26,C  12,H  27)          106.8202         0.288652   
     71. A(C  13,C  12,H  27)          109.3267         0.335271   
     72. A(C  11,C  12,H  27)          110.4105         0.323356   
     73. A(C  13,C  12,H  26)          109.0805         0.335383   
     74. A(C  11,C  12,H  26)          110.7727         0.323462   
     75. A(C  11,C  12,C  13)          110.3500         0.378210   
     76. L(C  12,C  13,N  14,C  11, 2) 180.0177         0.468878   
     77. L(C  12,C  13,N  14,C  11, 1) 179.4059         0.468878   
     78. D(C   2,C   1,C   0,C   5)     -0.0000         0.026652   
     79. D(C   2,C   1,C   0,H  15)    180.0000         0.026652   
     80. D(H  16,C   1,C   0,H  15)      0.0000         0.026652   
     81. D(H  16,C   1,C   0,C   5)   -180.0000         0.026652   
     82. D(C   3,C   2,C   1,C   0)     -0.0000         0.025582   
     83. D(C   3,C   2,C   1,H  16)    179.9999         0.025582   
     84. D(H  17,C   2,C   1,C   0)   -180.0000         0.025582   
     85. D(H  17,C   2,C   1,H  16)     -0.0000         0.025582   
     86. D(P   6,C   3,C   2,C   1)   -179.9999         0.024481   
     87. D(P   6,C   3,C   2,H  17)      0.0000         0.024481   
     88. D(C   4,C   3,C   2,H  17)    180.0000         0.024481   
     89. D(C   4,C   3,C   2,C   1)      0.0000         0.024481   
     90. D(H  18,C   4,C   3,C   2)   -180.0000         0.024782   
     91. D(C   5,C   4,C   3,P   6)    179.9999         0.024782   
     92. D(C   5,C   4,C   3,C   2)     -0.0000         0.024782   
     93. D(H  18,C   4,C   3,P   6)     -0.0000         0.024782   
     94. D(H  19,C   5,C   4,H  18)      0.0000         0.025458   
     95. D(C   0,C   5,C   4,H  18)    180.0000         0.025458   
     96. D(C   0,C   5,C   4,C   3)      0.0000         0.025458   
     97. D(H  19,C   5,C   0,H  15)     -0.0000         0.026573   
     98. D(H  19,C   5,C   0,C   1)    180.0000         0.026573   
     99. D(H  19,C   5,C   4,C   3)   -179.9999         0.025458   
    100. D(C   4,C   5,C   0,H  15)   -180.0000         0.026573   
    101. D(C   4,C   5,C   0,C   1)      0.0000         0.026573   
    102. D(C  11,P   6,C   3,C   4)    -51.3767         0.003850   
    103. D(C  11,P   6,C   3,C   2)    128.6232         0.003850   
    104. D(C   7,P   6,C   3,C   4)     51.3768         0.003850   
    105. D(C   7,P   6,C   3,C   2)   -128.6233         0.003850   
    106. D(H  20,C   7,P   6,C   3)    -53.9491         0.003458   
    107. D(C   8,C   7,P   6,C  11)    174.8541         0.003458   
    108. D(C   8,C   7,P   6,C   3)     69.9200         0.003458   
    109. D(H  21,C   7,P   6,C   3)   -169.6140         0.003458   
    110. D(H  20,C   7,P   6,C  11)     50.9850         0.003458   
    111. D(H  23,C   8,C   7,P   6)     57.0617         0.011291   
    112. D(H  22,C   8,C   7,H  21)    179.6033         0.011291   
    113. D(H  22,C   8,C   7,H  20)     63.0198         0.011291   
    114. D(H  22,C   8,C   7,P   6)    -61.0614         0.011291   
    115. D(C   9,C   8,C   7,H  21)     58.7002         0.011291   
    116. D(C   9,C   8,C   7,H  20)    -57.8833         0.011291   
    117. D(C   9,C   8,C   7,P   6)    178.0356         0.011291   
    118. D(H  25,C  11,P   6,C   3)    169.6141         0.003458   
    119. D(H  24,C  11,P   6,C   7)    -50.9849         0.003458   
    120. D(H  24,C  11,P   6,C   3)     53.9491         0.003458   
    121. D(C  12,C  11,P   6,C   7)   -174.8540         0.003458   
    122. D(C  12,C  11,P   6,C   3)    -69.9199         0.003458   
    123. D(H  27,C  12,C  11,P   6)    -57.0617         0.011291   
    124. D(H  26,C  12,C  11,H  25)   -179.6034         0.011291   
    125. D(H  26,C  12,C  11,H  24)    -63.0198         0.011291   
    126. D(H  26,C  12,C  11,P   6)     61.0613         0.011291   
    127. D(C  13,C  12,C  11,H  25)    -58.7002         0.011291   
    128. D(C  13,C  12,C  11,H  24)     57.8833         0.011291   
    129. D(C  13,C  12,C  11,P   6)   -178.0356         0.011291   
    -----------------------------------------------------------------

Number of atoms                         .... 28
Number of degrees of freedom            .... 129


         *************************************************************
         *                GEOMETRY OPTIMIZATION CYCLE   1            *
         *************************************************************
---------------------------------
CARTESIAN COORDINATES (ANGSTROEM)
---------------------------------
  C      3.229864   -1.206882   -0.699023
  C      3.025283   -1.089084    0.672654
  C      1.801058   -0.624707    1.160035
  C      0.764748   -0.271789    0.282921
  C      0.986304   -0.396013   -1.095072
  C      2.211133   -0.860614   -1.582529
  P     -0.798797    0.324134    0.996285
  C     -2.053101   -0.750605    0.152697
  C     -1.985436   -2.203158    0.622394
  C     -3.025597   -3.002306   -0.037763
  N     -3.850956   -3.623938   -0.565420
  C     -1.078164    1.906468    0.069916
  C     -0.078424    2.994167    0.460470
  C     -0.368821    4.238408   -0.263349
  N     -0.607394    5.215990   -0.840828
  H      4.182102   -1.568121   -1.079188
  H      3.818314   -1.358468    1.365805
  H      1.668821   -0.542619    2.237491
  H      0.216303   -0.135967   -1.816759
  H      2.369389   -0.952077   -2.654497
  H     -1.939672   -0.696988   -0.936173
  H     -3.045019   -0.339575    0.379150
  H     -1.004089   -2.638344    0.400130
  H     -2.119087   -2.260248    1.709548
  H     -1.048201    1.732610   -1.011866
  H     -2.095941    2.247018    0.298566
  H      0.946985    2.679065    0.234465
  H     -0.121603    3.183642    1.539942

----------------------------
CARTESIAN COORDINATES (A.U.)
----------------------------
  NO LB      ZA    FRAG     MASS         X           Y           Z
   0 C     6.0000    0    12.011    6.103558   -2.280676   -1.320962
   1 C     6.0000    0    12.011    5.716956   -2.058070    1.271132
   2 C     6.0000    0    12.011    3.403506   -1.180525    2.192148
   3 C     6.0000    0    12.011    1.445164   -0.513607    0.534643
   4 C     6.0000    0    12.011    1.863844   -0.748356   -2.069386
   5 C     6.0000    0    12.011    4.178436   -1.626325   -2.990546
   6 P    15.0000    0    30.974   -1.509508    0.612524    1.882706
   7 C     6.0000    0    12.011   -3.879799   -1.418438    0.288556
   8 C     6.0000    0    12.011   -3.751930   -4.163365    1.176154
   9 C     6.0000    0    12.011   -5.717550   -5.673536   -0.071362
  10 N     7.0000    0    14.007   -7.277252   -6.848250   -1.068489
  11 C     6.0000    0    12.011   -2.037435    3.602702    0.132122
  12 C     6.0000    0    12.011   -0.148200    5.658156    0.870162
  13 C     6.0000    0    12.011   -0.696971    8.009430   -0.497657
  14 N     7.0000    0    14.007   -1.147808    9.856793   -1.588935
  15 H     1.0000    0     1.008    7.903027   -2.963319   -2.039370
  16 H     1.0000    0     1.008    7.215568   -2.567132    2.580997
  17 H     1.0000    0     1.008    3.153615   -1.025401    4.228245
  18 H     1.0000    0     1.008    0.408753   -0.256940   -3.433177
  19 H     1.0000    0     1.008    4.477496   -1.799165   -5.016272
  20 H     1.0000    0     1.008   -3.665449   -1.317116   -1.769111
  21 H     1.0000    0     1.008   -5.754252   -0.641704    0.716490
  22 H     1.0000    0     1.008   -1.897453   -4.985748    0.756136
  23 H     1.0000    0     1.008   -4.004494   -4.271250    3.230578
  24 H     1.0000    0     1.008   -1.980813    3.274158   -1.912150
  25 H     1.0000    0     1.008   -3.960754    4.246249    0.564208
  26 H     1.0000    0     1.008    1.789542    5.062699    0.443075
  27 H     1.0000    0     1.008   -0.229796    6.016211    2.910069

--------------------------------
INTERNAL COORDINATES (ANGSTROEM)
--------------------------------
 C      0   0   0     0.000000000000     0.00000000     0.00000000
 C      1   0   0     1.391843219150     0.00000000     0.00000000
 C      2   1   0     1.397108831808   120.04787966     0.00000000
 C      3   2   1     1.402789542241   120.85269668     0.00000000
 C      4   3   2     1.401207825899   118.41088861     0.00000000
 C      1   2   3     1.392227434804   119.78857784     0.00000000
 P      4   3   2     1.818979215233   118.17824125   180.00007769
 C      7   4   3     1.854719158331   102.30372104   231.37674483
 C      8   7   4     1.528104722145   112.39957406    69.92002175
 C      9   8   7     1.468461676883   110.35003874   178.03555872
 N     10   9   8     1.160200729165   179.40574955     1.01525611
 C      7   4   3     1.854720014559   102.30371625   128.62324236
 C     12   7   4     1.528103926151   112.39956454   290.08008661
 C     13  12   7     1.468461789919   110.35002695   181.96440550
 N     14  13  12     1.160200688887   179.40579679   358.99214871
 H      1   2   3     1.087095327462   120.10033463   179.99998790
 H      2   1   3     1.087163380186   120.00991782   180.00005489
 H      3   2   1     1.088639745668   118.47451703   180.00003462
 H      5   4   3     1.086902750059   121.31593398   180.00000814
 H      6   1   2     1.087440037395   119.87846865   179.99998197
 H      8   7   4     1.096074266476   110.70230226   306.05092082
 H      8   7   4     1.097327636047   107.48160719   190.38604206
 H      9   8   7     1.096280107774   110.77258905   298.93864073
 H      9   8   7     1.096825272145   110.41045733    57.06172544
 H     12   7   4     1.096073300951   110.70225937    53.94913565
 H     12   7   4     1.097326362906   107.48159525   169.61405515
 H     13  12   7     1.096280597160   110.77267356    61.06128428
 H     13  12   7     1.096824963451   110.41048807   302.93827155

---------------------------
INTERNAL COORDINATES (A.U.)
---------------------------
 C      0   0   0     0.000000000000     0.00000000     0.00000000
 C      1   0   0     2.630202505549     0.00000000     0.00000000
 C      2   1   0     2.640153071399   120.04787966     0.00000000
 C      3   2   1     2.650888058364   120.85269668     0.00000000
 C      4   3   2     2.647899047657   118.41088861     0.00000000
 C      1   2   3     2.630928567911   119.78857784     0.00000000
 P      4   3   2     3.437372560086   118.17824125   180.00007769
 C      7   4   3     3.504911264583   102.30372104   231.37674483
 C      8   7   4     2.887699428807   112.39957406    69.92002175
 C      9   8   7     2.774990407468   110.35003874   178.03555872
 N     10   9   8     2.192461638497   179.40574955     1.01525611
 C      7   4   3     3.504912882619   102.30371625   128.62324236
 C     12   7   4     2.887697924595   112.39956454   290.08008661
 C     13  12   7     2.774990621074   110.35002695   181.96440550
 N     14  13  12     2.192461562383   179.40579679   358.99214871
 H      1   2   3     2.054312450369   120.10033463   179.99998790
 H      2   1   3     2.054441051380   120.00991782   180.00005489
 H      3   2   1     2.057230977815   118.47451703   180.00003462
 H      5   4   3     2.053948531818   121.31593398   180.00000814
 H      6   1   2     2.054963857737   119.87846865   179.99998197
 H      8   7   4     2.071280186077   110.70230226   306.05092082
 H      8   7   4     2.073648711312   107.48160719   190.38604206
 H      9   8   7     2.071669169759   110.77258905   298.93864073
 H      9   8   7     2.072699381119   110.41045733    57.06172544
 H     12   7   4     2.071278361500   110.70225937    53.94913565
 H     12   7   4     2.073646305425   107.48159525   169.61405515
 H     13  12   7     2.071670094564   110.77267356    61.06128428
 H     13  12   7     2.072698797771   110.41048807   302.93827155

---------------------
BASIS SET INFORMATION
---------------------
There are 4 groups of distinct atoms

 Group   1 Type C   : 7s4p1d contracted to 3s2p1d pattern {511/31/1}
 Group   2 Type P   : 10s7p1d contracted to 4s3p1d pattern {5311/511/1}
 Group   3 Type N   : 7s4p1d contracted to 3s2p1d pattern {511/31/1}
 Group   4 Type H   : 4s1p contracted to 2s1p pattern {31/1}

Atom   0C    basis set group =>   1
Atom   1C    basis set group =>   1
Atom   2C    basis set group =>   1
Atom   3C    basis set group =>   1
Atom   4C    basis set group =>   1
Atom   5C    basis set group =>   1
Atom   6P    basis set group =>   2
Atom   7C    basis set group =>   1
Atom   8C    basis set group =>   1
Atom   9C    basis set group =>   1
Atom  10N    basis set group =>   3
Atom  11C    basis set group =>   1
Atom  12C    basis set group =>   1
Atom  13C    basis set group =>   1
Atom  14N    basis set group =>   3
Atom  15H    basis set group =>   4
Atom  16H    basis set group =>   4
Atom  17H    basis set group =>   4
Atom  18H    basis set group =>   4
Atom  19H    basis set group =>   4
Atom  20H    basis set group =>   4
Atom  21H    basis set group =>   4
Atom  22H    basis set group =>   4
Atom  23H    basis set group =>   4
Atom  24H    basis set group =>   4
Atom  25H    basis set group =>   4
Atom  26H    basis set group =>   4
Atom  27H    basis set group =>   4
---------------------------------
AUXILIARY/J BASIS SET INFORMATION
---------------------------------
There are 4 groups of distinct atoms

 Group   1 Type C   : 12s5p4d2f1g contracted to 6s4p3d1f1g pattern {711111/2111/211/2/1}
 Group   2 Type P   : 14s5p5d2f1g contracted to 8s4p3d1f1g pattern {71111111/2111/311/2/1}
 Group   3 Type N   : 12s5p4d2f1g contracted to 6s4p3d1f1g pattern {711111/2111/211/2/1}
 Group   4 Type H   : 5s2p1d contracted to 3s1p1d pattern {311/2/1}

Atom   0C    basis set group =>   1
Atom   1C    basis set group =>   1
Atom   2C    basis set group =>   1
Atom   3C    basis set group =>   1
Atom   4C    basis set group =>   1
Atom   5C    basis set group =>   1
Atom   6P    basis set group =>   2
Atom   7C    basis set group =>   1
Atom   8C    basis set group =>   1
Atom   9C    basis set group =>   1
Atom  10N    basis set group =>   3
Atom  11C    basis set group =>   1
Atom  12C    basis set group =>   1
Atom  13C    basis set group =>   1
Atom  14N    basis set group =>   3
Atom  15H    basis set group =>   4
Atom  16H    basis set group =>   4
Atom  17H    basis set group =>   4
Atom  18H    basis set group =>   4
Atom  19H    basis set group =>   4
Atom  20H    basis set group =>   4
Atom  21H    basis set group =>   4
Atom  22H    basis set group =>   4
Atom  23H    basis set group =>   4
Atom  24H    basis set group =>   4
Atom  25H    basis set group =>   4
Atom  26H    basis set group =>   4
Atom  27H    basis set group =>   4


           ************************************************************
           *        Program running with 6 parallel MPI-processes     *
           *              working on a common directory               *
           ************************************************************
------------------------------------------------------------------------------
                             ORCA STARTUP CALCULATIONS
                           -- RI-GTO INTEGRALS CHOSEN --
------------------------------------------------------------------------------
------------------------------------------------------------------------------
                   ___                                                        
                  /   \      - P O W E R E D   B Y -                         
                 /     \                                                     
                 |  |  |   _    _      __       _____    __    __             
                 |  |  |  | |  | |    /  \     |  _  \  |  |  /  |          
                  \  \/   | |  | |   /    \    | | | |  |  | /  /          
                 / \  \   | |__| |  /  /\  \   | |_| |  |  |/  /          
                |  |  |   |  __  | /  /__\  \  |    /   |      \           
                |  |  |   | |  | | |   __   |  |    \   |  |\   \          
                \     /   | |  | | |  |  |  |  | |\  \  |  | \   \       
                 \___/    |_|  |_| |__|  |__|  |_| \__\ |__|  \__/        
                                                                              
                      - O R C A' S   B I G   F R I E N D -                    
                                      &                                       
                       - I N T E G R A L  F E E D E R -                       
                                                                              
 v1 FN, 2020, v2 2021, v3 2022-2024                                           
------------------------------------------------------------------------------


----------------------
SHARK INTEGRAL PACKAGE
----------------------

Number of atoms                             ...     28
Number of basis functions                   ...    279
Number of shells                            ...    131
Maximum angular momentum                    ...      2
Integral batch strategy                     ... SHARK/LIBINT Hybrid
RI-J (if used) integral strategy            ... SPLIT-RIJ (Revised 2003 algorithm where possible)
Printlevel                                  ...      1
Contraction scheme used                     ... SEGMENTED contraction
Prescreening option                         ... SCHWARTZ
   Thresh                                   ... 2.500e-11
   Tcut                                     ... 2.500e-12
   Tpresel                                  ... 2.500e-12 
Coulomb Range Separation                    ... NOT USED
Exchange Range Separation                   ... NOT USED
Multipole approximations                    ... NOT USED
Finite Nucleus Model                        ... NOT USED
CABS basis                                  ... NOT available
Auxiliary Coulomb fitting basis             ... AVAILABLE
   # of basis functions in Aux-J            ...    880
   # of shells in Aux-J                     ...    292
   Maximum angular momentum in Aux-J        ...      4
Auxiliary J/K fitting basis                 ... NOT available
Auxiliary Correlation fitting basis         ... NOT available
Auxiliary 'external' fitting basis          ... NOT available

Checking pre-screening integrals            ... done (  0.0 sec) Dimension = 131
Check shell pair data                       ... done (  0.0 sec)
Shell pair information
Shell pair cut-off parameter TPreSel        ...   2.5e-12
Total number of shell pairs                 ...      8646
Shell pairs after pre-screening             ...      7042
Total number of primitive shell pairs       ...     31870
Primitive shell pairs kept                  ...     17135
          la=0 lb=0:   2183 shell pairs
          la=1 lb=0:   2644 shell pairs
          la=1 lb=1:    824 shell pairs
          la=2 lb=0:    819 shell pairs
          la=2 lb=1:    497 shell pairs
          la=2 lb=2:     75 shell pairs

Calculating one electron integrals          ... done (  0.0 sec)
Calculating RI/J V-Matrix + Cholesky decomp.... done (  0.0 sec)
Calculating Nuclear repulsion               ... done (  0.0 sec) ENN=    974.637234480065 Eh

Diagonalization of the overlap matrix:
Smallest eigenvalue                        ... 2.861e-04
Time for diagonalization                   ...    0.009 sec
Threshold for overlap eigenvalues          ... 1.000e-07
Number of eigenvalues below threshold      ... 0
Time for construction of square roots      ...    0.006 sec
Total time needed                          ...    0.017 sec

-------------------
DFT GRID GENERATION
-------------------

General Integration Accuracy     IntAcc      ... 4.388
Radial Grid Type                 RadialGrid  ... OptM3 with GC (2021)
Angular Grid (max. ang.)         AngularGrid ... 4 (Lebedev-302)
Angular grid pruning method      GridPruning ... 4 (adaptive)
Weight generation scheme         WeightScheme... mBecke (2022)
Basis function cutoff            BFCut       ... 1.0000e-11
Integration weight cutoff        WCut        ... 1.0000e-14
Partially contracted basis set               ... off
Rotationally invariant grid construction     ... off
Angular grids for H and He will be reduced by one unit

Total number of grid points                  ...   132655
Total number of batches                      ...     2088
Average number of points per batch           ...       63
Average number of grid points per atom       ...     4738
Initializing property integral containers    ... done (  0.0 sec)

SHARK setup successfully completed in   0.9 seconds

Maximum memory used throughout the entire STARTUP-calculation: 35.4 MB


           ************************************************************
           *        Program running with 6 parallel MPI-processes     *
           *              working on a common directory               *
           ************************************************************
-------------------------------------------------------------------------------
                                 ORCA GUESS
                   Start orbitals & Density for SCF / CASSCF
-------------------------------------------------------------------------------

------------
SCF SETTINGS
------------
Hamiltonian:
 Density Functional     Method          .... DFT(GTOs)
 Exchange Functional    Exchange        .... B88
   X-Alpha parameter    XAlpha          ....  0.666667
   Becke's b parameter  XBeta           ....  0.004200
 Correlation Functional Correlation     .... LYP
 LDA part of GGA corr.  LDAOpt          .... VWN-5
 Gradients option       PostSCFGGA      .... off
 Hybrid DFT is turned on
   Fraction HF Exchange ScalHFX         ....  0.200000
   Scaling of DF-GGA-X  ScalDFX         ....  0.720000
   Scaling of DF-GGA-C  ScalDFC         ....  0.810000
   Scaling of DF-LDA-C  ScalLDAC        ....  1.000000
   Perturbative correction              ....  0.000000
   NL short-range parameter             ....  4.800000
 RI-approximation to the Coulomb term is turned on
   Number of AuxJ basis functions       .... 880
   RIJ-ON(X) (HFX calculated with O(N)) .... on


General Settings:
 Integral files         IntName         .... data/geom_opt/342156/342156
 Hartree-Fock type      HFTyp           .... RHF
 Total Charge           Charge          ....    0
 Multiplicity           Mult            ....    1
 Number of Electrons    NEL             ....  114
 Basis Dimension        Dim             ....  279
 Nuclear Repulsion      ENuc            ....    974.6372344801 Eh

Convergence Acceleration:
 AO-DIIS                CNVDIIS         .... on
   Start iteration      DIISMaxIt       ....    12
   Startup error        DIISStart       ....  0.200000
   # of expansion vecs  DIISMaxEq       ....     5
   Bias factor          DIISBfac        ....   1.050
   Max. coefficient     DIISMaxC        ....  10.000
 MO-DIIS                CNVKDIIS        .... off
 Trust-Rad. Augm. Hess. CNVTRAH         .... auto
   Auto Start mean grad. ratio tolernc. ....  1.125000
   Auto Start start iteration           ....    50
   Auto Start num. interpolation iter.  ....    10
   Max. Number of Micro iterations      ....    24
   Max. Number of Macro iterations      .... Maxiter - #DIIS iter
   Number of Davidson start vectors     ....     2
   Converg. threshold    (grad. norm)   ....   1.000e-05
   Grad. Scal. Fac. for Micro threshold ....   0.100
   Minimum threshold for Micro iter.    ....   1.000e-02
   NR start threshold (gradient norm)   ....   1.000e-04
   Initial trust radius                 ....   0.400
   Minimum AH scaling param. (alpha)    ....   1.000
   Maximum AH scaling param. (alpha)    .... 1000.000
   Quad. conv. algorithm                .... NR
   White noise on init. David. guess    .... on
   Maximum white noise                  ....   0.010
   Pseudo random numbers                .... off
   Inactive MOs                         .... canonical
   Orbital update algorithm             .... Taylor
   Preconditioner                       .... Diag
   Full preconditioner red. dimension   ....   250
   COSX micro iterations for RIJONX calc.... off
 SOSCF                  CNVSOSCF        .... on
   Start iteration      SOSCFMaxIt      ....   150
   Startup grad/error   SOSCFStart      ....  0.003300
   Hessian update       SOSCFHessUp     .... L-BFGS
 Level Shifting         CNVShift        .... on
   Level shift para.    LevelShift      ....    0.2500
   Turn off err/grad.   ShiftErr        ....    0.0010
 Zerner damping         CNVZerner       .... off
 Static damping         CNVDamp         .... on
   Fraction old density DampFac         ....    0.7000
   Max. Damping (<1)    DampMax         ....    0.9800
   Min. Damping (>=0)   DampMin         ....    0.0000
   Turn off err/grad.   DampErr         ....    0.1000

SCF Procedure:
 Maximum # iterations   MaxIter         ....   125
 SCF integral mode      SCFMode         .... Direct
   Integral package                     .... SHARK and LIBINT hybrid scheme
 Reset frequency        DirectResetFreq ....    20
 Integral Threshold     Thresh          ....  2.500e-11 Eh
 Primitive CutOff       TCut            ....  2.500e-12 Eh

Convergence Tolerance:
 Convergence Check Mode ConvCheckMode   .... Total+1el-Energy
 Convergence forced     ConvForced      .... 0
 Energy Change          TolE            ....  1.000e-08 Eh
 1-El. energy change                    ....  1.000e-05 Eh
 Orbital Gradient       TolG            ....  1.000e-05
 Orbital Rotation angle TolX            ....  1.000e-05
 DIIS Error             TolErr          ....  5.000e-07

------------------------------
INITIAL GUESS: MODEL POTENTIAL
------------------------------
Loading Hartree-Fock densities                     ... done
Calculating cut-offs                               ... done
Initializing the effective Hamiltonian             ... done
Setting up the integral package (SHARK)            ... done
Starting the Coulomb interaction                   ... done (   0.1 sec)
Making the grid                                    ... done (   0.2 sec)
Mapping shells                                     ... done
Starting the XC term evaluation                    ... done (   0.1 sec)
  promolecular density results
     # of electrons  =    113.992898801
     EX              =   -101.209098609
     EC              =     -3.903383111
     EX+EC           =   -105.112481720
Transforming the Hamiltonian                       ... done (   0.0 sec)
Diagonalizing the Hamiltonian                      ... done (   0.0 sec)
Back transforming the eigenvectors                 ... done (   0.0 sec)
Now organizing SCF variables                       ... done
                      ------------------
                      INITIAL GUESS DONE (   0.4 sec)
                      ------------------
             **** ENERGY FILE WAS UPDATED (data/geom_opt/342156/342156.en.tmp) ****
Finished Guess after   0.5 sec
Maximum memory used throughout the entire GUESS-calculation: 19.7 MB


           ************************************************************
           *        Program running with 6 parallel MPI-processes     *
           *              working on a common directory               *
           ************************************************************

-------------------------------------------------------------------------------------------
                                      ORCA LEAN-SCF
                              memory conserving SCF solver
-------------------------------------------------------------------------------------------

----------------------------------------D-I-I-S--------------------------------------------
Iteration    Energy (Eh)           Delta-E    RMSDP     MaxDP     DIISErr   Damp  Time(sec)
-------------------------------------------------------------------------------------------
               ***  Starting incremental Fock matrix formation  ***
    1    -914.5892885998243855     0.00e+00  2.95e-03  9.11e-02  2.39e-01  0.700   2.3
    2    -914.7848806689764842    -1.96e-01  2.03e-03  5.00e-02  9.23e-02  0.700   2.1
                               ***Turning on AO-DIIS***
    3    -914.8546614080269137    -6.98e-02  9.86e-04  3.28e-02  3.17e-02  0.700   2.1
    4    -914.8991569775287189    -4.45e-02  1.75e-03  8.46e-02  1.80e-02  0.000   1.9
    5    -914.9969052570970689    -9.77e-02  2.99e-04  1.04e-02  6.92e-03  0.000   2.1
                              *** Initializing SOSCF ***
---------------------------------------S-O-S-C-F--------------------------------------
Iteration    Energy (Eh)           Delta-E    RMSDP     MaxDP     MaxGrad    Time(sec)
--------------------------------------------------------------------------------------
    6    -914.9977234369787311    -8.18e-04  9.37e-05  3.65e-03  1.30e-03     1.9
               *** Restarting incremental Fock matrix formation ***
    7    -914.9977636020296359    -4.02e-05  5.77e-05  1.08e-03  2.03e-04     2.3
    8    -914.9977645431788460    -9.41e-07  1.93e-05  5.76e-04  2.79e-04     1.7
    9    -914.9977676726045956    -3.13e-06  1.66e-05  4.48e-04  1.78e-04     1.6
   10    -914.9977672410655032     4.32e-07  8.59e-06  2.72e-04  2.05e-04     1.5
   11    -914.9977682190176438    -9.78e-07  5.74e-06  2.63e-04  4.76e-05     1.5
   12    -914.9977681414618473     7.76e-08  3.25e-06  9.03e-05  8.01e-05     1.4
   13    -914.9977682670357808    -1.26e-07  1.28e-06  8.97e-05  4.61e-06     1.3
   14    -914.9977682729816024    -5.95e-09  6.40e-07  4.31e-05  5.76e-06     1.1
                 **** Energy Check signals convergence ****

               *****************************************************
               *                     SUCCESS                       *
               *           SCF CONVERGED AFTER  14 CYCLES          *
               *****************************************************

             **** ENERGY FILE WAS UPDATED (data/geom_opt/342156/342156.en.tmp) ****

----------------
TOTAL SCF ENERGY
----------------

Total Energy       :       -914.99776827298160 Eh          -24898.35508 eV

Components:
Nuclear Repulsion  :        974.63723448006522 Eh           26521.22746 eV
Electronic Energy  :      -1889.63500275304682 Eh          -51419.58255 eV
One Electron Energy:      -3180.70511924683569 Eh          -86551.38648 eV
Two Electron Energy:       1291.07011649378887 Eh           35131.80394 eV

Virial components:
Potential Energy   :      -1823.25840351152556 Eh          -49613.38346 eV
Kinetic Energy     :        908.26063523854407 Eh           24715.02837 eV
Virial Ratio       :          2.00741762086019

DFT components:
N(Alpha)           :       56.999954291253 electrons
N(Beta)            :       56.999954291253 electrons
N(Total)           :      113.999908582506 electrons
E(X)               :      -81.361250588817 Eh       
E(C)               :       -4.606143134644 Eh       
E(XC)              :      -85.967393723460 Eh       

---------------
SCF CONVERGENCE
---------------

  Last Energy change         ...    5.9458e-09  Tolerance :   1.0000e-08
  Last MAX-Density change    ...    4.3103e-05  Tolerance :   1.0000e-07
  Last RMS-Density change    ...    6.4042e-07  Tolerance :   5.0000e-09
  Last DIIS Error            ...    1.3044e-03  Tolerance :   5.0000e-07
  Last Orbital Gradient      ...    5.7577e-06  Tolerance :   1.0000e-05
  Last Orbital Rotation      ...    5.7300e-06  Tolerance :   1.0000e-05


----------------
ORBITAL ENERGIES
----------------

  NO   OCC          E(Eh)            E(eV) 
   0   2.0000     -77.065511     -2097.0592 
   1   2.0000     -14.325791      -389.8246 
   2   2.0000     -14.325785      -389.8244 
   3   2.0000     -10.245239      -278.7871 
   4   2.0000     -10.245230      -278.7869 
   5   2.0000     -10.227368      -278.3008 
   6   2.0000     -10.227363      -278.3007 
   7   2.0000     -10.217852      -278.0419 
   8   2.0000     -10.217843      -278.0416 
   9   2.0000     -10.215039      -277.9654 
  10   2.0000     -10.213211      -277.9156 
  11   2.0000     -10.211648      -277.8731 
  12   2.0000     -10.211290      -277.8633 
  13   2.0000     -10.210713      -277.8476 
  14   2.0000     -10.209661      -277.8190 
  15   2.0000      -6.563415      -178.5996 
  16   2.0000      -4.728890      -128.6796 
  17   2.0000      -4.728621      -128.6723 
  18   2.0000      -4.725655      -128.5916 
  19   2.0000      -0.896758       -24.4020 
  20   2.0000      -0.896507       -24.3952 
  21   2.0000      -0.871603       -23.7175 
  22   2.0000      -0.823985       -22.4218 
  23   2.0000      -0.808489       -22.0001 
  24   2.0000      -0.767709       -20.8904 
  25   2.0000      -0.760176       -20.6854 
  26   2.0000      -0.710752       -19.3405 
  27   2.0000      -0.659767       -17.9532 
  28   2.0000      -0.629129       -17.1195 
  29   2.0000      -0.620140       -16.8749 
  30   2.0000      -0.571326       -15.5466 
  31   2.0000      -0.532636       -14.4938 
  32   2.0000      -0.530065       -14.4238 
  33   2.0000      -0.509311       -13.8591 
  34   2.0000      -0.500381       -13.6161 
  35   2.0000      -0.494525       -13.4567 
  36   2.0000      -0.475979       -12.9520 
  37   2.0000      -0.468673       -12.7533 
  38   2.0000      -0.447715       -12.1829 
  39   2.0000      -0.442297       -12.0355 
  40   2.0000      -0.423324       -11.5192 
  41   2.0000      -0.421183       -11.4610 
  42   2.0000      -0.400034       -10.8855 
  43   2.0000      -0.398359       -10.8399 
  44   2.0000      -0.393960       -10.7202 
  45   2.0000      -0.375472       -10.2171 
  46   2.0000      -0.369108       -10.0439 
  47   2.0000      -0.359178        -9.7737 
  48   2.0000      -0.353508        -9.6194 
  49   2.0000      -0.343362        -9.3434 
  50   2.0000      -0.334345        -9.0980 
  51   2.0000      -0.330233        -8.9861 
  52   2.0000      -0.329797        -8.9742 
  53   2.0000      -0.325236        -8.8501 
  54   2.0000      -0.278555        -7.5799 
  55   2.0000      -0.277865        -7.5611 
  56   2.0000      -0.250068        -6.8047 
  57   0.0000      -0.047724        -1.2986 
  58   0.0000      -0.032234        -0.8771 
  59   0.0000       0.017253         0.4695 
  60   0.0000       0.018665         0.5079 
  61   0.0000       0.030530         0.8308 
  62   0.0000       0.035241         0.9589 
  63   0.0000       0.038767         1.0549 
  64   0.0000       0.048038         1.3072 
  65   0.0000       0.058788         1.5997 
  66   0.0000       0.059039         1.6065 
  67   0.0000       0.071249         1.9388 
*Only the first 10 virtual orbitals were printed.

                    ********************************
                    * MULLIKEN POPULATION ANALYSIS *
                    ********************************

-----------------------
MULLIKEN ATOMIC CHARGES
-----------------------
   0 C :    0.031805
   1 C :    0.024488
   2 C :    0.023075
   3 C :   -0.150219
   4 C :    0.011276
   5 C :    0.028556
   6 P :    0.222415
   7 C :   -0.172093
   8 C :    0.141688
   9 C :   -0.282268
  10 N :    0.053030
  11 C :   -0.172208
  12 C :    0.141656
  13 C :   -0.282268
  14 N :    0.053040
  15 H :   -0.007980
  16 H :   -0.009872
  17 H :   -0.015902
  18 H :   -0.014953
  19 H :   -0.010462
  20 H :    0.039732
  21 H :    0.054754
  22 H :    0.051553
  23 H :    0.047506
  24 H :    0.039787
  25 H :    0.054752
  26 H :    0.051600
  27 H :    0.047511
Sum of atomic charges:   -0.0000000

--------------------------------
MULLIKEN REDUCED ORBITAL CHARGES
--------------------------------
  0 C s       :     3.160599  s :     3.160599
      pz      :     0.948790  p :     2.772172
      px      :     0.872751
      py      :     0.950631
      dz2     :     0.010189  d :     0.035423
      dxz     :     0.011236
      dyz     :     0.006543
      dx2y2   :     0.003818
      dxy     :     0.003638

  1 C s       :     3.162144  s :     3.162144
      pz      :     0.913357  p :     2.778408
      px      :     0.896781
      py      :     0.968270
      dz2     :     0.008933  d :     0.034961
      dxz     :     0.012127
      dyz     :     0.005616
      dx2y2   :     0.004241
      dxy     :     0.004044

  2 C s       :     3.224912  s :     3.224912
      pz      :     0.838954  p :     2.716843
      px      :     0.921393
      py      :     0.956496
      dz2     :     0.009959  d :     0.035170
      dxz     :     0.009812
      dyz     :     0.003342
      dx2y2   :     0.005963
      dxy     :     0.006094

  3 C s       :     3.086631  s :     3.086631
      pz      :     0.993774  p :     3.026821
      px      :     1.010053
      py      :     1.022993
      dz2     :     0.010037  d :     0.036767
      dxz     :     0.011925
      dyz     :     0.006848
      dx2y2   :     0.004051
      dxy     :     0.003906

  4 C s       :     3.210840  s :     3.210840
      pz      :     0.905352  p :     2.742655
      px      :     0.878055
      py      :     0.959249
      dz2     :     0.008629  d :     0.035228
      dxz     :     0.012560
      dyz     :     0.005728
      dx2y2   :     0.004238
      dxy     :     0.004074

  5 C s       :     3.160738  s :     3.160738
      pz      :     0.840021  p :     2.775618
      px      :     0.961012
      py      :     0.974586
      dz2     :     0.009849  d :     0.035087
      dxz     :     0.010053
      dyz     :     0.003532
      dx2y2   :     0.005793
      dxy     :     0.005860

  6 P s       :     5.745608  s :     5.745608
      pz      :     3.341339  p :     8.857869
      px      :     2.753353
      py      :     2.763177
      dz2     :     0.015325  d :     0.174109
      dxz     :     0.034439
      dyz     :     0.039183
      dx2y2   :     0.041166
      dxy     :     0.043996

  7 C s       :     3.099384  s :     3.099384
      pz      :     1.033479  p :     3.042099
      px      :     1.043694
      py      :     0.964926
      dz2     :     0.009741  d :     0.030611
      dxz     :     0.002671
      dyz     :     0.005165
      dx2y2   :     0.006260
      dxy     :     0.006775

  8 C s       :     2.827897  s :     2.827897
      pz      :     1.030996  p :     2.992227
      px      :     1.021211
      py      :     0.940020
      dz2     :     0.009636  d :     0.038188
      dxz     :     0.004605
      dyz     :     0.006261
      dx2y2   :     0.007360
      dxy     :     0.010325

  9 C s       :     3.168286  s :     3.168286
      pz      :     1.001272  p :     3.068225
      px      :     1.061086
      py      :     1.005866
      dz2     :     0.009234  d :     0.045757
      dxz     :     0.008484
      dyz     :     0.006201
      dx2y2   :     0.013001
      dxy     :     0.008836

 10 N s       :     3.535119  s :     3.535119
      pz      :     1.096496  p :     3.380242
      px      :     1.166961
      py      :     1.116786
      dz2     :     0.005295  d :     0.031609
      dxz     :     0.006597
      dyz     :     0.004648
      dx2y2   :     0.007821
      dxy     :     0.007248

 11 C s       :     3.099418  s :     3.099418
      pz      :     1.034913  p :     3.042179
      px      :     1.021180
      py      :     0.986086
      dz2     :     0.009555  d :     0.030611
      dxz     :     0.002482
      dyz     :     0.005474
      dx2y2   :     0.006988
      dxy     :     0.006113

 12 C s       :     2.827900  s :     2.827900
      pz      :     1.029350  p :     2.992256
      px      :     1.029974
      py      :     0.932932
      dz2     :     0.009252  d :     0.038188
      dxz     :     0.003310
      dyz     :     0.008185
      dx2y2   :     0.010213
      dxy     :     0.007228

 13 C s       :     3.168285  s :     3.168285
      pz      :     1.009099  p :     3.068227
      px      :     0.968866
      py      :     1.090262
      dz2     :     0.010105  d :     0.045756
      dxz     :     0.004042
      dyz     :     0.010679
      dx2y2   :     0.009118
      dxy     :     0.011811

 14 N s       :     3.535118  s :     3.535118
      pz      :     1.106197  p :     3.380233
      px      :     1.057449
      py      :     1.216587
      dz2     :     0.005728  d :     0.031609
      dxz     :     0.002825
      dyz     :     0.008728
      dx2y2   :     0.006994
      dxy     :     0.007333

 15 H s       :     0.985042  s :     0.985042
      pz      :     0.004790  p :     0.022938
      px      :     0.012480
      py      :     0.005668

 16 H s       :     0.986868  s :     0.986868
      pz      :     0.008097  p :     0.023004
      px      :     0.009722
      py      :     0.005185

 17 H s       :     0.992783  s :     0.992783
      pz      :     0.014873  p :     0.023120
      px      :     0.003765
      py      :     0.004481

 18 H s       :     0.991764  s :     0.991764
      pz      :     0.008490  p :     0.023189
      px      :     0.009345
      py      :     0.005353

 19 H s       :     0.987456  s :     0.987456
      pz      :     0.014709  p :     0.023005
      px      :     0.003765
      py      :     0.004532

 20 H s       :     0.937431  s :     0.937431
      pz      :     0.014087  p :     0.022837
      px      :     0.004959
      py      :     0.003791

 21 H s       :     0.922262  s :     0.922262
      pz      :     0.005195  p :     0.022984
      px      :     0.012674
      py      :     0.005116

 22 H s       :     0.925178  s :     0.925178
      pz      :     0.005018  p :     0.023269
      px      :     0.012934
      py      :     0.005317

 23 H s       :     0.929563  s :     0.929563
      pz      :     0.014678  p :     0.022931
      px      :     0.004427
      py      :     0.003826

 24 H s       :     0.937377  s :     0.937377
      pz      :     0.013991  p :     0.022836
      px      :     0.004416
      py      :     0.004428

 25 H s       :     0.922262  s :     0.922262
      pz      :     0.005211  p :     0.022986
      px      :     0.012641
      py      :     0.005134

 26 H s       :     0.925130  s :     0.925130
      pz      :     0.005009  p :     0.023270
      px      :     0.013387
      py      :     0.004874

 27 H s       :     0.929559  s :     0.929559
      pz      :     0.014550  p :     0.022930
      px      :     0.004469
      py      :     0.003911



                     *******************************
                     * LOEWDIN POPULATION ANALYSIS *
                     *******************************

----------------------
LOEWDIN ATOMIC CHARGES
----------------------
   0 C :   -0.010187
   1 C :   -0.019807
   2 C :   -0.025439
   3 C :   -0.195432
   4 C :   -0.026649
   5 C :   -0.017783
   6 P :    0.477532
   7 C :   -0.161130
   8 C :   -0.050259
   9 C :   -0.035768
  10 N :   -0.075451
  11 C :   -0.161158
  12 C :   -0.050263
  13 C :   -0.035767
  14 N :   -0.075446
  15 H :    0.030654
  16 H :    0.030089
  17 H :    0.025232
  18 H :    0.022776
  19 H :    0.030273
  20 H :    0.021689
  21 H :    0.033525
  22 H :    0.053580
  23 H :    0.053191
  24 H :    0.021695
  25 H :    0.033524
  26 H :    0.053583
  27 H :    0.053197

-------------------------------
LOEWDIN REDUCED ORBITAL CHARGES
-------------------------------
  0 C s       :     2.860722  s :     2.860722
      pz      :     1.067265  p :     3.057909
      px      :     1.032995
      py      :     0.957648
      dz2     :     0.029002  d :     0.091556
      dxz     :     0.031106
      dyz     :     0.014833
      dx2y2   :     0.008729
      dxy     :     0.007887

  1 C s       :     2.860835  s :     2.860835
      pz      :     1.057586  p :     3.068322
      px      :     1.039459
      py      :     0.971277
      dz2     :     0.025483  d :     0.090650
      dxz     :     0.033068
      dyz     :     0.012618
      dx2y2   :     0.010172
      dxy     :     0.009309

  2 C s       :     2.867944  s :     2.867944
      pz      :     1.043109  p :     3.065602
      px      :     1.055719
      py      :     0.966774
      dz2     :     0.026835  d :     0.091892
      dxz     :     0.027630
      dyz     :     0.007271
      dx2y2   :     0.015299
      dxy     :     0.014858

  3 C s       :     2.911100  s :     2.911100
      pz      :     1.097788  p :     3.191125
      px      :     1.081510
      py      :     1.011826
      dz2     :     0.028253  d :     0.093208
      dxz     :     0.032835
      dyz     :     0.015454
      dx2y2   :     0.008657
      dxy     :     0.008009

  4 C s       :     2.863492  s :     2.863492
      pz      :     1.057934  p :     3.070766
      px      :     1.041661
      py      :     0.971171
      dz2     :     0.024738  d :     0.092391
      dxz     :     0.034972
      dyz     :     0.013223
      dx2y2   :     0.010122
      dxy     :     0.009336

  5 C s       :     2.860916  s :     2.860916
      pz      :     1.041154  p :     3.065964
      px      :     1.053028
      py      :     0.971782
      dz2     :     0.026144  d :     0.090904
      dxz     :     0.028360
      dyz     :     0.007522
      dx2y2   :     0.014694
      dxy     :     0.014184

  6 P s       :     5.282825  s :     5.282825
      pz      :     3.420174  p :     9.004417
      px      :     2.791229
      py      :     2.793014
      dz2     :     0.021581  d :     0.235225
      dxz     :     0.045167
      dyz     :     0.050769
      dx2y2   :     0.056790
      dxy     :     0.060918

  7 C s       :     2.892493  s :     2.892493
      pz      :     1.085859  p :     3.194113
      px      :     1.088973
      py      :     1.019281
      dz2     :     0.023845  d :     0.074524
      dxz     :     0.006620
      dyz     :     0.011985
      dx2y2   :     0.016218
      dxy     :     0.015857

  8 C s       :     2.826795  s :     2.826795
      pz      :     1.059614  p :     3.127964
      px      :     1.044163
      py      :     1.024188
      dz2     :     0.025063  d :     0.095500
      dxz     :     0.011252
      dyz     :     0.014352
      dx2y2   :     0.020248
      dxy     :     0.024583

  9 C s       :     2.923278  s :     2.923278
      pz      :     0.975634  p :     3.008057
      px      :     1.044344
      py      :     0.988080
      dz2     :     0.018335  d :     0.104433
      dxz     :     0.021102
      dyz     :     0.014940
      dx2y2   :     0.025955
      dxy     :     0.024101

 10 N s       :     3.427388  s :     3.427388
      pz      :     1.146523  p :     3.594603
      px      :     1.271074
      py      :     1.177006
      dz2     :     0.007762  d :     0.053461
      dxz     :     0.012116
      dyz     :     0.008146
      dx2y2   :     0.011297
      dxy     :     0.014140

 11 C s       :     2.892495  s :     2.892495
      pz      :     1.088406  p :     3.194141
      px      :     1.054622
      py      :     1.051113
      dz2     :     0.023523  d :     0.074522
      dxz     :     0.005556
      dyz     :     0.013220
      dx2y2   :     0.016366
      dxy     :     0.015857

 12 C s       :     2.826793  s :     2.826793
      pz      :     1.058013  p :     3.127971
      px      :     1.059853
      py      :     1.010105
      dz2     :     0.024310  d :     0.095499
      dxz     :     0.006729
      dyz     :     0.020305
      dx2y2   :     0.024235
      dxy     :     0.019922

 13 C s       :     2.923276  s :     2.923276
      pz      :     0.985216  p :     3.008059
      px      :     0.935154
      py      :     1.087689
      dz2     :     0.019719  d :     0.104432
      dxz     :     0.008591
      dyz     :     0.028541
      dx2y2   :     0.023303
      dxy     :     0.024278

 14 N s       :     3.427388  s :     3.427388
      pz      :     1.163575  p :     3.594598
      px      :     1.077875
      py      :     1.353148
      dz2     :     0.008192  d :     0.053461
      dxz     :     0.004250
      dyz     :     0.017055
      dx2y2   :     0.012857
      dxy     :     0.011106

 15 H s       :     0.901823  s :     0.901823
      pz      :     0.015045  p :     0.067524
      px      :     0.035570
      py      :     0.016909

 16 H s       :     0.902231  s :     0.902231
      pz      :     0.023815  p :     0.067680
      px      :     0.028201
      py      :     0.015664

 17 H s       :     0.906156  s :     0.906156
      pz      :     0.043032  p :     0.068612
      px      :     0.011841
      py      :     0.013739

 18 H s       :     0.908569  s :     0.908569
      pz      :     0.025190  p :     0.068656
      px      :     0.027546
      py      :     0.015920

 19 H s       :     0.901992  s :     0.901992
      pz      :     0.041682  p :     0.067735
      px      :     0.012134
      py      :     0.013919

 20 H s       :     0.907086  s :     0.907086
      pz      :     0.043715  p :     0.071226
      px      :     0.014586
      py      :     0.012925

 21 H s       :     0.896840  s :     0.896840
      pz      :     0.014052  p :     0.069635
      px      :     0.038826
      py      :     0.016756

 22 H s       :     0.879131  s :     0.879131
      pz      :     0.013609  p :     0.067290
      px      :     0.036671
      py      :     0.017009

 23 H s       :     0.879984  s :     0.879984
      pz      :     0.042464  p :     0.066825
      px      :     0.012216
      py      :     0.012145

 24 H s       :     0.907078  s :     0.907078
      pz      :     0.043556  p :     0.071227
      px      :     0.012623
      py      :     0.015049

 25 H s       :     0.896840  s :     0.896840
      pz      :     0.014176  p :     0.069635
      px      :     0.038216
      py      :     0.017242

 26 H s       :     0.879126  s :     0.879126
      pz      :     0.013568  p :     0.067290
      px      :     0.039520
      py      :     0.014202

 27 H s       :     0.879978  s :     0.879978
      pz      :     0.041983  p :     0.066825
      px      :     0.012745
      py      :     0.012097



                      *****************************
                      * MAYER POPULATION ANALYSIS *
                      *****************************

  NA   - Mulliken gross atomic population
  ZA   - Total nuclear charge
  QA   - Mulliken gross atomic charge
  VA   - Mayer's total valence
  BVA  - Mayer's bonded valence
  FA   - Mayer's free valence

  ATOM       NA         ZA         QA         VA         BVA        FA
  0 C      5.9682     6.0000     0.0318     3.8325     3.8325    -0.0000
  1 C      5.9755     6.0000     0.0245     3.8477     3.8477    -0.0000
  2 C      5.9769     6.0000     0.0231     3.8689     3.8689    -0.0000
  3 C      6.1502     6.0000    -0.1502     3.7278     3.7278    -0.0000
  4 C      5.9887     6.0000     0.0113     3.8649     3.8649    -0.0000
  5 C      5.9714     6.0000     0.0286     3.8638     3.8638    -0.0000
  6 P     14.7776    15.0000     0.2224     3.0196     3.0196    -0.0000
  7 C      6.1721     6.0000    -0.1721     3.9596     3.9596    -0.0000
  8 C      5.8583     6.0000     0.1417     4.0156     4.0156    -0.0000
  9 C      6.2823     6.0000    -0.2823     4.2832     4.2832    -0.0000
 10 N      6.9470     7.0000     0.0530     3.1533     3.1533    -0.0000
 11 C      6.1722     6.0000    -0.1722     3.9594     3.9594    -0.0000
 12 C      5.8583     6.0000     0.1417     4.0157     4.0157    -0.0000
 13 C      6.2823     6.0000    -0.2823     4.2832     4.2832    -0.0000
 14 N      6.9470     7.0000     0.0530     3.1533     3.1533    -0.0000
 15 H      1.0080     1.0000    -0.0080     0.9781     0.9781    -0.0000
 16 H      1.0099     1.0000    -0.0099     0.9782     0.9782    -0.0000
 17 H      1.0159     1.0000    -0.0159     0.9957     0.9957     0.0000
 18 H      1.0150     1.0000    -0.0150     0.9861     0.9861    -0.0000
 19 H      1.0105     1.0000    -0.0105     0.9781     0.9781    -0.0000
 20 H      0.9603     1.0000     0.0397     0.9870     0.9870    -0.0000
 21 H      0.9452     1.0000     0.0548     0.9779     0.9779    -0.0000
 22 H      0.9484     1.0000     0.0516     0.9975     0.9975    -0.0000
 23 H      0.9525     1.0000     0.0475     0.9949     0.9949    -0.0000
 24 H      0.9602     1.0000     0.0398     0.9870     0.9870    -0.0000
 25 H      0.9452     1.0000     0.0548     0.9779     0.9779    -0.0000
 26 H      0.9484     1.0000     0.0516     0.9974     0.9974    -0.0000
 27 H      0.9525     1.0000     0.0475     0.9949     0.9949    -0.0000

  Mayer bond orders larger than 0.100000
B(  0-C ,  1-C ) :   1.3883 B(  0-C ,  5-C ) :   1.3755 B(  0-C , 15-H ) :   0.9871 
B(  1-C ,  2-C ) :   1.3869 B(  1-C , 16-H ) :   0.9878 B(  2-C ,  3-C ) :   1.3769 
B(  2-C , 17-H ) :   0.9902 B(  3-C ,  4-C ) :   1.3349 B(  3-C ,  6-P ) :   0.9358 
B(  4-C ,  5-C ) :   1.4123 B(  4-C , 18-H ) :   0.9846 B(  5-C , 19-H ) :   0.9853 
B(  6-P ,  7-C ) :   0.9722 B(  6-P , 11-C ) :   0.9721 B(  7-C ,  8-C ) :   1.0567 
B(  7-C , 20-H ) :   0.9254 B(  7-C , 21-H ) :   0.9423 B(  8-C ,  9-C ) :   1.1245 
B(  8-C , 22-H ) :   0.8979 B(  8-C , 23-H ) :   0.9004 B(  9-C , 10-N ) :   3.0585 
B( 11-C , 12-C ) :   1.0566 B( 11-C , 24-H ) :   0.9254 B( 11-C , 25-H ) :   0.9423 
B( 12-C , 13-C ) :   1.1245 B( 12-C , 26-H ) :   0.8980 B( 12-C , 27-H ) :   0.9004 
B( 13-C , 14-N ) :   3.0585 

-------
TIMINGS
-------

Total SCF time: 0 days 0 hours 0 min 24 sec 

Total time                  ....      24.873 sec
Sum of individual times     ....      24.822 sec  ( 99.8%)

SCF preparation             ....       0.096 sec  (  0.4%)
Fock matrix formation       ....      24.087 sec  ( 96.8%)
  Startup                   ....       0.034 sec  (  0.1% of F)
  Exchange formation        ....      17.303 sec  ( 71.8% of F)
  Split-RI-J                ....       2.274 sec  (  9.4% of F)
  XC integration            ....       4.317 sec  ( 17.9% of F)
    Basis function eval.    ....       1.304 sec  ( 30.2% of XC)
    Density eval.           ....       1.130 sec  ( 26.2% of XC)
    XC-Functional eval.     ....       0.114 sec  (  2.6% of XC)
    XC-Potential eval.      ....       0.945 sec  ( 21.9% of XC)
Diagonalization             ....       0.000 sec  (  0.0%)
Density matrix formation    ....       0.090 sec  (  0.4%)
Total Energy calculation    ....       0.038 sec  (  0.2%)
Population analysis         ....       0.046 sec  (  0.2%)
Orbital Transformation      ....       0.055 sec  (  0.2%)
Orbital Orthonormalization  ....       0.000 sec  (  0.0%)
DIIS solution               ....       0.235 sec  (  0.9%)
SOSCF solution              ....       0.175 sec  (  0.7%)
Finished LeanSCF after  24.9 sec

Maximum memory used throughout the entire LEANSCF-calculation: 27.1 MB


-------------------------------------------------------------------------------
                          DFT DISPERSION CORRECTION                            
                                                                               
                              DFTD3 V3.1  Rev 1                                
                          USING Becke-Johnson damping                          
-------------------------------------------------------------------------------
The B3LYP functional is recognized
Active option DFTDOPT                   ...         4   

molecular C6(AA) [au] = 10464.712984 


            DFT-D V3
 parameters
 s6 scaling factor         :     1.0000 
 a1 scaling factor         :     0.3981 
 s8 scaling factor         :     1.9889 
 a2 scaling factor         :     4.4211 
 ad hoc parameters k1-k3   :    16.0000     1.3333    -4.0000 

 Edisp/kcal,au: -37.835431894902  -0.060294592230 
 E6   /kcal   : -17.345329517 
 E8   /kcal   : -20.490102378 
 % E8         :  54.155856962 

-------------------------   ----------------
Dispersion correction           -0.060294592
-------------------------   ----------------


-------------------------   --------------------
FINAL SINGLE POINT ENERGY      -915.058062865211
-------------------------   --------------------



           ************************************************************
           *        Program running with 6 parallel MPI-processes     *
           *              working on a common directory               *
           ************************************************************
------------------------------------------------------------------------------
                         ORCA SCF GRADIENT CALCULATION
------------------------------------------------------------------------------

Nuc. rep. gradient        (SHARK) ... done (  0.0 sec)
HCore & Overlap gradient  (SHARK) ... done (  0.2 sec)
Split-RIJ-J gradient      (SHARK) ... done (  0.6 sec)
O(N)X-gradient            (SHARK) ... done (  5.9 sec)
XC gradient                       ... done (  2.5 sec)
Dispersion correction             ... done (  0.1 sec)

-------------------
DISPERSION GRADIENT
-------------------

   1   C   :    0.000250278   -0.000094045   -0.000071013
   2   C   :    0.000495924   -0.000177692    0.000137170
   3   C   :    0.000277609   -0.000099615    0.000072098
   4   C   :    0.000664187   -0.000241050    0.000085214
   5   C   :    0.000672013   -0.000253738   -0.000229849
   6   C   :    0.000414387   -0.000165748   -0.000439746
   7   P   :   -0.000349317    0.000152476    0.000780127
   8   C   :   -0.000615650   -0.000197904    0.000107753
   9   C   :   -0.000446999   -0.000511080    0.000175840
  10   C   :   -0.000400315   -0.000571984   -0.000076952
  11   N   :   -0.000432216   -0.000480701   -0.000211516
  12   C   :   -0.000339615    0.000554395    0.000084316
  13   C   :   -0.000007203    0.000687530    0.000138498
  14   C   :    0.000062679    0.000689850   -0.000116265
  15   N   :   -0.000023355    0.000633599   -0.000246232
  16   H   :    0.000252309   -0.000095658   -0.000098894
  17   H   :    0.000226380   -0.000077600    0.000175356
  18   H   :    0.000197273   -0.000062139    0.000328824
  19   H   :    0.000109473   -0.000056058   -0.000510007
  20   H   :    0.000079566   -0.000038397   -0.000295380
  21   H   :   -0.000299806   -0.000038439   -0.000227789
  22   H   :   -0.000313922    0.000049459    0.000042473
  23   H   :   -0.000137906   -0.000476387    0.000078441
  24   H   :   -0.000127091   -0.000244911    0.000240650
  25   H   :   -0.000208466    0.000210500   -0.000235544
  26   H   :   -0.000270594    0.000167545    0.000038795
  27   H   :    0.000204221    0.000456038    0.000049392
  28   H   :    0.000066154    0.000281754    0.000224242

Difference to translation invariance:
           :   -0.0000000000   -0.0000000000    0.0000000000

Difference to rotation invariance:
           :   -0.0000000000   -0.0000000000   -0.0000000000

Norm of the Dispersion gradient    ...    0.0028980018
RMS gradient                       ...    0.0003161979
MAX gradient                       ...    0.0007801274

------------------
CARTESIAN GRADIENT
------------------

   1   C   :   -0.001434913    0.000495296   -0.000747711
   2   C   :    0.002057260   -0.000770641   -0.000605620
   3   C   :   -0.004105357    0.001491877    0.000015329
   4   C   :   -0.005155625    0.001981800    0.003519227
   5   C   :   -0.006443480    0.002460812    0.003941482
   6   C   :    0.004582917   -0.001669131    0.000102403
   7   P   :    0.006328312   -0.002872920   -0.019073597
   8   C   :   -0.000639425   -0.003618068    0.003298710
   9   C   :    0.005669403    0.000655168    0.004523704
[...]
      dx2y2   :     0.008444
      dxy     :     0.007829

  4 C s       :     2.865997  s :     2.865997
      pz      :     1.058016  p :     3.072432
      px      :     1.041086
      py      :     0.973331
      dz2     :     0.024818  d :     0.091645
      dxz     :     0.034310
      dyz     :     0.013098
      dx2y2   :     0.010120
      dxy     :     0.009299

  5 C s       :     2.863836  s :     2.863836
      pz      :     1.040032  p :     3.064784
      px      :     1.052719
      py      :     0.972034
      dz2     :     0.025706  d :     0.089999
      dxz     :     0.028076
      dyz     :     0.007403
      dx2y2   :     0.014650
      dxy     :     0.014164

  6 P s       :     5.317227  s :     5.317227
      pz      :     3.397351  p :     8.980746
      px      :     2.790815
      py      :     2.792581
      dz2     :     0.019564  d :     0.222232
      dxz     :     0.044113
      dyz     :     0.051282
      dx2y2   :     0.051799
      dxy     :     0.055475

  7 C s       :     2.900123  s :     2.900123
      pz      :     1.084357  p :     3.186987
      px      :     1.087656
      py      :     1.014975
      dz2     :     0.022790  d :     0.072250
      dxz     :     0.006856
      dyz     :     0.011427
      dx2y2   :     0.016789
      dxy     :     0.014388

  8 C s       :     2.830614  s :     2.830614
      pz      :     1.059614  p :     3.130457
      px      :     1.048859
      py      :     1.021984
      dz2     :     0.024502  d :     0.094571
      dxz     :     0.010536
      dyz     :     0.014778
      dx2y2   :     0.021193
      dxy     :     0.023563

  9 C s       :     2.921731  s :     2.921731
      pz      :     0.976379  p :     3.010488
      px      :     1.033472
      py      :     1.000637
      dz2     :     0.018636  d :     0.105284
      dxz     :     0.020057
      dyz     :     0.016479
      dx2y2   :     0.026362
      dxy     :     0.023751

 10 N s       :     3.426040  s :     3.426040
      pz      :     1.148306  p :     3.595560
      px      :     1.252185
      py      :     1.195069
      dz2     :     0.007836  d :     0.053636
      dxz     :     0.011447
      dyz     :     0.009017
      dx2y2   :     0.011123
      dxy     :     0.014212

 11 C s       :     2.900120  s :     2.900120
      pz      :     1.086535  p :     3.187019
      px      :     1.049888
      py      :     1.050596
      dz2     :     0.022369  d :     0.072244
      dxz     :     0.005813
      dyz     :     0.012791
      dx2y2   :     0.014682
      dxy     :     0.016588

 12 C s       :     2.830613  s :     2.830613
      pz      :     1.058256  p :     3.130429
      px      :     1.058666
      py      :     1.013507
      dz2     :     0.023648  d :     0.094570
      dxz     :     0.006616
      dyz     :     0.020291
      dx2y2   :     0.023377
      dxy     :     0.020638

 13 C s       :     2.921730  s :     2.921730
      pz      :     0.985490  p :     3.010505
      px      :     0.931207
      py      :     1.093808
      dz2     :     0.019991  d :     0.105282
      dxz     :     0.008238
      dyz     :     0.029315
      dx2y2   :     0.022871
      dxy     :     0.024867

 14 N s       :     3.426041  s :     3.426041
      pz      :     1.164651  p :     3.595551
      px      :     1.069821
      py      :     1.361079
      dz2     :     0.008253  d :     0.053636
      dxz     :     0.003993
      dyz     :     0.017454
      dx2y2   :     0.013060
      dxy     :     0.010876

 15 H s       :     0.901486  s :     0.901486
      pz      :     0.014892  p :     0.066681
      px      :     0.035110
      py      :     0.016679

 16 H s       :     0.901801  s :     0.901801
      pz      :     0.023266  p :     0.066770
      px      :     0.028133
      py      :     0.015371

 17 H s       :     0.906686  s :     0.906686
      pz      :     0.042507  p :     0.067738
      px      :     0.011686
      py      :     0.013546

 18 H s       :     0.908696  s :     0.908696
      pz      :     0.023883  p :     0.067640
      px      :     0.028038
      py      :     0.015719

 19 H s       :     0.901378  s :     0.901378
      pz      :     0.041584  p :     0.066841
      px      :     0.011675
      py      :     0.013583

 20 H s       :     0.906838  s :     0.906838
      pz      :     0.043425  p :     0.070015
      px      :     0.014004
      py      :     0.012586

 21 H s       :     0.898074  s :     0.898074
      pz      :     0.013959  p :     0.068883
      px      :     0.039089
      py      :     0.015836

 22 H s       :     0.877901  s :     0.877901
      pz      :     0.013566  p :     0.066636
      px      :     0.037752
      py      :     0.015319

 23 H s       :     0.879790  s :     0.879790
      pz      :     0.041859  p :     0.065876
      px      :     0.012100
      py      :     0.011916

 24 H s       :     0.906833  s :     0.906833
      pz      :     0.043131  p :     0.070012
      px      :     0.012154
      py      :     0.014727

 25 H s       :     0.898059  s :     0.898059
      pz      :     0.014099  p :     0.068883
      px      :     0.037003
      py      :     0.017781

 26 H s       :     0.877865  s :     0.877865
      pz      :     0.013586  p :     0.066637
      px      :     0.037930
      py      :     0.015121

 27 H s       :     0.879827  s :     0.879827
      pz      :     0.041306  p :     0.065875
      px      :     0.012488
      py      :     0.012080



                      *****************************
                      * MAYER POPULATION ANALYSIS *
                      *****************************

  NA   - Mulliken gross atomic population
  ZA   - Total nuclear charge
  QA   - Mulliken gross atomic charge
  VA   - Mayer's total valence
  BVA  - Mayer's bonded valence
  FA   - Mayer's free valence

  ATOM       NA         ZA         QA         VA         BVA        FA
  0 C      5.9726     6.0000     0.0274     3.8320     3.8320    -0.0000
  1 C      5.9762     6.0000     0.0238     3.8436     3.8436    -0.0000
  2 C      5.9769     6.0000     0.0231     3.8701     3.8701    -0.0000
  3 C      6.1737     6.0000    -0.1737     3.7514     3.7514    -0.0000
  4 C      5.9897     6.0000     0.0103     3.8696     3.8696    -0.0000
  5 C      5.9723     6.0000     0.0277     3.8619     3.8619    -0.0000
  6 P     14.7579    15.0000     0.2421     2.9990     2.9990    -0.0000
  7 C      6.1688     6.0000    -0.1688     3.9562     3.9562    -0.0000
  8 C      5.8840     6.0000     0.1160     4.0263     4.0263    -0.0000
  9 C      6.2782     6.0000    -0.2782     4.2869     4.2869    -0.0000
 10 N      6.9436     7.0000     0.0564     3.1526     3.1526    -0.0000
 11 C      6.1686     6.0000    -0.1686     3.9558     3.9558    -0.0000
 12 C      5.8840     6.0000     0.1160     4.0264     4.0264    -0.0000
 13 C      6.2784     6.0000    -0.2784     4.2871     4.2871    -0.0000
 14 N      6.9435     7.0000     0.0565     3.1526     3.1526    -0.0000
 15 H      1.0040     1.0000    -0.0040     0.9785     0.9785    -0.0000
 16 H      1.0061     1.0000    -0.0061     0.9787     0.9787     0.0000
 17 H      1.0132     1.0000    -0.0132     0.9946     0.9946     0.0000
 18 H      1.0131     1.0000    -0.0131     0.9866     0.9866     0.0000
 19 H      1.0067     1.0000    -0.0067     0.9785     0.9785     0.0000
 20 H      0.9570     1.0000     0.0430     0.9870     0.9870    -0.0000
 21 H      0.9433     1.0000     0.0567     0.9764     0.9764    -0.0000
 22 H      0.9437     1.0000     0.0563     0.9977     0.9977     0.0000
 23 H      0.9504     1.0000     0.0496     0.9924     0.9924    -0.0000
 24 H      0.9570     1.0000     0.0430     0.9870     0.9870    -0.0000
 25 H      0.9432     1.0000     0.0568     0.9764     0.9764    -0.0000
 26 H      0.9436     1.0000     0.0564     0.9977     0.9977    -0.0000
 27 H      0.9504     1.0000     0.0496     0.9925     0.9925    -0.0000

  Mayer bond orders larger than 0.100000
B(  0-C ,  1-C ) :   1.3923 B(  0-C ,  5-C ) :   1.3704 B(  0-C , 15-H ) :   0.9853 
B(  1-C ,  2-C ) :   1.3808 B(  1-C , 16-H ) :   0.9867 B(  2-C ,  3-C ) :   1.3893 
B(  2-C , 17-H ) :   0.9867 B(  3-C ,  4-C ) :   1.3394 B(  3-C ,  6-P ) :   0.9280 
B(  4-C ,  5-C ) :   1.4167 B(  4-C , 18-H ) :   0.9812 B(  5-C , 19-H ) :   0.9842 
B(  6-P ,  7-C ) :   0.9718 B(  6-P , 11-C ) :   0.9715 B(  7-C ,  8-C ) :   1.0562 
B(  7-C , 20-H ) :   0.9278 B(  7-C , 21-H ) :   0.9423 B(  8-C ,  9-C ) :   1.1342 
B(  8-C , 22-H ) :   0.8976 B(  8-C , 23-H ) :   0.8999 B(  9-C , 10-N ) :   3.0579 
B( 11-C , 12-C ) :   1.0562 B( 11-C , 24-H ) :   0.9279 B( 11-C , 25-H ) :   0.9424 
B( 12-C , 13-C ) :   1.1342 B( 12-C , 26-H ) :   0.8976 B( 12-C , 27-H ) :   0.8999 
B( 13-C , 14-N ) :   3.0579 

-------
TIMINGS
-------

Total SCF time: 0 days 0 hours 0 min 9 sec 

Total time                  ....       9.809 sec
Sum of individual times     ....       9.741 sec  ( 99.3%)

SCF preparation             ....       0.094 sec  (  1.0%)
Fock matrix formation       ....       9.372 sec  ( 95.5%)
  Startup                   ....       0.019 sec  (  0.2% of F)
  Exchange formation        ....       6.700 sec  ( 71.5% of F)
  Split-RI-J                ....       0.925 sec  (  9.9% of F)
  XC integration            ....       1.663 sec  ( 17.7% of F)
    Basis function eval.    ....       0.493 sec  ( 29.6% of XC)
    Density eval.           ....       0.426 sec  ( 25.6% of XC)
    XC-Functional eval.     ....       0.049 sec  (  2.9% of XC)
    XC-Potential eval.      ....       0.356 sec  ( 21.4% of XC)
Diagonalization             ....       0.000 sec  (  0.0%)
Density matrix formation    ....       0.033 sec  (  0.3%)
Total Energy calculation    ....       0.016 sec  (  0.2%)
Population analysis         ....       0.059 sec  (  0.6%)
Orbital Transformation      ....       0.022 sec  (  0.2%)
Orbital Orthonormalization  ....       0.000 sec  (  0.0%)
DIIS solution               ....       0.028 sec  (  0.3%)
SOSCF solution              ....       0.117 sec  (  1.2%)
Finished LeanSCF after   9.8 sec

Maximum memory used throughout the entire LEANSCF-calculation: 27.8 MB


-------------------------------------------------------------------------------
                          DFT DISPERSION CORRECTION                            
                                                                               
                              DFTD3 V3.1  Rev 1                                
                          USING Becke-Johnson damping                          
-------------------------------------------------------------------------------
The B3LYP functional is recognized
Active option DFTDOPT                   ...         4   

molecular C6(AA) [au] = 10473.803099 


            DFT-D V3
 parameters
 s6 scaling factor         :     1.0000 
 a1 scaling factor         :     0.3981 
 s8 scaling factor         :     1.9889 
 a2 scaling factor         :     4.4211 
 ad hoc parameters k1-k3   :    16.0000     1.3333    -4.0000 

 Edisp/kcal,au: -37.975216933678  -0.060517353845 
 E6   /kcal   : -17.417409033 
 E8   /kcal   : -20.557807901 
 % E8         :  54.134800432 

-------------------------   ----------------
Dispersion correction           -0.060517354
-------------------------   ----------------


-------------------------   --------------------
FINAL SINGLE POINT ENERGY      -915.060166307629
-------------------------   --------------------

                                *** OPTIMIZATION RUN DONE ***



           ************************************************************
           *        Program running with 6 parallel MPI-processes     *
           *              working on a common directory               *
           ************************************************************

------------------------------------------------------------------------------
                              ORCA PROPERTY CALCULATIONS
------------------------------------------------------------------------------

GBWName                                 ... data/geom_opt/342156/342156.gbw
Number of atoms                         ...     28
Number of basis functions               ...    279
Max core memory                         ...   1024 MB

Electric properties:
Dipole moment                           ... YES
Quadrupole moment                       ...  NO
Static polarizability (Dipole/Dipole)   ...  NO
Static polarizability (Dipole/Quad.)    ...  NO
Static polarizability (Quad./Quad.)     ...  NO
Static polarizability (Velocity)        ...  NO

Atomic electric properties:
Dipole moment                           ...  NO
Quadrupole moment                       ...  NO
Static polarizability                   ...  NO

Choice of electric origin               ... Center of mass
Position of electric origin             ...    -0.369019     0.138386     0.086649

General magnetic properties:
Magnetizability                         ...  NO

EPR properties:
g-Tensor (aka g-matrix)                 ...  NO
Zero-Field splitting spin-orbit         ...  NO
Zero-field splitting spin-spin          ...  NO
Hyperfine couplings                     ...  NO (   0 nuclei)
Quadrupole couplings                    ...  NO (   0 nuclei)
Contact density                         ...  NO (   0 nuclei)

NMR properties:
Chemical shifts                         ...  NO (   0 nuclei)
Spin-rotation constants                 ...  NO (   0 nuclei)
Spin-spin couplings                     ...  NO (   0 nuclei,    0 pairs)

Choice of magnetic origin               ... GIAO
Position of magnetic origin             ...     0.000000     0.000000     0.000000

Properties with geometric perturbations:
SCF Hessian                             ...  NO
IR spectrum                             ...  NO
VCD spectrum                            ...  NO
X-ray spectroscopy properties:
SCF XES/XAS/RIXS spectra                ...  NO


-------------
DIPOLE MOMENT
-------------

Method             : SCF
Type of density    : Electron Density
Multiplicity       :   1
Irrep              :   0
Energy             :  -914.9996489537837761 Eh
Relativity type    : 
Basis              : AO
                                X                 Y                 Z
Electronic contribution:     -2.994331568       1.153081787       1.645791421
Nuclear contribution   :      4.462894875      -1.668183458      -0.853863339
                        -----------------------------------------
Total Dipole Moment    :      1.468563308      -0.515101671       0.791928082
                        -----------------------------------------
Magnitude (a.u.)       :      1.746183841
Magnitude (Debye)      :      4.438446595



--------------------
Rotational spectrum 
--------------------
 
Rotational constants in cm-1:             0.018104             0.011814             0.008231 
Rotational constants in MHz :           542.733667           354.179092           246.745373 

Dipole components along the rotational axes: 
x,y,z [a.u.] :    -0.002861     1.519920     0.859647 
x,y,z [Debye]:    -0.007272     3.863330     2.185048 

 

Dipole moment calculation done in   0.0 sec 

Maximum memory used throughout the entire PROP-calculation: 13.5 MB

--------------------------------
SUGGESTED CITATIONS FOR THIS RUN
--------------------------------

Below you find a list of papers that are relevant to this ORCA run
We neither can nor want to force you to cite these papers, but we appreciate if you do
You receive ORCA, which is the product of decades of hard work by many enthusiastic individuals, for free
The only thing we kindly ask in return is that you cite our papers,
We deeply appreciate it, if you show your appreciation for ORCA by not just citing the generic ORCA reference.

Please note that relegating all ORCA citations to the supporting information does *not* help us.
SI sections are not indexed - citations you put there will not count into any citation statistics
But we need these citations in order to attract the funding resources that allow us to do what we are doing

Therefore, if you are a happy ORCA user, please consider citing a few of the papers listed below in the main body of your paper

In addition to the list printed below, the program has created the file data/geom_opt/342156/342156.bibtex that contains the list in bibtex format
You can import this file easily into all common literature databanks and citation aid programs


List of essential papers. We consider these as the minimum necessary citations

  1. Neese,F.
     Software update: the ORCA program system, version 5.0
     WIRES Comput. Molec. Sci., 2022 12(1)e1606
     doi.org/10.1002/wcms.1606

List of papers to cite with high priority. The work reported in these papers was absolutely
necessary for this run to complete.
Our perspective: the developers of density functionals and basis sets usually get cited in chemistry papers
Good! But without the algorithms to do something with them, the functionals or basis sets would not do anything.
Hence, in our opinion, the algorithm design and method developments papers are equally worthy of getting cited

  1. Neese,F.
     An improvement of the resolution of the identity approximation for the formation of the Coulomb matrix
     J. Comp. Chem., 2003 24(14)1740-1747
     doi.org/10.1002/jcc.10318
  2. Neese,F.
     The SHARK Integral Generation and Digestion System
     J. Comp. Chem., 2022  1-16
     doi.org/10.1002/jcc.26942
  3. Grimme,S.; Antony,J.; Ehrlich,S.; Krieg,H.
     A consistent and accurate ab initio parametrization of density functional dispersion correction (DFT-D) for the 94 elements H-Pu
     J. Chem. Phys., 2010 132 154104-XXXX
     doi.org/10.1063/1.3382344
  4. Grimme,S.; Ehrlich,S.; Goerigk,L.
     Effect of the damping function in dispersion corrected density functional theory
     J. Comput. Chem., 2011 32(7)1456-1465
     doi.org/10.1002/jcc.21759

List of suggested additional citations. These are papers that are important in the 'surrounding' of 
of this run, or papers that preceded the highly important papers. If you like your results we are grateful for a citation.

  1. Neese,F.
     The ORCA program system
     WIRES Comput. Molec. Sci., 2012 2(1)73-78
     doi.org/10.1002/wcms.81
  2. Neese,F.
     Software update: the ORCA program system, version 4.0
     WIRES Comput. Molec. Sci., 2018 8(1)1-6
     doi.org/10.1002/wcms.1327
  3. Neese,F.; Wennmohs,F.; Becker,U.; Riplinger,C.
     The ORCA quantum chemistry program package
     J. Chem. Phys., 2020 152 Art. No. L224108
     doi.org/10.1063/5.0004608

List of optional additional citations

  1. Neese,F.
     Approximate second-order SCF convergence for spin unrestricted wavefunctions
     Chem. Phys. Lett., 2000 325(1-3)93-98
     doi.org/10.1016/s0009-2614(00)00662-x

Timings for individual modules:

Sum of individual times          ...      169.276 sec (=   2.821 min)
Startup calculation              ...        6.844 sec (=   0.114 min)   4.0 %
SCF iterations                   ...      105.707 sec (=   1.762 min)  62.4 %
Property calculations            ...        0.152 sec (=   0.003 min)   0.1 %
SCF Gradient evaluation          ...       56.508 sec (=   0.942 min)  33.4 %
Geometry relaxation              ...        0.065 sec (=   0.001 min)   0.0 %
                             ****ORCA TERMINATED NORMALLY****
TOTAL RUN TIME: 0 days 0 hours 2 minutes 50 seconds 550 msec
