
                                 *****************
                                 * O   R   C   A *
                                 *****************

                                            #,                                       
                                            ###                                      
                                            ####                                     
                                            #####                                    
                                            ######                                   
                                           ########,                                 
                                     ,,################,,,,,                         
                               ,,#################################,,                 
                          ,,##########################################,,             
                       ,#########################################, ''#####,          
                    ,#############################################,,   '####,        
                  ,##################################################,,,,####,       
                ,###########''''           ''''###############################       
              ,#####''   ,,,,##########,,,,          '''####'''          '####       
            ,##' ,,,,###########################,,,                        '##       
           ' ,,###''''                  '''############,,,                           
         ,,##''                                '''############,,,,        ,,,,,,###''
      ,#''                                            '''#######################'''  
     '                                                          ''''####''''         
             ,#######,   #######,   ,#######,      ##                                
            ,#'     '#,  ##    ##  ,#'     '#,    #''#        ,####,   ,####,        
            ##       ##  ##   ,#'  ##            #'  '#       #'       #'  '#        
            ##       ##  #######   ##           ,######,      #####,   #    #        
            '#,     ,#'  ##    ##  '#,     ,#' ,#      #,     #,   #   #,  ,#        
             '#######'   ##     ##  '#######'  #'      '#     '####' # '####'        



                #########################################################
                #                        -***-                          #
                #          Department of theory and spectroscopy        #
                #                                                       #
                #                      Frank Neese                      #
                #                                                       #
                #     Directorship, Architecture, Infrastructure        #
                #                    SHARK, DRIVERS                     #
                #        Core code/Algorithms in most modules           #
                #                                                       #
                #        Max Planck Institute fuer Kohlenforschung      #
                #                Kaiser Wilhelm Platz 1                 #
                #                 D-45470 Muelheim/Ruhr                 #
                #                      Germany                          #
                #                                                       #
                #                  All rights reserved                  #
                #                        -***-                          #
                #########################################################


                         Program Version 6.0.0  -   RELEASE   -


 With contributions from (in alphabetic order):
   Daniel Aravena         : Magnetic Suceptibility
   Michael Atanasov       : Ab Initio Ligand Field Theory (pilot matlab implementation)
   Alexander A. Auer      : GIAO ZORA, VPT2 properties, NMR spectrum
   Ute Becker             : All parallelization in ORCA, NUMFREQ, NUMCALC
   Giovanni Bistoni       : ED, misc. LED, open-shell LED, HFLD
   Martin Brehm           : Molecular dynamics
   Dmytro Bykov           : pre 5.0 version of the SCF Hessian
   Marcos Casanova-Páez   : Triplet and SCS-CIS(D). UHF-(DLPNO)-IP/EA/STEOM-CCSD. UHF-CVS-IP/STEOM-CCSD
   Vijay G. Chilkuri      : MRCI spin determinant printing, contributions to CSF-ICE
   Pauline Colinet        : FMM embedding
   Dipayan Datta          : RHF DLPNO-CCSD density
   Achintya Kumar Dutta   : EOM-CC, STEOM-CC
   Nicolas Foglia         : Exact transition moments, OPA infrastructure, MCD improvements
   Dmitry Ganyushin       : Spin-Orbit,Spin-Spin,Magnetic field MRCI
   Miquel Garcia          : C-PCM and meta-GGA Hessian, CCSD/C-PCM, Gaussian charge scheme
   Tiago L. C. Gouveia    : GS-ROHF, GS-ROCIS
   Yang Guo               : DLPNO-NEVPT2, F12-NEVPT2, CIM, IAO-localization
   Andreas Hansen         : Spin unrestricted coupled pair/coupled cluster methods
   Ingolf Harden          : AUTO-CI MPn and infrastructure 
   Benjamin Helmich-Paris : MC-RPA, TRAH-(SCF,CASSCF), AVAS, COSX integrals, SCF dyn. polar.
   Lee Huntington         : MR-EOM, pCC
   Robert Izsak           : Overlap fitted RIJCOSX, COSX-SCS-MP3, EOM
   Riya Kayal             : Wick's Theorem for AUTO-CI, AUTO-CI UHF-CCSDT
   Emily Kempfer          : AUTO-CI, RHF CISDT and CCSDT
   Christian Kollmar      : KDIIS, OOCD, Brueckner-CCSD(T), CCSD density, CASPT2, CASPT2-K, improved NEVPT2
   Axel Koslowski         : Symmetry handling
   Simone Kossmann        : Meta GGA functionals, TD-DFT gradient, OOMP2, (MP2 Hessian; deprecated post 5.0)
   Lucas Lang             : DCDCAS
   Marvin Lechner         : AUTO-CI (C++ implementation), FIC-MRCC
   Spencer Leger          : CASSCF response
   Dagmar Lenk            : GEPOL surface, SMD, ORCA-2-JSON
   Dimitrios Liakos       : Extrapolation schemes; Compound Job, initial MDCI parallelization
   Dimitrios Manganas     : Further ROCIS development; embedding schemes. LFT, Crystal Embedding
   Dimitrios Pantazis     : SARC Basis sets
   Anastasios Papadopoulos: AUTO-CI, single reference methods and gradients
   Taras Petrenko         : pre 6.0 DFT Hessian and TD-DFT gradient, (ASA, deprecated), ECA, 1-Electron XAS/XES, NRVS
   Peter Pinski           : DLPNO-MP2, DLPNO-MP2 Gradient
   Christoph Reimann      : Effective Core Potentials
   Marius Retegan         : Local ZFS, SOC
   Christoph Riplinger    : Optimizer, TS searches, QM/MM, DLPNO-CCSD(T), (RO)-DLPNO pert. Triples
   Michael Roemelt        : Original ROCIS implementation
   Masaaki Saitow         : Open-shell DLPNO-CCSD energy and density
   Barbara Sandhoefer     : DKH picture change effects
   Kantharuban Sivalingam : CASSCF convergence/infrastructure, NEVPT2 and variants, FIC-MRCI
   Bernardo de Souza      : ESD, SOC TD-DFT
   Georgi Stoychev        : AutoAux, RI-MP2 NMR, DLPNO-MP2 response, X2C
   Van Anh Tran           : RI-MP2 g-tensors
   Willem Van den Heuvel  : Paramagnetic NMR
   Zikuan Wang            : NOTCH, Electric field optimization 
   Frank Wennmohs         : Technical directorship and infrastructure
   Hang Xu                : AUTO-CI-Response properties 


 We gratefully acknowledge several colleagues who have allowed us to
 interface, adapt or use parts of their codes:
   Stefan Grimme, W. Hujo, H. Kruse, P. Pracht,  : VdW corrections, initial TS optimization,
                  C. Bannwarth, S. Ehlert,         DFT functionals, gCP, sTDA/sTD-DF
                  L. Wittmann, M. Mueller
   Ed Valeev, F. Pavosevic, A. Kumar             : LibInt (2-el integral package), F12 methods
   Garnet Chan, S. Sharma, J. Yang, R. Olivares  : DMRG
   Ulf Ekstrom                                   : XCFun DFT Library
   Mihaly Kallay                                 : mrcc  (arbitrary order and MRCC methods)
   Frank Weinhold                                : gennbo (NPA and NBO analysis)
   Simon Mueller                                 : openCOSMO-RS
   Christopher J. Cramer and Donald G. Truhlar   : smd solvation model
   Lars Goerigk                                  : TD-DFT with DH, B97 family of functionals
   V. Asgeirsson, H. Jonsson                     : NEB implementation
   FAccTs GmbH                                   : IRC, NEB, NEB-TS, DLPNO-Multilevel, CI-OPT
                                                   MM, QMMM, 2- and 3-layer-ONIOM, Crystal-QMMM,
                                                   LR-CPCM, SF, NACMEs, symmetry and pop. for TD-DFT,
                                                   nearIR, NL-DFT gradient (VV10), updates on ESD,
                                                   ML-optimized integration grids, MBIS, APM,
                                                   GOAT, DOCKER, SOLVATOR, interface openCOSMO-RS
   S Lehtola, MJT Oliveira, MAL Marques          : LibXC Library
   Liviu Ungur et al                             : ANISO software


 Your calculation uses the libint2 library for the computation of 2-el integrals
 For citations please refer to: http://libint.valeyev.net

 Your ORCA version has been built with support for libXC version: 6.2.2
 For citations please refer to: https://libxc.gitlab.io

 This ORCA versions uses:
   CBLAS   interface :  Fast vector & matrix operations
   LAPACKE interface :  Fast linear algebra routines
   Shared memory     :  Shared parallel matrices


Your calculation utilizes the atom-pairwise dispersion correction
with the Becke-Johnson damping scheme (D3BJ)


Warning: RI is on but no J-basis has been assigned. Assigning Def2/J (nothing to worry about!)
================================================================================

----- Orbital basis set information -----
Your calculation utilizes the basis: def2-SVP
   F. Weigend and R. Ahlrichs, Phys. Chem. Chem. Phys. 7, 3297 (2005).

----- AuxJ basis set information -----
Your calculation utilizes the auxiliary basis: def2/J
   F. Weigend, Phys. Chem. Chem. Phys. 8, 1057 (2006).

================================================================================
                                        WARNINGS
                       Please study these warnings very carefully!
================================================================================


WARNING: Geometry Optimization
  ===> : Switching off AutoStart
         For restart on a previous wavefunction, please use MOREAD

================================================================================
                                       INPUT FILE
================================================================================
NAME = data/geom_opt_PO_BP86/140387/140387.inp
|  1> ! RI BP86 def2-SVP D3BJ TIGHTSCF Opt
|  2> %pal
|  3> nprocs 6
|  4> end
|  5> 
|  6> * xyz 0 1
|  7> C      2.960850   -1.668344    1.288445
|  8> C      1.698576   -1.284870    0.829878
|  9> C      1.556229   -0.663314   -0.421458
| 10> C      2.704347   -0.440070   -1.202472
| 11> C      3.964287   -0.823780   -0.742208
| 12> C      4.080819   -1.433826    0.499721
| 13> F      5.289052   -1.802259    0.944335
| 14> P     -0.043319   -0.130558   -1.068273
| 15> O     -0.104407   -0.314691   -2.574871
| 16> C     -1.329912   -1.098963   -0.251194
| 17> C     -1.672510   -2.351487   -0.791382
| 18> C     -2.652584   -3.142057   -0.190565
| 19> C     -3.295115   -2.682492    0.951398
| 20> C     -2.976631   -1.446896    1.502109
| 21> C     -1.995677   -0.653860    0.902529
| 22> F     -4.235518   -3.439698    1.530653
| 23> C     -0.278905    1.603798   -0.624131
| 24> C     -1.168994    2.378011   -1.389851
| 25> C     -1.393278    3.719799   -1.080290
| 26> C     -0.727073    4.293026   -0.005253
| 27> C      0.159879    3.549704    0.764295
| 28> C      0.385805    2.206255    0.456444
| 29> F     -0.941221    5.580443    0.294667
| 30> H      3.078342   -2.151683    2.253629
| 31> H      0.833997   -1.480023    1.459151
| 32> H      2.609325    0.030549   -2.180700
| 33> H      4.850959   -0.654657   -1.345165
| 34> H     -1.173374   -2.705988   -1.692845
| 35> H     -2.920023   -4.107745   -0.608019
| 36> H     -3.497371   -1.108263    2.392706
| 37> H     -1.762966    0.311116    1.345512
| 38> H     -1.683708    1.928428   -2.238606
| 39> H     -2.077850    4.319311   -1.672147
| 40> H      0.672089    4.022935    1.596578
| 41> H      1.085880    1.642150    1.067381
| 42> **                         ****END OF INPUT****
================================================================================

                       *****************************
                       * Geometry Optimization Run *
                       *****************************

Geometry optimization settings:
Update method            Update   .... BFGS
Choice of coordinates    CoordSys .... (2022) Redundant Internals
Initial Hessian          InHess   .... Almloef's Model
Max. no of cycles        MaxIter  .... 105

Convergence Tolerances:
Energy Change            TolE     ....  5.0000e-06 Eh
Max. Gradient            TolMAXG  ....  3.0000e-04 Eh/bohr
RMS Gradient             TolRMSG  ....  1.0000e-04 Eh/bohr
Max. Displacement        TolMAXD  ....  4.0000e-03 bohr
RMS Displacement         TolRMSD  ....  2.0000e-03 bohr
Strict Convergence                .... False

------------------------------------------------------------------------------
                        ORCA OPTIMIZATION COORDINATE SETUP
------------------------------------------------------------------------------

The optimization will be done in redundant internal coordinates (2022)
Making redundant internal coordinates   ...  (2022 redundants) done
Evaluating the initial hessian          ...  (Almloef) done
Evaluating the coordinates              ...  done
Calculating the B-matrix                .... done
Calculating the G-matrix                .... done
Diagonalizing the G-matrix              .... done
Small eigenvalue found = 5.731e-03
Small eigenvalue found = 6.034e-03
Small eigenvalue found = 9.572e-03
Small eigenvalue found = 2.556e-02
Small eigenvalue found = 2.678e-02
The first mode is                       ....   85
The number of degrees of freedom        ....   99

    -----------------------------------------------------------------
                    Redundant Internal Coordinates


    -----------------------------------------------------------------
         Definition                    Initial Value    Approx d2E/dq
    -----------------------------------------------------------------
      1. B(C   1,C   0)                  1.3967         0.609685   
      2. B(C   2,C   1)                  1.4044         0.592528   
      3. B(C   3,C   2)                  1.4064         0.588239   
      4. B(C   4,C   3)                  1.3952         0.613021   
      5. B(C   5,C   4)                  1.3886         0.628090   
      6. B(C   5,C   0)                  1.3898         0.625362   
      7. B(F   6,C   5)                  1.3391         0.626812   
      8. B(P   7,C   2)                  1.8058         0.455954   
      9. B(O   8,P   7)                  1.5190         1.170843   
     10. B(C   9,P   7)                  1.8058         0.455956   
     11. B(C  10,C   9)                  1.4064         0.588241   
     12. B(C  11,C  10)                  1.3952         0.613020   
     13. B(C  12,C  11)                  1.3886         0.628088   
     14. B(C  13,C  12)                  1.3898         0.625365   
     15. B(C  14,C   9)                  1.4044         0.592528   
     16. B(C  14,C  13)                  1.3967         0.609684   
     17. B(F  15,C  12)                  1.3391         0.626809   
     18. B(C  16,P   7)                  1.8058         0.455954   
     19. B(C  17,C  16)                  1.4064         0.588242   
     20. B(C  18,C  17)                  1.3952         0.613020   
     21. B(C  19,C  18)                  1.3886         0.628090   
     22. B(C  20,C  19)                  1.3898         0.625362   
     23. B(C  21,C  20)                  1.3967         0.609687   
     24. B(C  21,C  16)                  1.4044         0.592529   
     25. B(F  22,C  19)                  1.3391         0.626810   
     26. B(H  23,C   0)                  1.0858         0.365675   
     27. B(H  24,C   1)                  1.0870         0.364092   
     28. B(H  25,C   3)                  1.0897         0.360500   
     29. B(H  26,C   4)                  1.0855         0.366080   
     30. B(H  27,C  10)                  1.0897         0.360499   
     31. B(H  28,C  11)                  1.0855         0.366081   
     32. B(H  29,C  13)                  1.0858         0.365672   
     33. B(H  30,C  14)                  1.0870         0.364092   
     34. B(H  31,C  17)                  1.0897         0.360501   
     35. B(H  32,C  18)                  1.0855         0.366079   
     36. B(H  33,C  20)                  1.0858         0.365674   
     37. B(H  34,C  21)                  1.0870         0.364094   
     38. A(C   1,C   0,H  23)          120.7882         0.352824   
     39. A(C   1,C   0,C   5)          119.7135         0.433429   
     40. A(C   5,C   0,H  23)          119.4979         0.354345   
     41. A(C   2,C   1,H  24)          120.9735         0.350868   
     42. A(C   0,C   1,H  24)          118.6515         0.352566   
     43. A(C   0,C   1,C   2)          120.3748         0.429250   
     44. A(C   3,C   2,P   7)          118.5142         0.434095   
     45. A(C   1,C   2,P   7)          122.6497         0.434663   
     46. A(C   1,C   2,C   3)          118.8355         0.426503   
     47. A(C   4,C   3,H  25)          119.5824         0.352300   
     48. A(C   2,C   3,H  25)          119.7281         0.349852   
     49. A(C   2,C   3,C   4)          120.6878         0.429111   
     50. A(C   3,C   4,H  26)          120.7672         0.353217   
     51. A(C   3,C   4,C   5)          119.4506         0.434194   
     52. A(C   5,C   4,H  26)          119.7816         0.354673   
     53. A(C   0,C   5,C   4)          120.9373         0.435755   
     54. A(C   0,C   5,F   6)          119.4885         0.430824   
     55. A(C   4,C   5,F   6)          119.5741         0.431161   
     56. A(C   2,P   7,C  16)          108.1093         0.442438   
     57. A(O   8,P   7,C  16)          110.8009         0.523576   
     58. A(C   9,P   7,C  16)          108.1096         0.442438   
     59. A(C   2,P   7,C   9)          108.1094         0.442438   
     60. A(C   2,P   7,O   8)          110.8010         0.523576   
     61. A(O   8,P   7,C   9)          110.8008         0.523576   
     62. A(C  10,C   9,C  14)          118.8356         0.426504   
     63. A(P   7,C   9,C  14)          122.6497         0.434663   
     64. A(P   7,C   9,C  10)          118.5141         0.434096   
     65. A(C   9,C  10,C  11)          120.6878         0.429111   
     66. A(C   9,C  10,H  27)          119.7282         0.349852   
     67. A(C  11,C  10,H  27)          119.5824         0.352299   
     68. A(C  10,C  11,H  28)          120.7673         0.353217   
     69. A(C  12,C  11,H  28)          119.7816         0.354673   
     70. A(C  10,C  11,C  12)          119.4506         0.434194   
     71. A(C  13,C  12,F  15)          119.4885         0.430824   
     72. A(C  11,C  12,F  15)          119.5742         0.431160   
     73. A(C  11,C  12,C  13)          120.9373         0.435755   
     74. A(C  14,C  13,H  29)          120.7882         0.352824   
     75. A(C  12,C  13,H  29)          119.4978         0.354345   
     76. A(C  12,C  13,C  14)          119.7136         0.433429   
     77. A(C  13,C  14,H  30)          118.6515         0.352565   
     78. A(C   9,C  14,H  30)          120.9735         0.350868   
     79. A(C   9,C  14,C  13)          120.3747         0.429250   
     80. A(P   7,C  16,C  21)          122.6496         0.434663   
     81. A(C  17,C  16,C  21)          118.8355         0.426504   
     82. A(P   7,C  16,C  17)          118.5143         0.434095   
     83. A(C  16,C  17,C  18)          120.6878         0.429111   
     84. A(C  18,C  17,H  31)          119.5824         0.352300   
     85. A(C  16,C  17,H  31)          119.7282         0.349852   
     86. A(C  17,C  18,C  19)          119.4506         0.434194   
     87. A(C  19,C  18,H  32)          119.7816         0.354673   
     88. A(C  17,C  18,H  32)          120.7672         0.353216   
     89. A(C  18,C  19,C  20)          120.9373         0.435755   
     90. A(C  20,C  19,F  22)          119.4885         0.430823   
     91. A(C  18,C  19,F  22)          119.5742         0.431160   
     92. A(C  21,C  20,H  33)          120.7883         0.352825   
     93. A(C  19,C  20,H  33)          119.4977         0.354345   
     94. A(C  19,C  20,C  21)          119.7136         0.433429   
     95. A(C  20,C  21,H  34)          118.6515         0.352566   
     96. A(C  16,C  21,H  34)          120.9735         0.350869   
     97. A(C  16,C  21,C  20)          120.3747         0.429250   
     98. D(H  24,C   1,C   0,C   5)    179.7686         0.025671   
     99. D(C   2,C   1,C   0,H  23)   -179.8390         0.025671   
    100. D(C   2,C   1,C   0,C   5)     -0.0683         0.025671   
    101. D(H  24,C   1,C   0,H  23)     -0.0022         0.025671   
    102. D(P   7,C   2,C   1,C   0)   -179.4896         0.024172   
    103. D(C   3,C   2,C   1,C   0)      0.2307         0.024172   
    104. D(C   3,C   2,C   1,H  24)   -179.6024         0.024172   
    105. D(P   7,C   2,C   1,H  24)      0.6774         0.024172   
    106. D(H  25,C   3,C   2,P   7)     -0.9785         0.023805   
    107. D(H  25,C   3,C   2,C   1)    179.2896         0.023805   
    108. D(C   4,C   3,C   2,P   7)    179.4887         0.023805   
    109. D(C   4,C   3,C   2,C   1)     -0.2432         0.023805   
    110. D(H  26,C   4,C   3,C   2)    179.8246         0.025969   
    111. D(C   5,C   4,C   3,H  25)   -179.4414         0.025969   
    112. D(C   5,C   4,C   3,C   2)      0.0921         0.025969   
    113. D(H  26,C   4,C   3,H  25)      0.2911         0.025969   
    114. D(F   6,C   5,C   4,H  26)      0.3125         0.027342   
    115. D(C   0,C   5,C   4,H  26)   -179.6592         0.027342   
    116. D(C   0,C   5,C   4,C   3)      0.0759         0.027342   
    117. D(F   6,C   5,C   0,H  23)     -0.2859         0.027090   
    118. D(C   4,C   5,C   0,C   1)     -0.0878         0.027090   
    119. D(F   6,C   5,C   4,C   3)   -179.9523         0.027342   
    120. D(C   4,C   5,C   0,H  23)    179.6859         0.027090   
    121. D(F   6,C   5,C   0,C   1)    179.9404         0.027090   
    122. D(C  16,P   7,C   2,C   1)     93.6861         0.004337   
    123. D(C   9,P   7,C   2,C   3)    157.1553         0.004337   
    124. D(C   9,P   7,C   2,C   1)    -23.1235         0.004337   
    125. D(O   8,P   7,C   2,C   3)     35.5602         0.004337   
    126. D(O   8,P   7,C   2,C   1)   -144.7187         0.004337   
    127. D(C  10,C   9,P   7,O   8)     35.5619         0.004337   
    128. D(C  10,C   9,P   7,C   2)    -86.0333         0.004337   
    129. D(C  14,C   9,P   7,O   8)   -144.7174         0.004337   
    130. D(C  14,C   9,P   7,C   2)     93.6874         0.004337   
    131. D(C  10,C   9,P   7,C  16)    157.1572         0.004337   
    132. D(H  27,C  10,C   9,C  14)    179.2897         0.023806   
    133. D(H  27,C  10,C   9,P   7)     -0.9788         0.023806   
    134. D(C  11,C  10,C   9,C  14)     -0.2432         0.023806   
    135. D(C  11,C  10,C   9,P   7)    179.4883         0.023806   
    136. D(H  28,C  11,C  10,H  27)      0.2909         0.025969   
    137. D(H  28,C  11,C  10,C   9)    179.8245         0.025969   
    138. D(C  12,C  11,C  10,H  27)   -179.4412         0.025969   
    139. D(C  12,C  11,C  10,C   9)      0.0924         0.025969   
    140. D(F  15,C  12,C  11,H  28)      0.3131         0.027342   
    141. D(F  15,C  12,C  11,C  10)   -179.9521         0.027342   
    142. D(C  13,C  12,C  11,H  28)   -179.6595         0.027342   
    143. D(C  13,C  12,C  11,C  10)      0.0753         0.027342   
    144. D(H  29,C  13,C  12,F  15)     -0.2860         0.027090   
    145. D(H  29,C  13,C  12,C  11)    179.6867         0.027090   
    146. D(C  14,C  13,C  12,F  15)    179.9402         0.027090   
    147. D(C  14,C  13,C  12,C  11)     -0.0872         0.027090   
    148. D(H  30,C  14,C  13,H  29)     -0.0024         0.025671   
    149. D(H  30,C  14,C  13,C  12)    179.7685         0.025671   
    150. D(C   9,C  14,C  13,H  29)   -179.8395         0.025671   
    151. D(C   9,C  14,C  13,C  12)     -0.0686         0.025671   
    152. D(H  30,C  14,C   9,C  10)   -179.6027         0.024172   
    153. D(H  30,C  14,C   9,P   7)      0.6775         0.024172   
    154. D(C  13,C  14,C   9,C  10)      0.2307         0.024172   
    155. D(C  13,C  14,C   9,P   7)   -179.4892         0.024172   
    156. D(C  21,C  16,P   7,O   8)   -144.7200         0.004337   
    157. D(C  21,C  16,P   7,C   2)    -23.1248         0.004337   
    158. D(C  17,C  16,P   7,C   9)    -86.0361         0.004337   
    159. D(C  17,C  16,P   7,O   8)     35.5592         0.004337   
    160. D(C  17,C  16,P   7,C   2)    157.1544         0.004337   
    161. D(H  31,C  17,C  16,C  21)    179.2898         0.023806   
    162. D(H  31,C  17,C  16,P   7)     -0.9785         0.023806   
    163. D(C  18,C  17,C  16,C  21)     -0.2432         0.023806   
    164. D(C  18,C  17,C  16,P   7)    179.4885         0.023806   
    165. D(H  32,C  18,C  17,H  31)      0.2911         0.025969   
    166. D(H  32,C  18,C  17,C  16)    179.8247         0.025969   
    167. D(C  19,C  18,C  17,H  31)   -179.4415         0.025969   
    168. D(C  19,C  18,C  17,C  16)      0.0922         0.025969   
    169. D(F  22,C  19,C  18,H  32)      0.3127         0.027342   
    170. D(F  22,C  19,C  18,C  17)   -179.9521         0.027342   
    171. D(C  20,C  19,C  18,H  32)   -179.6596         0.027342   
    172. D(C  20,C  19,C  18,C  17)      0.0756         0.027342   
    173. D(H  33,C  20,C  19,F  22)     -0.2861         0.027090   
    174. D(H  33,C  20,C  19,C  18)    179.6863         0.027090   
    175. D(C  21,C  20,C  19,F  22)    179.9402         0.027090   
    176. D(C  21,C  20,C  19,C  18)     -0.0875         0.027090   
    177. D(H  34,C  21,C  20,C  19)    179.7688         0.025671   
    178. D(C  16,C  21,C  20,H  33)   -179.8392         0.025671   
    179. D(C  16,C  21,C  20,C  19)     -0.0685         0.025671   
    180. D(H  34,C  21,C  16,C  17)   -179.6028         0.024172   
    181. D(H  34,C  21,C  16,P   7)      0.6772         0.024172   
    182. D(C  20,C  21,C  16,C  17)      0.2306         0.024172   
    183. D(H  34,C  21,C  20,H  33)     -0.0019         0.025671   
    184. D(C  20,C  21,C  16,P   7)   -179.4893         0.024172   
    -----------------------------------------------------------------

Number of atoms                         .... 35
Number of degrees of freedom            .... 184


         *************************************************************
         *                GEOMETRY OPTIMIZATION CYCLE   1            *
         *************************************************************
---------------------------------
CARTESIAN COORDINATES (ANGSTROEM)
---------------------------------
  C      2.960850   -1.668344    1.288445
  C      1.698576   -1.284870    0.829878
  C      1.556229   -0.663314   -0.421458
  C      2.704347   -0.440070   -1.202472
  C      3.964287   -0.823780   -0.742208
  C      4.080819   -1.433826    0.499721
  F      5.289052   -1.802259    0.944335
  P     -0.043319   -0.130558   -1.068273
  O     -0.104407   -0.314691   -2.574871
  C     -1.329912   -1.098963   -0.251194
  C     -1.672510   -2.351487   -0.791382
  C     -2.652584   -3.142057   -0.190565
  C     -3.295115   -2.682492    0.951398
  C     -2.976631   -1.446896    1.502109
  C     -1.995677   -0.653860    0.902529
  F     -4.235518   -3.439698    1.530653
  C     -0.278905    1.603798   -0.624131
  C     -1.168994    2.378011   -1.389851
  C     -1.393278    3.719799   -1.080290
  C     -0.727073    4.293026   -0.005253
  C      0.159879    3.549704    0.764295
  C      0.385805    2.206255    0.456444
  F     -0.941221    5.580443    0.294667
  H      3.078342   -2.151683    2.253629
  H      0.833997   -1.480023    1.459151
  H      2.609325    0.030549   -2.180700
  H      4.850959   -0.654657   -1.345165
  H     -1.173374   -2.705988   -1.692845
  H     -2.920023   -4.107745   -0.608019
  H     -3.497371   -1.108263    2.392706
  H     -1.762966    0.311116    1.345512
  H     -1.683708    1.928428   -2.238606
  H     -2.077850    4.319311   -1.672147
  H      0.672089    4.022935    1.596578
  H      1.085880    1.642150    1.067381

----------------------------
CARTESIAN COORDINATES (A.U.)
----------------------------
  NO LB      ZA    FRAG     MASS         X           Y           Z
   0 C     6.0000    0    12.011    5.595196   -3.152713    2.434808
   1 C     6.0000    0    12.011    3.209843   -2.428052    1.568242
   2 C     6.0000    0    12.011    2.940847   -1.253482   -0.796440
   3 C     6.0000    0    12.011    5.110475   -0.831612   -2.272343
   4 C     6.0000    0    12.011    7.491417   -1.556719   -1.402570
   5 C     6.0000    0    12.011    7.711630   -2.709538    0.944336
   6 F     9.0000    0    18.998    9.994860   -3.405776    1.784535
   7 P    15.0000    0    30.974   -0.081861   -0.246719   -2.018743
   8 O     8.0000    0    15.999   -0.197301   -0.594680   -4.865801
   9 C     6.0000    0    12.011   -2.513169   -2.076739   -0.474688
  10 C     6.0000    0    12.011   -3.160586   -4.443666   -1.495495
  11 C     6.0000    0    12.011   -5.012657   -5.937627   -0.360116
  12 C     6.0000    0    12.011   -6.226865   -5.069175    1.797882
  13 C     6.0000    0    12.011   -5.625017   -2.734237    2.838575
  14 C     6.0000    0    12.011   -3.771283   -1.235616    1.705533
  15 F     9.0000    0    18.998   -8.003969   -6.500087    2.892515
  16 C     6.0000    0    12.011   -0.527054    3.030739   -1.179437
  17 C     6.0000    0    12.011   -2.209079    4.493790   -2.626438
  18 C     6.0000    0    12.011   -2.632914    7.029401   -2.041452
  19 C     6.0000    0    12.011   -1.373969    8.112643   -0.009927
  20 C     6.0000    0    12.011    0.302128    6.707968    1.444308
  21 C     6.0000    0    12.011    0.729066    4.169218    0.862554
  22 F     9.0000    0    18.998   -1.778650   10.545509    0.556840
  23 H     1.0000    0     1.008    5.817223   -4.066092    4.258742
  24 H     1.0000    0     1.008    1.576026   -2.796838    2.757396
  25 H     1.0000    0     1.008    4.930910    0.057729   -4.120926
  26 H     1.0000    0     1.008    9.166984   -1.237122   -2.541993
  27 H     1.0000    0     1.008   -2.217356   -5.113576   -3.199013
  28 H     1.0000    0     1.008   -5.518044   -7.762513   -1.148989
  29 H     1.0000    0     1.008   -6.609073   -2.094314    4.521559
  30 H     1.0000    0     1.008   -3.331523    0.587924    2.542649
  31 H     1.0000    0     1.008   -3.181747    3.644201   -4.230352
  32 H     1.0000    0     1.008   -3.926567    8.162315   -3.159900
  33 H     1.0000    0     1.008    1.270064    7.602245    3.017095
  34 H     1.0000    0     1.008    2.052016    3.103214    2.017058

--------------------------------
INTERNAL COORDINATES (ANGSTROEM)
--------------------------------
 C      0   0   0     0.000000000000     0.00000000     0.00000000
 C      1   0   0     1.396664474110     0.00000000     0.00000000
 C      2   1   0     1.404434517676   120.37479371     0.00000000
 C      3   2   1     1.406412348373   118.83548476     0.23070349
 C      4   3   2     1.395179242032   120.68778459   359.75675181
 C      5   4   3     1.388568856838   119.45060186     0.09208314
 F      6   5   4     1.339123394902   119.57414334   180.04765568
 P      3   2   1     1.805755355541   122.64972335   180.51042044
 O      8   3   2     1.519037273748   110.80097361   215.28133483
 C      8   3   2     1.805754103945   108.10936384   336.87646879
 C     10   8   3     1.406411332265   118.51412730   273.96669121
 C     11  10   8     1.395179930283   120.68775664   179.48831837
 C     12  11  10     1.388569612427   119.45060637     0.09238270
 C     13  12  11     1.389752545957   120.93726859     0.07529497
 C     14  13  12     1.396664964769   119.71360846   359.91281427
 F     13  12  11     1.339124745448   119.57418411   180.04791396
 C      8   3   2     1.805755690645   108.10929635    93.68612276
 C     17   8   3     1.406410791942   118.51428226   157.15439229
 C     18  17   8     1.395179688184   120.68778334   179.48848384
 C     19  18  17     1.388568632414   119.45060450     0.09221759
 C     20  19  18     1.389753780456   120.93725443     0.07557996
 C     21  20  19     1.396663886294   119.71359215   359.91254709
 F     20  19  18     1.339124304982   119.57422949   180.04790322
 H      1   2   3     1.085818176695   120.78818830   180.16095317
 H      2   1   3     1.086998642676   118.65154712   179.83689679
 H      4   3   2     1.089697868048   119.72814227   179.28957375
 H      5   4   3     1.085516913070   120.76722806   179.82459009
 H     11  10   8     1.089698694991   119.72819910   359.02123259
 H     12  11  10     1.085515902316   120.76726853   179.82450278
 H     14  13  12     1.085820184330   119.49782375   179.68667380
 H     15  14  13     1.086999093093   118.65152689   179.76852553
 H     18  17   8     1.089697400983   119.72822618   359.02147903
 H     19  18  17     1.085517466362   120.76723395   179.82472178
 H     21  20  19     1.085818426603   119.49769919   179.68626597
 H     22  21  20     1.086997458423   118.65151772   179.76882372

---------------------------
INTERNAL COORDINATES (A.U.)
---------------------------
 C      0   0   0     0.000000000000     0.00000000     0.00000000
 C      1   0   0     2.639313357045     0.00000000     0.00000000
 C      2   1   0     2.653996611434   120.37479371     0.00000000
 C      3   2   1     2.657734169790   118.83548476     0.23070349
 C      4   3   2     2.636506675172   120.68778459   359.75675181
 C      5   4   3     2.624014857516   119.45060186     0.09208314
 F      6   5   4     2.530576475892   119.57414334   180.04765568
 P      3   2   1     3.412383086834   122.64972335   180.51042044
 O      8   3   2     2.870564434603   110.80097361   215.28133483
 C      8   3   2     3.412380721661   108.10936384   336.87646879
 C     10   8   3     2.657732249625   118.51412730   273.96669121
 C     11  10   8     2.636507975779   120.68775664   179.48831837
 C     12  11  10     2.624016285372   119.45060637     0.09238270
 C     13  12  11     2.626251705778   120.93726859     0.07529497
 C     14  13  12     2.639314284255   119.71360846   359.91281427
 F     13  12  11     2.530579028053   119.57418411   180.04791396
 C      8   3   2     3.412383720088   108.10929635    93.68612276
 C     17   8   3     2.657731228561   118.51428226   157.15439229
 C     18  17   8     2.636507518277   120.68778334   179.48848384
 C     19  18  17     2.624014433415   119.45060450     0.09221759
 C     20  19  18     2.626254038644   120.93725443     0.07557996
 C     21  20  19     2.639312246234   119.71359215   359.91254709
 F     20  19  18     2.530578195693   119.57422949   180.04790322
 H      1   2   3     2.051898985187   120.78818830   180.16095317
 H      2   1   3     2.054129742601   118.65154712   179.83689679
 H      4   3   2     2.059230539329   119.72814227   179.28957375
 H      5   4   3     2.051329679443   120.76722806   179.82459009
 H     11  10   8     2.059232102025   119.72819910   359.02123259
 H     12  11  10     2.051327769394   120.76726853   179.82450278
 H     14  13  12     2.051902779067   119.49782375   179.68667380
 H     15  14  13     2.054130593767   118.65152689   179.76852553
 H     18  17   8     2.059229656704   119.72822618   359.02147903
 H     19  18  17     2.051330725012   120.76723395   179.82472178
 H     21  20  19     2.051899457444   119.49769919   179.68626597
 H     22  21  20     2.054127504689   118.65151772   179.76882372

---------------------
BASIS SET INFORMATION
---------------------
There are 5 groups of distinct atoms

 Group   1 Type C   : 7s4p1d contracted to 3s2p1d pattern {511/31/1}
 Group   2 Type F   : 7s4p1d contracted to 3s2p1d pattern {511/31/1}
 Group   3 Type P   : 10s7p1d contracted to 4s3p1d pattern {5311/511/1}
 Group   4 Type O   : 7s4p1d contracted to 3s2p1d pattern {511/31/1}
 Group   5 Type H   : 4s1p contracted to 2s1p pattern {31/1}

Atom   0C    basis set group =>   1
Atom   1C    basis set group =>   1
Atom   2C    basis set group =>   1
Atom   3C    basis set group =>   1
Atom   4C    basis set group =>   1
Atom   5C    basis set group =>   1
Atom   6F    basis set group =>   2
Atom   7P    basis set group =>   3
Atom   8O    basis set group =>   4
Atom   9C    basis set group =>   1
Atom  10C    basis set group =>   1
Atom  11C    basis set group =>   1
Atom  12C    basis set group =>   1
Atom  13C    basis set group =>   1
Atom  14C    basis set group =>   1
Atom  15F    basis set group =>   2
Atom  16C    basis set group =>   1
Atom  17C    basis set group =>   1
Atom  18C    basis set group =>   1
Atom  19C    basis set group =>   1
Atom  20C    basis set group =>   1
Atom  21C    basis set group =>   1
Atom  22F    basis set group =>   2
Atom  23H    basis set group =>   5
Atom  24H    basis set group =>   5
Atom  25H    basis set group =>   5
Atom  26H    basis set group =>   5
Atom  27H    basis set group =>   5
Atom  28H    basis set group =>   5
Atom  29H    basis set group =>   5
Atom  30H    basis set group =>   5
Atom  31H    basis set group =>   5
Atom  32H    basis set group =>   5
Atom  33H    basis set group =>   5
Atom  34H    basis set group =>   5
---------------------------------
AUXILIARY/J BASIS SET INFORMATION
---------------------------------
There are 5 groups of distinct atoms

 Group   1 Type C   : 12s5p4d2f1g contracted to 6s4p3d1f1g pattern {711111/2111/211/2/1}
 Group   2 Type F   : 12s5p4d2f1g contracted to 6s4p3d1f1g pattern {711111/2111/211/2/1}
 Group   3 Type P   : 14s5p5d2f1g contracted to 8s4p3d1f1g pattern {71111111/2111/311/2/1}
 Group   4 Type O   : 12s5p4d2f1g contracted to 6s4p3d1f1g pattern {711111/2111/211/2/1}
 Group   5 Type H   : 5s2p1d contracted to 3s1p1d pattern {311/2/1}

Atom   0C    basis set group =>   1
Atom   1C    basis set group =>   1
Atom   2C    basis set group =>   1
Atom   3C    basis set group =>   1
Atom   4C    basis set group =>   1
Atom   5C    basis set group =>   1
Atom   6F    basis set group =>   2
Atom   7P    basis set group =>   3
Atom   8O    basis set group =>   4
Atom   9C    basis set group =>   1
Atom  10C    basis set group =>   1
Atom  11C    basis set group =>   1
Atom  12C    basis set group =>   1
Atom  13C    basis set group =>   1
Atom  14C    basis set group =>   1
Atom  15F    basis set group =>   2
Atom  16C    basis set group =>   1
Atom  17C    basis set group =>   1
Atom  18C    basis set group =>   1
Atom  19C    basis set group =>   1
Atom  20C    basis set group =>   1
Atom  21C    basis set group =>   1
Atom  22F    basis set group =>   2
Atom  23H    basis set group =>   5
Atom  24H    basis set group =>   5
Atom  25H    basis set group =>   5
Atom  26H    basis set group =>   5
Atom  27H    basis set group =>   5
Atom  28H    basis set group =>   5
Atom  29H    basis set group =>   5
Atom  30H    basis set group =>   5
Atom  31H    basis set group =>   5
Atom  32H    basis set group =>   5
Atom  33H    basis set group =>   5
Atom  34H    basis set group =>   5


           ************************************************************
           *        Program running with 6 parallel MPI-processes     *
           *              working on a common directory               *
           ************************************************************
------------------------------------------------------------------------------
                             ORCA STARTUP CALCULATIONS
                           -- RI-GTO INTEGRALS CHOSEN --
------------------------------------------------------------------------------
------------------------------------------------------------------------------
                   ___                                                        
                  /   \      - P O W E R E D   B Y -                         
                 /     \                                                     
                 |  |  |   _    _      __       _____    __    __             
                 |  |  |  | |  | |    /  \     |  _  \  |  |  /  |          
                  \  \/   | |  | |   /    \    | | | |  |  | /  /          
                 / \  \   | |__| |  /  /\  \   | |_| |  |  |/  /          
                |  |  |   |  __  | /  /__\  \  |    /   |      \           
                |  |  |   | |  | | |   __   |  |    \   |  |\   \          
                \     /   | |  | | |  |  |  |  | |\  \  |  | \   \       
                 \___/    |_|  |_| |__|  |__|  |_| \__\ |__|  \__/        
                                                                              
                      - O R C A' S   B I G   F R I E N D -                    
                                      &                                       
                       - I N T E G R A L  F E E D E R -                       
                                                                              
 v1 FN, 2020, v2 2021, v3 2022-2024                                           
------------------------------------------------------------------------------


----------------------
SHARK INTEGRAL PACKAGE
----------------------

Number of atoms                             ...     35
Number of basis functions                   ...    386
Number of shells                            ...    176
Maximum angular momentum                    ...      2
Integral batch strategy                     ... SHARK/LIBINT Hybrid
RI-J (if used) integral strategy            ... SPLIT-RIJ (Revised 2003 algorithm where possible)
Printlevel                                  ...      1
Contraction scheme used                     ... SEGMENTED contraction
Prescreening option                         ... SCHWARTZ
   Thresh                                   ... 2.500e-11
   Tcut                                     ... 2.500e-12
   Tpresel                                  ... 2.500e-12 
Coulomb Range Separation                    ... NOT USED
Exchange Range Separation                   ... NOT USED
Multipole approximations                    ... NOT USED
Finite Nucleus Model                        ... NOT USED
CABS basis                                  ... NOT available
Auxiliary Coulomb fitting basis             ... AVAILABLE
   # of basis functions in Aux-J            ...   1261
   # of shells in Aux-J                     ...    407
   Maximum angular momentum in Aux-J        ...      4
Auxiliary J/K fitting basis                 ... NOT available
Auxiliary Correlation fitting basis         ... NOT available
Auxiliary 'external' fitting basis          ... NOT available

Checking pre-screening integrals            ... done (  0.0 sec) Dimension = 176
Check shell pair data                       ... done (  0.0 sec)
Shell pair information
Shell pair cut-off parameter TPreSel        ...   2.5e-12
Total number of shell pairs                 ...     15576
Shell pairs after pre-screening             ...     11313
Total number of primitive shell pairs       ...     58998
Primitive shell pairs kept                  ...     27113
          la=0 lb=0:   3309 shell pairs
          la=1 lb=0:   4175 shell pairs
          la=1 lb=1:   1369 shell pairs
          la=2 lb=0:   1400 shell pairs
          la=2 lb=1:    915 shell pairs
          la=2 lb=2:    145 shell pairs

Calculating one electron integrals          ... done (  0.0 sec)
Calculating RI/J V-Matrix + Cholesky decomp.... done (  0.1 sec)
Calculating Nuclear repulsion               ... done (  0.0 sec) ENN=   1960.632285119574 Eh

Diagonalization of the overlap matrix:
Smallest eigenvalue                        ... 2.549e-04
Time for diagonalization                   ...    0.020 sec
Threshold for overlap eigenvalues          ... 1.000e-07
Number of eigenvalues below threshold      ... 0
Time for construction of square roots      ...    0.011 sec
Total time needed                          ...    0.032 sec

-------------------
DFT GRID GENERATION
-------------------

General Integration Accuracy     IntAcc      ... 4.388
Radial Grid Type                 RadialGrid  ... OptM3 with GC (2021)
Angular Grid (max. ang.)         AngularGrid ... 4 (Lebedev-302)
Angular grid pruning method      GridPruning ... 4 (adaptive)
Weight generation scheme         WeightScheme... mBecke (2022)
Basis function cutoff            BFCut       ... 1.0000e-11
Integration weight cutoff        WCut        ... 1.0000e-14
Partially contracted basis set               ... off
Rotationally invariant grid construction     ... off
Angular grids for H and He will be reduced by one unit

Total number of grid points                  ...   177311
Total number of batches                      ...     2784
Average number of points per batch           ...       63
Average number of grid points per atom       ...     5066
Initializing property integral containers    ... done (  0.0 sec)

SHARK setup successfully completed in   1.4 seconds

Maximum memory used throughout the entire STARTUP-calculation: 48.1 MB


           ************************************************************
           *        Program running with 6 parallel MPI-processes     *
           *              working on a common directory               *
           ************************************************************
-------------------------------------------------------------------------------
                                 ORCA GUESS
                   Start orbitals & Density for SCF / CASSCF
-------------------------------------------------------------------------------

------------
SCF SETTINGS
------------
Hamiltonian:
 Density Functional     Method          .... DFT(GTOs)
 Exchange Functional    Exchange        .... B88
   X-Alpha parameter    XAlpha          ....  0.666667
   Becke's b parameter  XBeta           ....  0.004200
 Correlation Functional Correlation     .... P86
 LDA part of GGA corr.  LDAOpt          .... PW91-LDA
 Gradients option       PostSCFGGA      .... off
   NL short-range parameter             ....  4.400000
 RI-approximation to the Coulomb term is turned on
   Number of AuxJ basis functions       .... 1261


General Settings:
 Integral files         IntName         .... data/geom_opt_PO_BP86/140387/140387
 Hartree-Fock type      HFTyp           .... RHF
 Total Charge           Charge          ....    0
 Multiplicity           Mult            ....    1
 Number of Electrons    NEL             ....  170
 Basis Dimension        Dim             ....  386
 Nuclear Repulsion      ENuc            ....   1960.6322851196 Eh

Convergence Acceleration:
 AO-DIIS                CNVDIIS         .... on
   Start iteration      DIISMaxIt       ....    12
   Startup error        DIISStart       ....  0.200000
   # of expansion vecs  DIISMaxEq       ....     5
   Bias factor          DIISBfac        ....   1.050
   Max. coefficient     DIISMaxC        ....  10.000
 MO-DIIS                CNVKDIIS        .... off
 Trust-Rad. Augm. Hess. CNVTRAH         .... auto
   Auto Start mean grad. ratio tolernc. ....  1.125000
   Auto Start start iteration           ....    50
   Auto Start num. interpolation iter.  ....    10
   Max. Number of Micro iterations      ....    24
   Max. Number of Macro iterations      .... Maxiter - #DIIS iter
   Number of Davidson start vectors     ....     2
   Converg. threshold    (grad. norm)   ....   1.000e-05
   Grad. Scal. Fac. for Micro threshold ....   0.100
   Minimum threshold for Micro iter.    ....   1.000e-02
   NR start threshold (gradient norm)   ....   1.000e-04
   Initial trust radius                 ....   0.400
   Minimum AH scaling param. (alpha)    ....   1.000
   Maximum AH scaling param. (alpha)    .... 1000.000
   Quad. conv. algorithm                .... NR
   White noise on init. David. guess    .... on
   Maximum white noise                  ....   0.010
   Pseudo random numbers                .... off
   Inactive MOs                         .... canonical
   Orbital update algorithm             .... Taylor
   Preconditioner                       .... Diag
   Full preconditioner red. dimension   ....   250
 SOSCF                  CNVSOSCF        .... on
   Start iteration      SOSCFMaxIt      ....   150
   Startup grad/error   SOSCFStart      ....  0.003300
   Hessian update       SOSCFHessUp     .... L-BFGS
 Level Shifting         CNVShift        .... on
   Level shift para.    LevelShift      ....    0.2500
   Turn off err/grad.   ShiftErr        ....    0.0010
 Zerner damping         CNVZerner       .... off
 Static damping         CNVDamp         .... on
   Fraction old density DampFac         ....    0.7000
   Max. Damping (<1)    DampMax         ....    0.9800
   Min. Damping (>=0)   DampMin         ....    0.0000
   Turn off err/grad.   DampErr         ....    0.1000

SCF Procedure:
 Maximum # iterations   MaxIter         ....   125
 SCF integral mode      SCFMode         .... Direct
   Integral package                     .... SHARK and LIBINT hybrid scheme
 Reset frequency        DirectResetFreq ....    20
 Integral Threshold     Thresh          ....  2.500e-11 Eh
 Primitive CutOff       TCut            ....  2.500e-12 Eh

Convergence Tolerance:
 Convergence Check Mode ConvCheckMode   .... Total+1el-Energy
 Convergence forced     ConvForced      .... 0
 Energy Change          TolE            ....  1.000e-08 Eh
 1-El. energy change                    ....  1.000e-05 Eh
 Orbital Gradient       TolG            ....  1.000e-05
 Orbital Rotation angle TolX            ....  1.000e-05
 DIIS Error             TolErr          ....  5.000e-07

------------------------------
INITIAL GUESS: MODEL POTENTIAL
------------------------------
Loading Hartree-Fock densities                     ... done
Calculating cut-offs                               ... done
Initializing the effective Hamiltonian             ... done
Setting up the integral package (SHARK)            ... done
Starting the Coulomb interaction                   ... done (   0.1 sec)
Making the grid                                    ... done (   0.3 sec)
Mapping shells                                     ... done
Starting the XC term evaluation                    ... done (   0.1 sec)
  promolecular density results
     # of electrons  =    169.996215133
     EX              =   -157.154278792
     EC              =     -6.401754509
     EX+EC           =   -163.556033302
Transforming the Hamiltonian                       ... done (   0.0 sec)
Diagonalizing the Hamiltonian                      ... done (   0.0 sec)
Back transforming the eigenvectors                 ... done (   0.0 sec)
Now organizing SCF variables                       ... done
                      ------------------
                      INITIAL GUESS DONE (   0.6 sec)
                      ------------------
             **** ENERGY FILE WAS UPDATED (data/geom_opt_PO_BP86/140387/140387.en.tmp) ****
Finished Guess after   0.7 sec
Maximum memory used throughout the entire GUESS-calculation: 27.5 MB


           ************************************************************
           *        Program running with 6 parallel MPI-processes     *
           *              working on a common directory               *
           ************************************************************

-------------------------------------------------------------------------------------------
                                      ORCA LEAN-SCF
                              memory conserving SCF solver
-------------------------------------------------------------------------------------------

----------------------------------------D-I-I-S--------------------------------------------
Iteration    Energy (Eh)           Delta-E    RMSDP     MaxDP     DIISErr   Damp  Time(sec)
-------------------------------------------------------------------------------------------
               ***  Starting incremental Fock matrix formation  ***
    1    -1407.9776267475647273     0.00e+00  3.20e-03  1.52e-01  3.36e-01  0.700   1.0
    2    -1408.1953989853088842    -2.18e-01  1.83e-03  5.94e-02  7.82e-02  0.700   1.0
                               ***Turning on AO-DIIS***
    3    -1408.2612682135679734    -6.59e-02  6.50e-04  1.86e-02  2.99e-02  0.700   0.9
    4    -1408.3070963188822589    -4.58e-02  1.25e-03  4.32e-02  1.72e-02  0.000   0.9
    5    -1408.4108034361777300    -1.04e-01  2.93e-04  8.64e-03  7.20e-03  0.000   1.0
    6    -1408.4118505738235854    -1.05e-03  1.00e-04  2.66e-03  3.51e-03  0.000   1.0
                              *** Initializing SOSCF ***
---------------------------------------S-O-S-C-F--------------------------------------
Iteration    Energy (Eh)           Delta-E    RMSDP     MaxDP     MaxGrad    Time(sec)
--------------------------------------------------------------------------------------
    7    -1408.4119572674724168    -1.07e-04  4.73e-05  1.58e-03  7.57e-04     0.9
               *** Restarting incremental Fock matrix formation ***
    8    -1408.4119708003115647    -1.35e-05  3.46e-05  1.26e-03  2.12e-04     1.0
    9    -1408.4119694091812107     1.39e-06  2.21e-05  7.32e-04  2.88e-04     0.8
   10    -1408.4119728866451169    -3.48e-06  1.72e-05  9.91e-04  1.33e-04     0.9
   11    -1408.4119724639215292     4.23e-07  9.34e-06  3.84e-04  1.19e-04     0.8
   12    -1408.4119737886028361    -1.32e-06  6.43e-06  3.19e-04  2.37e-05     0.8
   13    -1408.4119738085043991    -1.99e-08  2.69e-06  1.85e-04  3.38e-05     0.8
   14    -1408.4119738735464580    -6.50e-08  2.85e-06  1.08e-04  2.01e-05     0.9
   15    -1408.4119738325600792     4.10e-08  1.47e-06  1.01e-04  1.38e-05     0.9
   16    -1408.4119738814717948    -4.89e-08  8.38e-07  2.71e-05  6.59e-06     0.8
   17    -1408.4119738873134793    -5.84e-09  5.05e-07  1.75e-05  1.04e-05     0.8
                 **** Energy Check signals convergence ****

               *****************************************************
               *                     SUCCESS                       *
               *           SCF CONVERGED AFTER  17 CYCLES          *
               *****************************************************

             **** ENERGY FILE WAS UPDATED (data/geom_opt_PO_BP86/140387/140387.en.tmp) ****

----------------
TOTAL SCF ENERGY
----------------

Total Energy       :      -1408.41197388731348 Eh          -38324.83821 eV

Components:
Nuclear Repulsion  :       1960.63228511957391 Eh           53351.51682 eV
Electronic Energy  :      -3369.04425900688739 Eh          -91676.35502 eV
One Electron Energy:      -5827.76296391063897 Eh         -158581.49238 eV
Two Electron Energy:       2458.71870490375159 Eh           66905.13735 eV

Virial components:
Potential Energy   :      -2805.52637359773644 Eh          -76342.25379 eV
Kinetic Energy     :       1397.11439971042296 Eh           38017.41558 eV
Virial Ratio       :          2.00808636299163

DFT components:
N(Alpha)           :       84.999881255475 electrons
N(Beta)            :       84.999881255475 electrons
N(Total)           :      169.999762510950 electrons
E(X)               :     -158.950162018807 Eh       
E(C)               :       -6.406479816341 Eh       
E(XC)              :     -165.356641835148 Eh       

---------------
SCF CONVERGENCE
---------------

  Last Energy change         ...    5.8417e-09  Tolerance :   1.0000e-08
  Last MAX-Density change    ...    1.7548e-05  Tolerance :   1.0000e-07
  Last RMS-Density change    ...    5.0542e-07  Tolerance :   5.0000e-09
  Last DIIS Error            ...    7.5696e-04  Tolerance :   5.0000e-07
  Last Orbital Gradient      ...    1.0450e-05  Tolerance :   1.0000e-05
  Last Orbital Rotation      ...    2.1747e-05  Tolerance :   1.0000e-05


----------------
ORBITAL ENERGIES
----------------

  NO   OCC          E(Eh)            E(eV) 
   0   2.0000     -76.419390     -2079.4773 
   1   2.0000     -24.312796      -661.5848 
   2   2.0000     -24.312794      -661.5847 
   3   2.0000     -24.312789      -661.5846 
   4   2.0000     -18.712585      -509.1953 
   5   2.0000     -10.011169      -272.4178 
   6   2.0000     -10.011166      -272.4177 
   7   2.0000     -10.011166      -272.4177 
   8   2.0000      -9.944564      -270.6054 
   9   2.0000      -9.944528      -270.6044 
  10   2.0000      -9.944521      -270.6042 
  11   2.0000      -9.941385      -270.5188 
  12   2.0000      -9.941361      -270.5182 
  13   2.0000      -9.941357      -270.5181 
  14   2.0000      -9.936685      -270.3910 
  15   2.0000      -9.936681      -270.3908 
  16   2.0000      -9.936676      -270.3907 
  17   2.0000      -9.935761      -270.3658 
  18   2.0000      -9.935759      -270.3657 
  19   2.0000      -9.935753      -270.3656 
  20   2.0000      -9.934021      -270.3185 
  21   2.0000      -9.934017      -270.3183 
  22   2.0000      -9.933954      -270.3166 
  23   2.0000      -6.378149      -173.5582 
  24   2.0000      -4.599256      -125.1521 
  25   2.0000      -4.599255      -125.1521 
  26   2.0000      -4.599156      -125.1494 
  27   2.0000      -1.123924       -30.5835 
  28   2.0000      -1.123924       -30.5835 
  29   2.0000      -1.123922       -30.5835 
  30   2.0000      -0.852546       -23.1990 
  31   2.0000      -0.798548       -21.7296 
  32   2.0000      -0.797016       -21.6879 
  33   2.0000      -0.797007       -21.6877 
  34   2.0000      -0.710039       -19.3211 
  35   2.0000      -0.697272       -18.9737 
  36   2.0000      -0.697271       -18.9737 
  37   2.0000      -0.696405       -18.9502 
  38   2.0000      -0.687460       -18.7067 
  39   2.0000      -0.687458       -18.7067 
  40   2.0000      -0.598988       -16.2993 
  41   2.0000      -0.577843       -15.7239 
  42   2.0000      -0.577841       -15.7239 
  43   2.0000      -0.577434       -15.7128 
  44   2.0000      -0.561793       -15.2872 
  45   2.0000      -0.561791       -15.2871 
  46   2.0000      -0.521181       -14.1820 
  47   2.0000      -0.507443       -13.8082 
  48   2.0000      -0.507437       -13.8081 
  49   2.0000      -0.503165       -13.6918 
  50   2.0000      -0.461106       -12.5473 
  51   2.0000      -0.461105       -12.5473 
  52   2.0000      -0.456343       -12.4177 
  53   2.0000      -0.446174       -12.1410 
  54   2.0000      -0.446172       -12.1409 
  55   2.0000      -0.425668       -11.5830 
  56   2.0000      -0.425667       -11.5830 
  57   2.0000      -0.425495       -11.5783 
  58   2.0000      -0.415840       -11.3156 
  59   2.0000      -0.413715       -11.2578 
  60   2.0000      -0.413713       -11.2577 
  61   2.0000      -0.399606       -10.8738 
  62   2.0000      -0.398705       -10.8493 
  63   2.0000      -0.398702       -10.8492 
  64   2.0000      -0.387734       -10.5508 
  65   2.0000      -0.363535        -9.8923 
  66   2.0000      -0.363308        -9.8861 
  67   2.0000      -0.363307        -9.8861 
  68   2.0000      -0.349669        -9.5150 
  69   2.0000      -0.349666        -9.5149 
  70   2.0000      -0.339058        -9.2262 
  71   2.0000      -0.329631        -8.9697 
  72   2.0000      -0.329628        -8.9696 
  73   2.0000      -0.318152        -8.6573 
  74   2.0000      -0.315720        -8.5912 
  75   2.0000      -0.315719        -8.5912 
  76   2.0000      -0.301989        -8.2175 
  77   2.0000      -0.257114        -6.9964 
  78   2.0000      -0.255148        -6.9429 
  79   2.0000      -0.255146        -6.9429 
  80   2.0000      -0.246242        -6.7006 
  81   2.0000      -0.246238        -6.7005 
  82   2.0000      -0.236692        -6.4407 
  83   2.0000      -0.215023        -5.8511 
  84   2.0000      -0.215021        -5.8510 
  85   0.0000      -0.072192        -1.9644 
  86   0.0000      -0.069924        -1.9027 
  87   0.0000      -0.069921        -1.9027 
  88   0.0000      -0.064433        -1.7533 
  89   0.0000      -0.058757        -1.5989 
  90   0.0000      -0.058755        -1.5988 
  91   0.0000       0.027551         0.7497 
  92   0.0000       0.038988         1.0609 
  93   0.0000       0.038997         1.0611 
  94   0.0000       0.043941         1.1957 
  95   0.0000       0.066721         1.8156 
*Only the first 10 virtual orbitals were printed.

                    ********************************
                    * MULLIKEN POPULATION ANALYSIS *
                    ********************************

-----------------------
MULLIKEN ATOMIC CHARGES
-----------------------
   0 C :   -0.058215
   1 C :   -0.004873
   2 C :   -0.114818
   3 C :    0.016043
   4 C :   -0.060706
   5 C :    0.275117
   6 F :   -0.153820
   7 P :    0.623473
   8 O :   -0.465460
   9 C :   -0.115335
  10 C :    0.016121
  11 C :   -0.060674
  12 C :    0.275152
  13 C :   -0.058322
  14 C :   -0.004579
  15 F :   -0.153815
  16 C :   -0.115154
  17 C :    0.016058
  18 C :   -0.060661
  19 C :    0.275102
  20 C :   -0.058252
  21 C :   -0.004746
  22 F :   -0.153826
  23 H :    0.006541
  24 H :    0.008362
  25 H :    0.022238
  26 H :    0.011582
  27 H :    0.022249
  28 H :    0.011559
  29 H :    0.006561
  30 H :    0.008362
  31 H :    0.022279
  32 H :    0.011567
  33 H :    0.006532
  34 H :    0.008356
Sum of atomic charges:   -0.0000000

--------------------------------
MULLIKEN REDUCED ORBITAL CHARGES
--------------------------------
  0 C s       :     3.242050  s :     3.242050
      pz      :     0.861506  p :     2.785488
      px      :     0.937171
      py      :     0.986811
      dz2     :     0.005790  d :     0.030677
      dxz     :     0.009297
      dyz     :     0.003466
      dx2y2   :     0.005703
      dxy     :     0.006421

  1 C s       :     3.231629  s :     3.231629
      pz      :     0.926680  p :     2.739916
      px      :     0.849011
      py      :     0.964226
      dz2     :     0.007137  d :     0.033328
      dxz     :     0.010824
      dyz     :     0.004527
      dx2y2   :     0.005575
      dxy     :     0.005266

  2 C s       :     3.061573  s :     3.061573
      pz      :     0.979899  p :     3.020393
      px      :     1.009655
      py      :     1.030838
      dz2     :     0.008316  d :     0.032852
      dxz     :     0.009275
      dyz     :     0.005251
      dx2y2   :     0.005159
      dxy     :     0.004852

  3 C s       :     3.243281  s :     3.243281
      pz      :     0.875483  p :     2.707656
      px      :     0.911401
      py      :     0.920772
      dz2     :     0.006923  d :     0.033021
      dxz     :     0.009142
      dyz     :     0.003542
      dx2y2   :     0.006266
      dxy     :     0.007148

  4 C s       :     3.245388  s :     3.245388
      pz      :     0.936946  p :     2.784506
      px      :     0.837074
      py      :     1.010486
      dz2     :     0.007495  d :     0.030811
      dxz     :     0.008463
      dyz     :     0.004852
      dx2y2   :     0.005678
      dxy     :     0.004323

  5 C s       :     2.967847  s :     2.967847
      pz      :     0.961294  p :     2.675691
      px      :     0.747423
      py      :     0.966974
      dz2     :     0.015638  d :     0.081345
      dxz     :     0.023443
      dyz     :     0.007891
      dx2y2   :     0.016986
      dxy     :     0.017386

  6 F s       :     3.887209  s :     3.887209
      pz      :     1.858498  p :     5.258516
      px      :     1.552845
      py      :     1.847173
      dz2     :     0.001029  d :     0.008094
      dxz     :     0.002201
      dyz     :     0.000402
      dx2y2   :     0.002353
      dxy     :     0.002109

  7 P s       :     5.211433  s :     5.211433
      pz      :     2.812301  p :     8.677981
      px      :     2.933665
      py      :     2.932015
      dz2     :     0.093228  d :     0.487113
      dxz     :     0.141975
      dyz     :     0.126161
      dx2y2   :     0.072741
      dxy     :     0.053007

  8 O s       :     3.822811  s :     3.822811
      pz      :     1.336345  p :     4.630923
      px      :     1.649379
      py      :     1.645199
      dz2     :     0.004964  d :     0.011726
      dxz     :     0.003249
      dyz     :     0.003342
      dx2y2   :     0.000070
      dxy     :     0.000101

  9 C s       :     3.061891  s :     3.061891
      pz      :     0.990035  p :     3.020593
      px      :     1.009491
      py      :     1.021066
      dz2     :     0.007101  d :     0.032852
      dxz     :     0.005786
      dyz     :     0.007789
      dx2y2   :     0.005491
      dxy     :     0.006685

 10 C s       :     3.243248  s :     3.243248
      pz      :     0.875371  p :     2.707610
      px      :     0.896335
      py      :     0.935904
      dz2     :     0.005674  d :     0.033021
      dxz     :     0.005198
      dyz     :     0.007493
      dx2y2   :     0.007507
      dxy     :     0.007149

 11 C s       :     3.245431  s :     3.245431
      pz      :     0.961758  p :     2.784432
      px      :     0.967295
      py      :     0.855380
      dz2     :     0.007447  d :     0.030810
      dxz     :     0.006098
      dyz     :     0.005791
      dx2y2   :     0.005854
      dxy     :     0.005619

 12 C s       :     2.967832  s :     2.967832
      pz      :     0.935502  p :     2.675672
      px      :     0.839624
      py      :     0.900546
      dz2     :     0.014818  d :     0.081344
      dxz     :     0.014550
      dyz     :     0.016591
      dx2y2   :     0.017035
      dxy     :     0.018349

 13 C s       :     3.242073  s :     3.242073
      pz      :     0.881992  p :     2.785572
      px      :     0.945345
      py      :     0.958235
      dz2     :     0.005271  d :     0.030677
      dxz     :     0.005503
      dyz     :     0.006266
      dx2y2   :     0.007509
      dxy     :     0.006127

 14 C s       :     3.231583  s :     3.231583
      pz      :     0.936156  p :     2.739670
      px      :     0.940632
      py      :     0.862881
      dz2     :     0.007220  d :     0.033326
      dxz     :     0.006171
      dyz     :     0.007597
      dx2y2   :     0.006967
      dxy     :     0.005372

 15 F s       :     3.887209  s :     3.887209
      pz      :     1.818302  p :     5.258511
      px      :     1.675147
      py      :     1.765062
      dz2     :     0.001089  d :     0.008094
      dxz     :     0.001717
      dyz     :     0.001317
      dx2y2   :     0.001679
      dxy     :     0.002293

 16 C s       :     3.061704  s :     3.061704
      pz      :     0.990498  p :     3.020598
      px      :     1.031962
      py      :     0.998137
      dz2     :     0.007560  d :     0.032852
      dxz     :     0.005588
      dyz     :     0.007150
      dx2y2   :     0.007202
      dxy     :     0.005353

 17 C s       :     3.243238  s :     3.243238
      pz      :     0.893352  p :     2.707684
      px      :     0.932226
      py      :     0.882106
      dz2     :     0.005284  d :     0.033021
      dxz     :     0.004303
      dyz     :     0.008504
      dx2y2   :     0.007284
      dxy     :     0.007647

 18 C s       :     3.245403  s :     3.245403
      pz      :     0.949353  p :     2.784448
      px      :     0.947685
      py      :     0.887410
      dz2     :     0.005937  d :     0.030811
      dxz     :     0.004167
      dyz     :     0.008323
      dx2y2   :     0.004952
      dxy     :     0.007431

 19 C s       :     2.967868  s :     2.967868
      pz      :     0.977467  p :     2.675684
      px      :     0.987291
      py      :     0.710925
      dz2     :     0.013955  d :     0.081345
      dxz     :     0.007156
      dyz     :     0.020753
      dx2y2   :     0.020964
      dxy     :     0.018517

 20 C s       :     3.242072  s :     3.242072
      pz      :     0.904556  p :     2.785502
      px      :     0.973123
      py      :     0.907823
      dz2     :     0.004516  d :     0.030678
      dxz     :     0.003795
      dyz     :     0.008743
      dx2y2   :     0.006121
      dxy     :     0.007502

 21 C s       :     3.231517  s :     3.231517
      pz      :     0.930023  p :     2.739903
      px      :     0.923042
      py      :     0.886838
      dz2     :     0.005991  d :     0.033327
      dxz     :     0.004809
      dyz     :     0.008819
      dx2y2   :     0.006100
      dxy     :     0.007608

 22 F s       :     3.887210  s :     3.887210
      pz      :     1.877256  p :     5.258522
      px      :     1.879789
      py      :     1.501477
      dz2     :     0.001032  d :     0.008094
      dxz     :     0.000182
      dyz     :     0.002092
      dx2y2   :     0.002805
      dxy     :     0.001983

 23 H s       :     0.970889  s :     0.970889
      pz      :     0.011990  p :     0.022570
      px      :     0.003707
      py      :     0.006873

 24 H s       :     0.968566  s :     0.968566
      pz      :     0.007194  p :     0.023071
      px      :     0.010789
      py      :     0.005089

 25 H s       :     0.955122  s :     0.955122
      pz      :     0.012604  p :     0.022640
      px      :     0.003822
      py      :     0.006213

 26 H s       :     0.965875  s :     0.965875
      pz      :     0.007059  p :     0.022543
      px      :     0.010506
      py      :     0.004978

 27 H s       :     0.955113  s :     0.955113
      pz      :     0.011599  p :     0.022638
      px      :     0.006388
      py      :     0.004651

 28 H s       :     0.965898  s :     0.965898
      pz      :     0.005587  p :     0.022543
      px      :     0.004896
      py      :     0.012060

 29 H s       :     0.970870  s :     0.970870
      pz      :     0.010999  p :     0.022569
      px      :     0.006732
      py      :     0.004838

 30 H s       :     0.968564  s :     0.968564
      pz      :     0.005671  p :     0.023074
      px      :     0.004891
      py      :     0.012512

 31 H s       :     0.955081  s :     0.955081
      pz      :     0.010662  p :     0.022640
      px      :     0.006193
      py      :     0.005784

 32 H s       :     0.965890  s :     0.965890
      pz      :     0.007216  p :     0.022543
      px      :     0.008508
      py      :     0.006819

 33 H s       :     0.970898  s :     0.970898
      pz      :     0.010171  p :     0.022570
      px      :     0.006729
      py      :     0.005671

 34 H s       :     0.968571  s :     0.968571
      pz      :     0.007231  p :     0.023073
      px      :     0.008912
      py      :     0.006929



                     *******************************
                     * LOEWDIN POPULATION ANALYSIS *
                     *******************************

----------------------
LOEWDIN ATOMIC CHARGES
----------------------
   0 C :   -0.055833
   1 C :   -0.022033
   2 C :   -0.198058
   3 C :    0.002909
   4 C :   -0.051377
   5 C :    0.075373
   6 F :   -0.035995
   7 P :    0.882054
   8 O :   -0.497094
   9 C :   -0.198106
  10 C :    0.002915
  11 C :   -0.051372
  12 C :    0.075376
  13 C :   -0.055849
  14 C :   -0.021982
  15 F :   -0.035993
  16 C :   -0.198101
  17 C :    0.002908
  18 C :   -0.051369
  19 C :    0.075377
  20 C :   -0.055834
  21 C :   -0.022011
  22 F :   -0.035998
  23 H :    0.040294
  24 H :    0.033558
  25 H :    0.040550
  26 H :    0.042293
  27 H :    0.040559
  28 H :    0.042290
  29 H :    0.040299
  30 H :    0.033553
  31 H :    0.040560
  32 H :    0.042290
  33 H :    0.040292
  34 H :    0.033553

-------------------------------
LOEWDIN REDUCED ORBITAL CHARGES
-------------------------------
  0 C s       :     2.867196  s :     2.867196
      pz      :     1.033957  p :     3.103170
      px      :     1.056321
      py      :     1.012892
      dz2     :     0.015956  d :     0.085467
      dxz     :     0.028106
      dyz     :     0.008161
      dx2y2   :     0.017293
      dxy     :     0.015951

  1 C s       :     2.866761  s :     2.866761
      pz      :     1.037271  p :     3.064354
      px      :     1.049980
      py      :     0.977104
      dz2     :     0.019908  d :     0.090918
      dxz     :     0.030871
      dyz     :     0.012020
      dx2y2   :     0.014974
      dxy     :     0.013145

  2 C s       :     2.913688  s :     2.913688
      pz      :     1.073932  p :     3.196537
      px      :     1.085640
      py      :     1.036965
      dz2     :     0.022363  d :     0.087833
      dxz     :     0.026751
      dyz     :     0.013708
      dx2y2   :     0.013695
      dxy     :     0.011316

  3 C s       :     2.867305  s :     2.867305
      pz      :     1.031675  p :     3.040124
      px      :     1.052152
      py      :     0.956297
      dz2     :     0.018738  d :     0.089663
      dxz     :     0.026875
      dyz     :     0.008247
      dx2y2   :     0.018431
      dxy     :     0.017372

  4 C s       :     2.866835  s :     2.866835
      pz      :     1.036078  p :     3.098815
      px      :     1.053231
      py      :     1.009506
      dz2     :     0.021210  d :     0.085727
      dxz     :     0.025250
      dyz     :     0.013125
      dx2y2   :     0.015441
      dxy     :     0.010701

  5 C s       :     2.853832  s :     2.853832
      pz      :     1.051014  p :     2.880346
      px      :     0.853972
      py      :     0.975360
      dz2     :     0.037993  d :     0.190449
      dxz     :     0.057369
      dyz     :     0.018954
      dx2y2   :     0.039473
      dxy     :     0.036661

  6 F s       :     3.722232  s :     3.722232
      pz      :     1.861760  p :     5.300829
      px      :     1.590758
      py      :     1.848310
      dz2     :     0.001629  d :     0.012935
      dxz     :     0.003524
      dyz     :     0.000612
      dx2y2   :     0.003942
      dxy     :     0.003227

  7 P s       :     4.930602  s :     4.930602
      pz      :     2.781074  p :     8.507432
      px      :     2.863732
      py      :     2.862626
      dz2     :     0.137395  d :     0.679912
      dxz     :     0.192940
      dyz     :     0.169642
      dx2y2   :     0.106091
      dxy     :     0.073844

  8 O s       :     3.666201  s :     3.666201
      pz      :     1.468300  p :     4.812702
      px      :     1.673572
      py      :     1.670830
      dz2     :     0.010211  d :     0.018191
      dxz     :     0.003733
      dyz     :     0.004029
      dx2y2   :     0.000084
      dxy     :     0.000134

  9 C s       :     2.913698  s :     2.913698
      pz      :     1.065637  p :     3.196575
      px      :     1.057274
      py      :     1.073665
      dz2     :     0.017936  d :     0.087833
      dxz     :     0.015710
      dyz     :     0.022075
      dx2y2   :     0.014758
      dxy     :     0.017353

 10 C s       :     2.867308  s :     2.867308
      pz      :     1.013697  p :     3.040116
      px      :     0.994809
      py      :     1.031609
      dz2     :     0.014931  d :     0.089662
      dxz     :     0.013837
      dyz     :     0.020608
      dx2y2   :     0.019637
      dxy     :     0.020649

 11 C s       :     2.866839  s :     2.866839
      pz      :     1.031901  p :     3.098806
      px      :     1.030382
      py      :     1.036523
      dz2     :     0.019318  d :     0.085727
      dxz     :     0.018447
      dyz     :     0.017169
      dx2y2   :     0.014954
      dxy     :     0.015839

 12 C s       :     2.853837  s :     2.853837
      pz      :     1.007757  p :     2.880338
      px      :     0.888290
      py      :     0.984292
      dz2     :     0.034799  d :     0.190448
      dxz     :     0.035273
      dyz     :     0.039061
      dx2y2   :     0.038617
      dxy     :     0.042699

 13 C s       :     2.867199  s :     2.867199
      pz      :     1.030174  p :     3.103184
      px      :     1.031599
      py      :     1.041411
      dz2     :     0.013670  d :     0.085465
      dxz     :     0.014722
      dyz     :     0.018688
      dx2y2   :     0.020112
      dxy     :     0.018272

 14 C s       :     2.866766  s :     2.866766
      pz      :     1.023900  p :     3.064298
      px      :     1.010149
      py      :     1.030249
      dz2     :     0.018772  d :     0.090918
      dxz     :     0.018531
      dyz     :     0.020747
      dx2y2   :     0.017780
      dxy     :     0.015088

 15 F s       :     3.722232  s :     3.722232
      pz      :     1.825244  p :     5.300826
      px      :     1.697077
      py      :     1.778505
      dz2     :     0.001624  d :     0.012935
      dxz     :     0.002865
      dyz     :     0.002095
      dx2y2   :     0.002403
      dxy     :     0.003948

 16 C s       :     2.913686  s :     2.913686
      pz      :     1.062628  p :     3.196582
      px      :     1.050790
      py      :     1.083165
      dz2     :     0.018280  d :     0.087833
      dxz     :     0.016336
      dyz     :     0.020366
      dx2y2   :     0.017985
      dxy     :     0.014866

 17 C s       :     2.867303  s :     2.867303
      pz      :     1.009372  p :     3.040126
      px      :     0.985688
      py      :     1.045066
      dz2     :     0.013676  d :     0.089663
      dxz     :     0.011356
      dyz     :     0.023462
      dx2y2   :     0.020158
      dxy     :     0.021011

 18 C s       :     2.866834  s :     2.866834
      pz      :     1.026890  p :     3.098807
      px      :     1.017208
      py      :     1.054709
      dz2     :     0.015326  d :     0.085727
      dxz     :     0.011967
[...]
      dxz     :     0.015198
      dyz     :     0.018532
      dx2y2   :     0.016980
      dxy     :     0.016554

 14 C s       :     2.873270  s :     2.873270
      pz      :     1.037049  p :     3.064226
      px      :     1.004786
      py      :     1.022391
      dz2     :     0.020740  d :     0.088806
      dxz     :     0.019101
      dyz     :     0.021784
      dx2y2   :     0.013957
      dxy     :     0.013224

 15 F s       :     3.726455  s :     3.726455
      pz      :     1.826252  p :     5.303035
      px      :     1.703832
      py      :     1.772950
      dz2     :     0.001564  d :     0.012628
      dxz     :     0.002802
      dyz     :     0.002161
      dx2y2   :     0.002303
      dxy     :     0.003798

 16 C s       :     2.919612  s :     2.919612
      pz      :     1.068933  p :     3.190890
      px      :     1.042055
      py      :     1.079902
      dz2     :     0.020749  d :     0.085902
      dxz     :     0.015802
      dyz     :     0.023122
      dx2y2   :     0.014511
      dxy     :     0.011719

 17 C s       :     2.873643  s :     2.873643
      pz      :     1.027530  p :     3.042293
      px      :     0.970492
      py      :     1.044271
      dz2     :     0.016753  d :     0.088010
      dxz     :     0.009691
      dyz     :     0.025537
      dx2y2   :     0.017920
      dxy     :     0.018108

 18 C s       :     2.875892  s :     2.875892
      pz      :     1.030306  p :     3.094692
      px      :     1.011708
      py      :     1.052679
      dz2     :     0.017946  d :     0.082980
      dxz     :     0.011112
      dyz     :     0.025720
      dx2y2   :     0.012660
      dxy     :     0.015542

 19 C s       :     2.863534  s :     2.863534
      pz      :     1.057662  p :     2.873002
      px      :     1.005803
      py      :     0.809537
      dz2     :     0.034603  d :     0.183753
      dxz     :     0.017889
      dyz     :     0.052348
      dx2y2   :     0.041445
      dxy     :     0.037467

 20 C s       :     2.875778  s :     2.875778
      pz      :     1.030418  p :     3.099460
      px      :     1.017260
      py      :     1.051782
      dz2     :     0.013440  d :     0.082834
      dxz     :     0.009744
      dyz     :     0.026386
      dx2y2   :     0.015766
      dxy     :     0.017498

 21 C s       :     2.873273  s :     2.873273
      pz      :     1.030767  p :     3.064366
      px      :     0.986490
      py      :     1.047109
      dz2     :     0.017551  d :     0.088800
      dxz     :     0.012526
      dyz     :     0.027220
      dx2y2   :     0.014696
      dxy     :     0.016807

 22 F s       :     3.726475  s :     3.726475
      pz      :     1.881805  p :     5.303064
      px      :     1.872140
      py      :     1.549118
      dz2     :     0.001667  d :     0.012626
      dxz     :     0.000283
      dyz     :     0.003120
      dx2y2   :     0.004652
      dxy     :     0.002903

 23 H s       :     0.887952  s :     0.887952
      pz      :     0.038859  p :     0.068040
      px      :     0.011036
      py      :     0.018145

 24 H s       :     0.896103  s :     0.896103
      pz      :     0.022199  p :     0.068466
      px      :     0.032462
      py      :     0.013805

 25 H s       :     0.888258  s :     0.888258
      pz      :     0.041512  p :     0.069136
      px      :     0.011900
      py      :     0.015723

 26 H s       :     0.886547  s :     0.886547
      pz      :     0.021928  p :     0.067910
      px      :     0.031749
      py      :     0.014234

 27 H s       :     0.888108  s :     0.888108
      pz      :     0.039593  p :     0.069232
      px      :     0.016815
      py      :     0.012823

 28 H s       :     0.886532  s :     0.886532
      pz      :     0.017381  p :     0.067913
      px      :     0.016424
      py      :     0.034108

 29 H s       :     0.887942  s :     0.887942
      pz      :     0.036710  p :     0.068043
      px      :     0.017685
      py      :     0.013648

 30 H s       :     0.896244  s :     0.896244
      pz      :     0.017333  p :     0.068435
      px      :     0.015539
      py      :     0.035563

 31 H s       :     0.888186  s :     0.888186
      pz      :     0.036192  p :     0.069196
      px      :     0.015740
      py      :     0.017263

 32 H s       :     0.886555  s :     0.886555
      pz      :     0.023139  p :     0.067911
      px      :     0.022697
      py      :     0.022076

 33 H s       :     0.887966  s :     0.887966
      pz      :     0.034016  p :     0.068039
      px      :     0.017911
      py      :     0.016112

 34 H s       :     0.896237  s :     0.896237
      pz      :     0.022843  p :     0.068385
      px      :     0.023681
      py      :     0.021861



                      *****************************
                      * MAYER POPULATION ANALYSIS *
                      *****************************

  NA   - Mulliken gross atomic population
  ZA   - Total nuclear charge
  QA   - Mulliken gross atomic charge
  VA   - Mayer's total valence
  BVA  - Mayer's bonded valence
  FA   - Mayer's free valence

  ATOM       NA         ZA         QA         VA         BVA        FA
  0 C      6.0576     6.0000    -0.0576     3.8120     3.8120    -0.0000
  1 C      6.0144     6.0000    -0.0144     3.8589     3.8589    -0.0000
  2 C      6.1187     6.0000    -0.1187     3.7407     3.7407    -0.0000
  3 C      5.9913     6.0000     0.0087     3.8651     3.8651    -0.0000
  4 C      6.0574     6.0000    -0.0574     3.7889     3.7889    -0.0000
  5 C      5.7401     6.0000     0.2599     3.9141     3.9141    -0.0000
  6 F      9.1594     9.0000    -0.1594     1.2269     1.2269    -0.0000
  7 P     14.3653    15.0000     0.6347     4.7216     4.7216    -0.0000
  8 O      8.4530     8.0000    -0.4530     2.1499     2.1499    -0.0000
  9 C      6.1194     6.0000    -0.1194     3.7413     3.7413    -0.0000
 10 C      5.9918     6.0000     0.0082     3.8653     3.8653    -0.0000
 11 C      6.0575     6.0000    -0.0575     3.7880     3.7880    -0.0000
 12 C      5.7400     6.0000     0.2600     3.9139     3.9139    -0.0000
 13 C      6.0576     6.0000    -0.0576     3.8119     3.8119    -0.0000
 14 C      6.0138     6.0000    -0.0138     3.8571     3.8571    -0.0000
 15 F      9.1594     9.0000    -0.1594     1.2269     1.2269    -0.0000
 16 C      6.1189     6.0000    -0.1189     3.7418     3.7418    -0.0000
 17 C      5.9916     6.0000     0.0084     3.8650     3.8650    -0.0000
 18 C      6.0573     6.0000    -0.0573     3.7881     3.7881    -0.0000
 19 C      5.7402     6.0000     0.2598     3.9142     3.9142    -0.0000
 20 C      6.0576     6.0000    -0.0576     3.8122     3.8122    -0.0000
 21 C      6.0141     6.0000    -0.0141     3.8582     3.8582    -0.0000
 22 F      9.1594     9.0000    -0.1594     1.2269     1.2269    -0.0000
 23 H      0.9846     1.0000     0.0154     0.9926     0.9926    -0.0000
 24 H      0.9875     1.0000     0.0125     1.0000     1.0000    -0.0000
 25 H      0.9698     1.0000     0.0302     1.0120     1.0120    -0.0000
 26 H      0.9796     1.0000     0.0204     0.9930     0.9930    -0.0000
 27 H      0.9698     1.0000     0.0302     1.0126     1.0126     0.0000
 28 H      0.9796     1.0000     0.0204     0.9930     0.9930    -0.0000
 29 H      0.9846     1.0000     0.0154     0.9927     0.9927    -0.0000
 30 H      0.9878     1.0000     0.0122     1.0002     1.0002     0.0000
 31 H      0.9699     1.0000     0.0301     1.0124     1.0124    -0.0000
 32 H      0.9796     1.0000     0.0204     0.9930     0.9930    -0.0000
 33 H      0.9846     1.0000     0.0154     0.9927     0.9927    -0.0000
 34 H      0.9871     1.0000     0.0129     0.9994     0.9994    -0.0000

  Mayer bond orders larger than 0.100000
B(  0-C ,  1-C ) :   1.3640 B(  0-C ,  5-C ) :   1.3439 B(  0-C , 23-H ) :   0.9787 
B(  1-C ,  2-C ) :   1.3580 B(  1-C , 24-H ) :   0.9643 B(  2-C ,  3-C ) :   1.3676 
B(  2-C ,  7-P ) :   0.8816 B(  3-C ,  4-C ) :   1.3537 B(  3-C , 25-H ) :   0.9708 
B(  4-C ,  5-C ) :   1.3414 B(  4-C , 26-H ) :   0.9809 B(  5-C ,  6-F ) :   1.1071 
B(  7-P ,  8-O ) :   1.8822 B(  7-P ,  9-C ) :   0.8819 B(  7-P , 16-C ) :   0.8825 
B(  9-C , 10-C ) :   1.3692 B(  9-C , 14-C ) :   1.3563 B( 10-C , 11-C ) :   1.3523 
B( 10-C , 27-H ) :   0.9707 B( 11-C , 12-C ) :   1.3419 B( 11-C , 28-H ) :   0.9810 
B( 12-C , 13-C ) :   1.3434 B( 12-C , 15-F ) :   1.1070 B( 13-C , 14-C ) :   1.3643 
B( 13-C , 29-H ) :   0.9788 B( 14-C , 30-H ) :   0.9642 B( 16-C , 17-C ) :   1.3687 
B( 16-C , 21-C ) :   1.3573 B( 17-C , 18-C ) :   1.3525 B( 17-C , 31-H ) :   0.9708 
B( 18-C , 19-C ) :   1.3418 B( 18-C , 32-H ) :   0.9809 B( 19-C , 20-C ) :   1.3437 
B( 19-C , 22-F ) :   1.1070 B( 20-C , 21-C ) :   1.3642 B( 20-C , 33-H ) :   0.9788 
B( 21-C , 34-H ) :   0.9641 

-------
TIMINGS
-------

Total SCF time: 0 days 0 hours 0 min 5 sec 

Total time                  ....       5.460 sec
Sum of individual times     ....       5.372 sec  ( 98.4%)

SCF preparation             ....       0.123 sec  (  2.3%)
Fock matrix formation       ....       4.737 sec  ( 86.8%)
  Startup                   ....       0.024 sec  (  0.5% of F)
  Split-RI-J                ....       1.755 sec  ( 37.0% of F)
  XC integration            ....       2.870 sec  ( 60.6% of F)
    Basis function eval.    ....       0.882 sec  ( 30.7% of XC)
    Density eval.           ....       0.860 sec  ( 30.0% of XC)
    XC-Functional eval.     ....       0.083 sec  (  2.9% of XC)
    XC-Potential eval.      ....       0.602 sec  ( 21.0% of XC)
Diagonalization             ....       0.000 sec  (  0.0%)
Density matrix formation    ....       0.058 sec  (  1.1%)
Total Energy calculation    ....       0.024 sec  (  0.4%)
Population analysis         ....       0.088 sec  (  1.6%)
Orbital Transformation      ....       0.054 sec  (  1.0%)
Orbital Orthonormalization  ....       0.000 sec  (  0.0%)
DIIS solution               ....       0.053 sec  (  1.0%)
SOSCF solution              ....       0.235 sec  (  4.3%)
Finished LeanSCF after   5.5 sec

Maximum memory used throughout the entire LEANSCF-calculation: 39.1 MB


-------------------------------------------------------------------------------
                          DFT DISPERSION CORRECTION                            
                                                                               
                              DFTD3 V3.1  Rev 1                                
                          USING Becke-Johnson damping                          
-------------------------------------------------------------------------------
The BP86 functional is recognized
Active option DFTDOPT                   ...         4   

molecular C6(AA) [au] = 18075.729567 


            DFT-D V3
 parameters
 s6 scaling factor         :     1.0000 
 a1 scaling factor         :     0.3946 
 s8 scaling factor         :     3.2822 
 a2 scaling factor         :     4.8516 
 ad hoc parameters k1-k3   :    16.0000     1.3333    -4.0000 

 Edisp/kcal,au: -53.787651798844  -0.085716070091 
 E6   /kcal   : -19.363391065 
 E8   /kcal   : -34.424260733 
 % E8         :  64.000304126 

-------------------------   ----------------
Dispersion correction           -0.085716070
-------------------------   ----------------


-------------------------   --------------------
FINAL SINGLE POINT ENERGY     -1408.504074539209
-------------------------   --------------------

                                *** OPTIMIZATION RUN DONE ***



           ************************************************************
           *        Program running with 6 parallel MPI-processes     *
           *              working on a common directory               *
           ************************************************************

------------------------------------------------------------------------------
                              ORCA PROPERTY CALCULATIONS
------------------------------------------------------------------------------

GBWName                                 ... data/geom_opt_PO_BP86/140387/140387.gbw
Number of atoms                         ...     35
Number of basis functions               ...    386
Max core memory                         ...   1024 MB

Electric properties:
Dipole moment                           ... YES
Quadrupole moment                       ...  NO
Static polarizability (Dipole/Dipole)   ...  NO
Static polarizability (Dipole/Quad.)    ...  NO
Static polarizability (Quad./Quad.)     ...  NO
Static polarizability (Velocity)        ...  NO

Atomic electric properties:
Dipole moment                           ...  NO
Quadrupole moment                       ...  NO
Static polarizability                   ...  NO

Choice of electric origin               ... Center of mass
Position of electric origin             ...    -0.003970    -0.011678    -0.091623

General magnetic properties:
Magnetizability                         ...  NO

EPR properties:
g-Tensor (aka g-matrix)                 ...  NO
Zero-Field splitting spin-orbit         ...  NO
Zero-field splitting spin-spin          ...  NO
Hyperfine couplings                     ...  NO (   0 nuclei)
Quadrupole couplings                    ...  NO (   0 nuclei)
Contact density                         ...  NO (   0 nuclei)

NMR properties:
Chemical shifts                         ...  NO (   0 nuclei)
Spin-rotation constants                 ...  NO (   0 nuclei)
Spin-spin couplings                     ...  NO (   0 nuclei,    0 pairs)

Choice of magnetic origin               ... GIAO
Position of magnetic origin             ...     0.000000     0.000000     0.000000

Properties with geometric perturbations:
SCF Hessian                             ...  NO
IR spectrum                             ...  NO
VCD spectrum                            ...  NO
X-ray spectroscopy properties:
SCF XES/XAS/RIXS spectra                ...  NO


-------------
DIPOLE MOMENT
-------------

Method             : SCF
Type of density    : Electron Density
Multiplicity       :   1
Irrep              :   0
Energy             : -1408.4183584691181750 Eh
Relativity type    : 
Basis              : AO
                                X                 Y                 Z
Electronic contribution:      0.070531824       0.239586555       1.981246133
Nuclear contribution   :     -0.030982412      -0.117780113      -1.001364095
                        -----------------------------------------
Total Dipole Moment    :      0.039549412       0.121806442       0.979882038
                        -----------------------------------------
Magnitude (a.u.)       :      0.988215449
Magnitude (Debye)      :      2.511844051



--------------------
Rotational spectrum 
--------------------
 
Rotational constants in cm-1:             0.006796             0.006780             0.004106 
Rotational constants in MHz :           203.737256           203.265627           123.096838 

Dipole components along the rotational axes: 
x,y,z [a.u.] :    -0.000462    -0.000161     0.988215 
x,y,z [Debye]:    -0.001175    -0.000409     2.511844 

 

Dipole moment calculation done in   0.0 sec 

Maximum memory used throughout the entire PROP-calculation: 20.2 MB

--------------------------------
SUGGESTED CITATIONS FOR THIS RUN
--------------------------------

Below you find a list of papers that are relevant to this ORCA run
We neither can nor want to force you to cite these papers, but we appreciate if you do
You receive ORCA, which is the product of decades of hard work by many enthusiastic individuals, for free
The only thing we kindly ask in return is that you cite our papers,
We deeply appreciate it, if you show your appreciation for ORCA by not just citing the generic ORCA reference.

Please note that relegating all ORCA citations to the supporting information does *not* help us.
SI sections are not indexed - citations you put there will not count into any citation statistics
But we need these citations in order to attract the funding resources that allow us to do what we are doing

Therefore, if you are a happy ORCA user, please consider citing a few of the papers listed below in the main body of your paper

In addition to the list printed below, the program has created the file data/geom_opt_PO_BP86/140387/140387.bibtex that contains the list in bibtex format
You can import this file easily into all common literature databanks and citation aid programs


List of essential papers. We consider these as the minimum necessary citations

  1. Neese,F.
     Software update: the ORCA program system, version 5.0
     WIRES Comput. Molec. Sci., 2022 12(1)e1606
     doi.org/10.1002/wcms.1606

List of papers to cite with high priority. The work reported in these papers was absolutely
necessary for this run to complete.
Our perspective: the developers of density functionals and basis sets usually get cited in chemistry papers
Good! But without the algorithms to do something with them, the functionals or basis sets would not do anything.
Hence, in our opinion, the algorithm design and method developments papers are equally worthy of getting cited

  1. Neese,F.
     An improvement of the resolution of the identity approximation for the formation of the Coulomb matrix
     J. Comp. Chem., 2003 24(14)1740-1747
     doi.org/10.1002/jcc.10318
  2. Neese,F.
     The SHARK Integral Generation and Digestion System
     J. Comp. Chem., 2022  1-16
     doi.org/10.1002/jcc.26942
  3. Grimme,S.; Antony,J.; Ehrlich,S.; Krieg,H.
     A consistent and accurate ab initio parametrization of density functional dispersion correction (DFT-D) for the 94 elements H-Pu
     J. Chem. Phys., 2010 132 154104-XXXX
     doi.org/10.1063/1.3382344
  4. Grimme,S.; Ehrlich,S.; Goerigk,L.
     Effect of the damping function in dispersion corrected density functional theory
     J. Comput. Chem., 2011 32(7)1456-1465
     doi.org/10.1002/jcc.21759

List of suggested additional citations. These are papers that are important in the 'surrounding' of 
of this run, or papers that preceded the highly important papers. If you like your results we are grateful for a citation.

  1. Neese,F.
     The ORCA program system
     WIRES Comput. Molec. Sci., 2012 2(1)73-78
     doi.org/10.1002/wcms.81
  2. Neese,F.
     Software update: the ORCA program system, version 4.0
     WIRES Comput. Molec. Sci., 2018 8(1)1-6
     doi.org/10.1002/wcms.1327
  3. Neese,F.; Wennmohs,F.; Becker,U.; Riplinger,C.
     The ORCA quantum chemistry program package
     J. Chem. Phys., 2020 152 Art. No. L224108
     doi.org/10.1063/5.0004608

List of optional additional citations

  1. Neese,F.
     Approximate second-order SCF convergence for spin unrestricted wavefunctions
     Chem. Phys. Lett., 2000 325(1-3)93-98
     doi.org/10.1016/s0009-2614(00)00662-x

Timings for individual modules:

Sum of individual times          ...      137.911 sec (=   2.299 min)
Startup calculation              ...       11.598 sec (=   0.193 min)   8.4 %
SCF iterations                   ...       85.627 sec (=   1.427 min)  62.1 %
Property calculations            ...        0.188 sec (=   0.003 min)   0.1 %
SCF Gradient evaluation          ...       40.379 sec (=   0.673 min)  29.3 %
Geometry relaxation              ...        0.119 sec (=   0.002 min)   0.1 %
                             ****ORCA TERMINATED NORMALLY****
TOTAL RUN TIME: 0 days 0 hours 2 minutes 19 seconds 413 msec
