
                                 *****************
                                 * O   R   C   A *
                                 *****************

                                            #,                                       
                                            ###                                      
                                            ####                                     
                                            #####                                    
                                            ######                                   
                                           ########,                                 
                                     ,,################,,,,,                         
                               ,,#################################,,                 
                          ,,##########################################,,             
                       ,#########################################, ''#####,          
                    ,#############################################,,   '####,        
                  ,##################################################,,,,####,       
                ,###########''''           ''''###############################       
              ,#####''   ,,,,##########,,,,          '''####'''          '####       
            ,##' ,,,,###########################,,,                        '##       
           ' ,,###''''                  '''############,,,                           
         ,,##''                                '''############,,,,        ,,,,,,###''
      ,#''                                            '''#######################'''  
     '                                                          ''''####''''         
             ,#######,   #######,   ,#######,      ##                                
            ,#'     '#,  ##    ##  ,#'     '#,    #''#        ,####,   ,####,        
            ##       ##  ##   ,#'  ##            #'  '#       #'       #'  '#        
            ##       ##  #######   ##           ,######,      #####,   #    #        
            '#,     ,#'  ##    ##  '#,     ,#' ,#      #,     #,   #   #,  ,#        
             '#######'   ##     ##  '#######'  #'      '#     '####' # '####'        



                #########################################################
                #                        -***-                          #
                #          Department of theory and spectroscopy        #
                #                                                       #
                #                      Frank Neese                      #
                #                                                       #
                #     Directorship, Architecture, Infrastructure        #
                #                    SHARK, DRIVERS                     #
                #        Core code/Algorithms in most modules           #
                #                                                       #
                #        Max Planck Institute fuer Kohlenforschung      #
                #                Kaiser Wilhelm Platz 1                 #
                #                 D-45470 Muelheim/Ruhr                 #
                #                      Germany                          #
                #                                                       #
                #                  All rights reserved                  #
                #                        -***-                          #
                #########################################################


                         Program Version 6.0.0  -   RELEASE   -


 With contributions from (in alphabetic order):
   Daniel Aravena         : Magnetic Suceptibility
   Michael Atanasov       : Ab Initio Ligand Field Theory (pilot matlab implementation)
   Alexander A. Auer      : GIAO ZORA, VPT2 properties, NMR spectrum
   Ute Becker             : All parallelization in ORCA, NUMFREQ, NUMCALC
   Giovanni Bistoni       : ED, misc. LED, open-shell LED, HFLD
   Martin Brehm           : Molecular dynamics
   Dmytro Bykov           : pre 5.0 version of the SCF Hessian
   Marcos Casanova-Páez   : Triplet and SCS-CIS(D). UHF-(DLPNO)-IP/EA/STEOM-CCSD. UHF-CVS-IP/STEOM-CCSD
   Vijay G. Chilkuri      : MRCI spin determinant printing, contributions to CSF-ICE
   Pauline Colinet        : FMM embedding
   Dipayan Datta          : RHF DLPNO-CCSD density
   Achintya Kumar Dutta   : EOM-CC, STEOM-CC
   Nicolas Foglia         : Exact transition moments, OPA infrastructure, MCD improvements
   Dmitry Ganyushin       : Spin-Orbit,Spin-Spin,Magnetic field MRCI
   Miquel Garcia          : C-PCM and meta-GGA Hessian, CCSD/C-PCM, Gaussian charge scheme
   Tiago L. C. Gouveia    : GS-ROHF, GS-ROCIS
   Yang Guo               : DLPNO-NEVPT2, F12-NEVPT2, CIM, IAO-localization
   Andreas Hansen         : Spin unrestricted coupled pair/coupled cluster methods
   Ingolf Harden          : AUTO-CI MPn and infrastructure 
   Benjamin Helmich-Paris : MC-RPA, TRAH-(SCF,CASSCF), AVAS, COSX integrals, SCF dyn. polar.
   Lee Huntington         : MR-EOM, pCC
   Robert Izsak           : Overlap fitted RIJCOSX, COSX-SCS-MP3, EOM
   Riya Kayal             : Wick's Theorem for AUTO-CI, AUTO-CI UHF-CCSDT
   Emily Kempfer          : AUTO-CI, RHF CISDT and CCSDT
   Christian Kollmar      : KDIIS, OOCD, Brueckner-CCSD(T), CCSD density, CASPT2, CASPT2-K, improved NEVPT2
   Axel Koslowski         : Symmetry handling
   Simone Kossmann        : Meta GGA functionals, TD-DFT gradient, OOMP2, (MP2 Hessian; deprecated post 5.0)
   Lucas Lang             : DCDCAS
   Marvin Lechner         : AUTO-CI (C++ implementation), FIC-MRCC
   Spencer Leger          : CASSCF response
   Dagmar Lenk            : GEPOL surface, SMD, ORCA-2-JSON
   Dimitrios Liakos       : Extrapolation schemes; Compound Job, initial MDCI parallelization
   Dimitrios Manganas     : Further ROCIS development; embedding schemes. LFT, Crystal Embedding
   Dimitrios Pantazis     : SARC Basis sets
   Anastasios Papadopoulos: AUTO-CI, single reference methods and gradients
   Taras Petrenko         : pre 6.0 DFT Hessian and TD-DFT gradient, (ASA, deprecated), ECA, 1-Electron XAS/XES, NRVS
   Peter Pinski           : DLPNO-MP2, DLPNO-MP2 Gradient
   Christoph Reimann      : Effective Core Potentials
   Marius Retegan         : Local ZFS, SOC
   Christoph Riplinger    : Optimizer, TS searches, QM/MM, DLPNO-CCSD(T), (RO)-DLPNO pert. Triples
   Michael Roemelt        : Original ROCIS implementation
   Masaaki Saitow         : Open-shell DLPNO-CCSD energy and density
   Barbara Sandhoefer     : DKH picture change effects
   Kantharuban Sivalingam : CASSCF convergence/infrastructure, NEVPT2 and variants, FIC-MRCI
   Bernardo de Souza      : ESD, SOC TD-DFT
   Georgi Stoychev        : AutoAux, RI-MP2 NMR, DLPNO-MP2 response, X2C
   Van Anh Tran           : RI-MP2 g-tensors
   Willem Van den Heuvel  : Paramagnetic NMR
   Zikuan Wang            : NOTCH, Electric field optimization 
   Frank Wennmohs         : Technical directorship and infrastructure
   Hang Xu                : AUTO-CI-Response properties 


 We gratefully acknowledge several colleagues who have allowed us to
 interface, adapt or use parts of their codes:
   Stefan Grimme, W. Hujo, H. Kruse, P. Pracht,  : VdW corrections, initial TS optimization,
                  C. Bannwarth, S. Ehlert,         DFT functionals, gCP, sTDA/sTD-DF
                  L. Wittmann, M. Mueller
   Ed Valeev, F. Pavosevic, A. Kumar             : LibInt (2-el integral package), F12 methods
   Garnet Chan, S. Sharma, J. Yang, R. Olivares  : DMRG
   Ulf Ekstrom                                   : XCFun DFT Library
   Mihaly Kallay                                 : mrcc  (arbitrary order and MRCC methods)
   Frank Weinhold                                : gennbo (NPA and NBO analysis)
   Simon Mueller                                 : openCOSMO-RS
   Christopher J. Cramer and Donald G. Truhlar   : smd solvation model
   Lars Goerigk                                  : TD-DFT with DH, B97 family of functionals
   V. Asgeirsson, H. Jonsson                     : NEB implementation
   FAccTs GmbH                                   : IRC, NEB, NEB-TS, DLPNO-Multilevel, CI-OPT
                                                   MM, QMMM, 2- and 3-layer-ONIOM, Crystal-QMMM,
                                                   LR-CPCM, SF, NACMEs, symmetry and pop. for TD-DFT,
                                                   nearIR, NL-DFT gradient (VV10), updates on ESD,
                                                   ML-optimized integration grids, MBIS, APM,
                                                   GOAT, DOCKER, SOLVATOR, interface openCOSMO-RS
   S Lehtola, MJT Oliveira, MAL Marques          : LibXC Library
   Liviu Ungur et al                             : ANISO software


 Your calculation uses the libint2 library for the computation of 2-el integrals
 For citations please refer to: http://libint.valeyev.net

 Your ORCA version has been built with support for libXC version: 6.2.2
 For citations please refer to: https://libxc.gitlab.io

 This ORCA versions uses:
   CBLAS   interface :  Fast vector & matrix operations
   LAPACKE interface :  Fast linear algebra routines
   Shared memory     :  Shared parallel matrices


Your calculation utilizes the atom-pairwise dispersion correction
with the Becke-Johnson damping scheme (D3BJ)


Warning: RI is on but no J-basis has been assigned. Assigning Def2/J (nothing to worry about!)
================================================================================

----- Orbital basis set information -----
Your calculation utilizes the basis: def2-SVP
   F. Weigend and R. Ahlrichs, Phys. Chem. Chem. Phys. 7, 3297 (2005).

----- AuxJ basis set information -----
Your calculation utilizes the auxiliary basis: def2/J
   F. Weigend, Phys. Chem. Chem. Phys. 8, 1057 (2006).

================================================================================
                                        WARNINGS
                       Please study these warnings very carefully!
================================================================================


WARNING: Geometry Optimization
  ===> : Switching off AutoStart
         For restart on a previous wavefunction, please use MOREAD

================================================================================
                                       INPUT FILE
================================================================================
NAME = data/geom_opt/316378/316378.inp
|  1> ! RIJONX B3LYP def2-SVP D3BJ TIGHTSCF Opt
|  2> %pal
|  3> nprocs 6
|  4> end
|  5> 
|  6> * xyz 0 1
|  7> C     -0.282006    1.590062    1.757346
|  8> C     -0.518453    1.760599    0.250647
|  9> C      0.449281    2.869138   -0.242495
| 10> C     -1.946174    2.291638    0.027055
| 11> P     -0.197593    0.250440   -0.786035
| 12> C      1.427919   -0.368711   -0.299506
| 13> C      2.475281   -0.236849   -1.227049
| 14> C      3.764166   -0.693828   -0.937263
| 15> C      4.029435   -1.293487    0.289065
| 16> C      3.006232   -1.433865    1.221442
| 17> C      1.717511   -0.975312    0.927166
| 18> C     -1.451988   -1.093082   -0.535420
| 19> C     -1.945547   -1.301741    0.897861
| 20> C     -2.680192   -0.786155   -1.427375
| 21> C     -0.878143   -2.437890   -1.046638
| 22> H      0.768721    1.389515    1.989776
| 23> H     -0.878943    0.789023    2.196258
| 24> H     -0.544034    2.509122    2.296525
| 25> H      0.278630    3.808638    0.297300
| 26> H      1.499918    2.597376   -0.085751
| 27> H      0.316819    3.080262   -1.310921
| 28> H     -2.080140    3.271195    0.502480
| 29> H     -2.175726    2.416730   -1.037804
| 30> H     -2.702885    1.632806    0.461715
| 31> H      2.296531    0.226858   -2.195819
| 32> H      4.556596   -0.580121   -1.672034
| 33> H      5.029977   -1.649872    0.517754
| 34> H      3.207565   -1.900039    2.182402
| 35> H      0.951874   -1.097453    1.685068
| 36> H     -1.136850   -1.537420    1.592625
| 37> H     -2.651827   -2.140211    0.946652
| 38> H     -2.481531   -0.430300    1.282629
| 39> H     -2.398366   -0.661999   -2.480384
| 40> H     -3.410881   -1.603253   -1.383243
| 41> H     -3.206527    0.121293   -1.119249
| 42> H     -0.055646   -2.800603   -0.421074
| 43> H     -1.645885   -3.221465   -1.037677
| 44> H     -0.507120   -2.361038   -2.076030
| 45> **                         ****END OF INPUT****
================================================================================

                       *****************************
                       * Geometry Optimization Run *
                       *****************************

Geometry optimization settings:
Update method            Update   .... BFGS
Choice of coordinates    CoordSys .... (2022) Redundant Internals
Initial Hessian          InHess   .... Almloef's Model
Max. no of cycles        MaxIter  .... 114

Convergence Tolerances:
Energy Change            TolE     ....  5.0000e-06 Eh
Max. Gradient            TolMAXG  ....  3.0000e-04 Eh/bohr
RMS Gradient             TolRMSG  ....  1.0000e-04 Eh/bohr
Max. Displacement        TolMAXD  ....  4.0000e-03 bohr
RMS Displacement         TolRMSD  ....  2.0000e-03 bohr
Strict Convergence                .... False

------------------------------------------------------------------------------
                        ORCA OPTIMIZATION COORDINATE SETUP
------------------------------------------------------------------------------

The optimization will be done in redundant internal coordinates (2022)
Making redundant internal coordinates   ...  (2022 redundants) done
Evaluating the initial hessian          ...  (Almloef) done
Evaluating the coordinates              ...  done
Calculating the B-matrix                .... done
Calculating the G-matrix                .... done
Diagonalizing the G-matrix              .... done
Small eigenvalue found = 8.284e-03
Small eigenvalue found = 8.595e-03
Small eigenvalue found = 1.482e-02
Small eigenvalue found = 2.746e-02
The first mode is                       ....   73
The number of degrees of freedom        ....  108

    -----------------------------------------------------------------
                    Redundant Internal Coordinates


    -----------------------------------------------------------------
         Definition                    Initial Value    Approx d2E/dq
    -----------------------------------------------------------------
      1. B(C   1,C   0)                  1.5346         0.367256   
      2. B(C   2,C   1)                  1.5520         0.344630   
      3. B(C   3,C   1)                  1.5396         0.360623   
      4. B(P   4,C   1)                  1.8596         0.374077   
      5. B(C   5,P   4)                  1.8062         0.455215   
      6. B(C   6,C   5)                  1.4052         0.590784   
      7. B(C   7,C   6)                  1.3979         0.606999   
      8. B(C   8,C   7)                  1.3906         0.623363   
      9. B(C   9,C   8)                  1.3914         0.621605   
     10. B(C  10,C   9)                  1.3992         0.604104   
     11. B(C  10,C   5)                  1.3988         0.604992   
     12. B(C  11,P   4)                  1.8551         0.380372   
     13. B(C  12,C  11)                  1.5302         0.373336   
     14. B(C  13,C  11)                  1.5486         0.348855   
     15. B(C  14,C  11)                  1.5489         0.348492   
     16. B(H  15,C   0)                  1.0947         0.353994   
     17. B(H  16,C   0)                  1.0912         0.358562   
     18. B(H  17,C   0)                  1.0973         0.350585   
     19. B(H  18,C   2)                  1.0969         0.351104   
     20. B(H  19,C   2)                  1.0965         0.351633   
     21. B(H  20,C   2)                  1.0971         0.350814   
     22. B(H  21,C   3)                  1.0970         0.350900   
     23. B(H  22,C   3)                  1.0965         0.351630   
     24. B(H  23,C   3)                  1.0934         0.355584   
     25. B(H  24,C   6)                  1.0888         0.361688   
     26. B(H  25,C   7)                  1.0866         0.364587   
     27. B(H  26,C   8)                  1.0865         0.364815   
     28. B(H  27,C   9)                  1.0869         0.364258   
     29. B(H  28,C  10)                  1.0842         0.367827   
     30. B(H  29,C  12)                  1.0919         0.357603   
     31. B(H  30,C  12)                  1.0974         0.350468   
     32. B(H  31,C  12)                  1.0930         0.356102   
     33. B(H  32,C  13)                  1.0971         0.350805   
     34. B(H  33,C  13)                  1.0970         0.350903   
     35. B(H  34,C  13)                  1.0934         0.355685   
     36. B(H  35,C  14)                  1.0952         0.353328   
     37. B(H  36,C  14)                  1.0970         0.350906   
     38. B(H  37,C  14)                  1.0969         0.351074   
     39. A(C   1,C   0,H  15)          112.1303         0.322506   
     40. A(H  16,C   0,H  17)          106.6537         0.289426   
     41. A(C   1,C   0,H  17)          110.6439         0.321995   
     42. A(H  15,C   0,H  16)          107.7707         0.289865   
     43. A(H  15,C   0,H  17)          106.1604         0.288845   
     44. A(C   1,C   0,H  16)          113.0919         0.323185   
     45. A(C   2,C   1,P   4)          107.1771         0.381366   
     46. A(C   2,C   1,C   3)          106.6023         0.356246   
     47. A(C   3,C   1,P   4)          111.0475         0.384383   
     48. A(C   0,C   1,C   3)          108.8921         0.360120   
     49. A(C   0,C   1,P   4)          115.4986         0.385604   
     50. A(C   0,C   1,C   2)          107.1738         0.357351   
     51. A(C   1,C   2,H  18)          111.0028         0.318743   
     52. A(H  19,C   2,H  20)          107.6138         0.288572   
     53. A(H  18,C   2,H  20)          107.1959         0.288504   
     54. A(C   1,C   2,H  20)          111.8153         0.318700   
     55. A(H  18,C   2,H  19)          106.9185         0.288609   
     56. A(C   1,C   2,H  19)          112.0262         0.318821   
     57. A(H  22,C   3,H  23)          108.0539         0.289182   
     58. A(C   1,C   3,H  23)          112.0986         0.321781   
     59. A(H  21,C   3,H  23)          106.3333         0.289088   
     60. A(H  21,C   3,H  22)          107.0639         0.288582   
     61. A(C   1,C   3,H  22)          111.9952         0.321193   
     62. A(C   1,C   3,H  21)          110.9949         0.321083   
     63. A(C   1,P   4,C   5)          106.4686         0.426829   
     64. A(C   5,P   4,C  11)          108.8986         0.428108   
     65. A(C   1,P   4,C  11)          113.3378         0.413370   
     66. A(C   6,C   5,C  10)          117.7256         0.428429   
     67. A(P   4,C   5,C  10)          124.8344         0.436168   
     68. A(P   4,C   5,C   6)          117.4389         0.434306   
     69. A(C   7,C   6,H  24)          118.3627         0.351908   
     70. A(C   5,C   6,H  24)          120.3245         0.350301   
     71. A(C   5,C   6,C   7)          121.3127         0.428684   
     72. A(C   8,C   7,H  25)          120.1534         0.353974   
     73. A(C   6,C   7,H  25)          119.8686         0.352383   
     74. A(C   6,C   7,C   8)          119.9779         0.432836   
     75. A(C   9,C   8,H  26)          120.2041         0.353842   
     76. A(C   7,C   8,H  26)          120.1815         0.354011   
     77. A(C   7,C   8,C   9)          119.6144         0.434691   
     78. A(C   8,C   9,C  10)          120.2204         0.432244   
     79. A(C  10,C   9,H  27)          119.8111         0.352045   
     80. A(C   8,C   9,H  27)          119.9684         0.353750   
     81. A(C   5,C  10,C   9)          121.1489         0.430146   
     82. A(C   9,C  10,H  28)          117.8060         0.352626   
     83. A(C   5,C  10,H  28)          121.0429         0.352714   
     84. A(C  13,C  11,C  14)          106.0099         0.354917   
     85. A(C  12,C  11,C  14)          108.0746         0.359030   
     86. A(P   4,C  11,C  14)          109.4931         0.383213   
     87. A(C  12,C  11,C  13)          108.1018         0.359094   
     88. A(P   4,C  11,C  13)          108.3566         0.383283   
     89. A(P   4,C  11,C  12)          116.3214         0.387835   
     90. A(H  30,C  12,H  31)          106.1356         0.289098   
     91. A(H  29,C  12,H  31)          108.1363         0.290013   
     92. A(C  11,C  12,H  31)          112.2826         0.323691   
     93. A(H  29,C  12,H  30)          106.4673         0.289289   
     94. A(C  11,C  12,H  30)          110.6973         0.322845   
     95. A(C  11,C  12,H  29)          112.7395         0.323914   
     96. A(H  32,C  13,H  34)          107.4709         0.289089   
     97. A(C  11,C  13,H  34)          112.5794         0.320055   
     98. A(H  32,C  13,H  33)          107.0972         0.288477   
     99. A(C  11,C  13,H  33)          110.9438         0.319348   
    100. A(H  33,C  13,H  34)          106.6307         0.289101   
    101. A(C  11,C  13,H  32)          111.8086         0.319333   
    102. A(H  36,C  14,H  37)          107.1229         0.288512   
    103. A(H  35,C  14,H  37)          107.7714         0.288823   
    104. A(C  11,C  14,H  37)          111.9759         0.319319   
    105. A(H  35,C  14,H  36)          106.5208         0.288801   
    106. A(C  11,C  14,H  36)          110.9878         0.319294   
    107. A(C  11,C  14,H  35)          112.1644         0.319653   
    108. D(C   2,C   1,C   0,H  17)     63.6147         0.010792   
    109. D(C   3,C   1,C   0,H  15)   -169.6503         0.010792   
    110. D(C   3,C   1,C   0,H  16)     68.2380         0.010792   
    111. D(C   3,C   1,C   0,H  17)    -51.3369         0.010792   
    112. D(C   2,C   1,C   0,H  15)    -54.6986         0.010792   
    113. D(C   2,C   1,C   0,H  16)   -176.8104         0.010792   
    114. D(H  18,C   2,C   1,C   0)    -58.2136         0.009594   
    115. D(H  19,C   2,C   1,C   3)    177.7047         0.009594   
    116. D(H  18,C   2,C   1,C   3)     58.2601         0.009594   
    117. D(H  19,C   2,C   1,P   4)    -63.3204         0.009594   
    118. D(H  19,C   2,C   1,C   0)     61.2311         0.009594   
    119. D(H  18,C   2,C   1,P   4)    177.2350         0.009594   
    120. D(H  21,C   3,C   1,P   4)   -170.3859         0.010431   
    121. D(H  21,C   3,C   1,C   2)    -53.9665         0.010431   
    122. D(H  21,C   3,C   1,C   0)     61.3550         0.010431   
    123. D(H  22,C   3,C   1,P   4)    -50.7828         0.010431   
    124. D(H  22,C   3,C   1,C   2)     65.6367         0.010431   
    125. D(H  22,C   3,C   1,C   0)   -179.0419         0.010431   
    126. D(C  11,P   4,C   1,C   0)     70.2923         0.003387   
    127. D(C   5,P   4,C   1,C   3)   -174.0077         0.003387   
    128. D(C   5,P   4,C   1,C   2)     69.9269         0.003387   
    129. D(C  11,P   4,C   1,C   2)   -170.3777         0.003387   
    130. D(C   5,P   4,C   1,C   0)    -49.4031         0.003387   
    131. D(C  10,C   5,P   4,C  11)    -52.0496         0.004090   
    132. D(C  10,C   5,P   4,C   1)     70.4871         0.004090   
    133. D(C   6,C   5,P   4,C   1)   -109.9022         0.004090   
    134. D(C   6,C   5,P   4,C  11)    127.5611         0.004090   
    135. D(H  24,C   6,C   5,P   4)      0.2268         0.024022   
    136. D(C   7,C   6,C   5,C  10)     -0.0558         0.024022   
    137. D(C   7,C   6,C   5,P   4)   -179.6948         0.024022   
    138. D(H  24,C   6,C   5,C  10)    179.8658         0.024022   
    139. D(H  25,C   7,C   6,H  24)      0.0587         0.025432   
    140. D(H  25,C   7,C   6,C   5)    179.9818         0.025432   
    141. D(C   8,C   7,C   6,H  24)   -179.8885         0.025432   
    142. D(C   8,C   7,C   6,C   5)      0.0346         0.025432   
    143. D(H  26,C   8,C   7,H  25)      0.0518         0.026907   
    144. D(H  26,C   8,C   7,C   6)    179.9988         0.026907   
    145. D(C   9,C   8,C   7,H  25)   -179.9725         0.026907   
    146. D(C   9,C   8,C   7,C   6)     -0.0255         0.026907   
    147. D(H  27,C   9,C   8,H  26)      0.0865         0.026746   
    148. D(H  27,C   9,C   8,C   7)   -179.8891         0.026746   
    149. D(C  10,C   9,C   8,H  26)   -179.9849         0.026746   
    150. D(C  10,C   9,C   8,C   7)      0.0395         0.026746   
    151. D(H  28,C  10,C   9,H  27)      0.4067         0.025177   
    152. D(H  28,C  10,C   9,C   8)   -179.5220         0.025177   
    153. D(C   5,C  10,C   9,H  27)    179.8657         0.025177   
    154. D(C   5,C  10,C   9,C   8)     -0.0630         0.025177   
    155. D(H  28,C  10,C   5,C   6)    179.5113         0.025255   
    156. D(H  28,C  10,C   5,P   4)     -0.8791         0.025255   
    157. D(C   9,C  10,C   5,C   6)      0.0698         0.025255   
    158. D(C   9,C  10,C   5,P   4)    179.6795         0.025255   
    159. D(C  14,C  11,P   4,C   1)   -161.4902         0.003453   
    160. D(C  13,C  11,P   4,C   5)   -158.3889         0.003453   
    161. D(C  13,C  11,P   4,C   1)     83.3138         0.003453   
    162. D(C  12,C  11,P   4,C   5)     79.6477         0.003453   
    163. D(C  12,C  11,P   4,C   1)    -38.6497         0.003453   
    164. D(H  30,C  12,C  11,C  14)    -54.2228         0.011130   
    165. D(H  30,C  12,C  11,C  13)     60.1020         0.011130   
    166. D(H  30,C  12,C  11,P   4)   -177.8004         0.011130   
    167. D(H  29,C  12,C  11,C  14)     64.9151         0.011130   
    168. D(H  29,C  12,C  11,C  13)    179.2399         0.011130   
    169. D(H  29,C  12,C  11,P   4)    -58.6625         0.011130   
    170. D(H  32,C  13,C  11,P   4)     55.2463         0.009810   
    171. D(H  33,C  13,C  11,C  14)     57.2818         0.009810   
    172. D(H  33,C  13,C  11,C  12)    -58.4001         0.009810   
    173. D(H  33,C  13,C  11,P   4)    174.7321         0.009810   
    174. D(H  32,C  13,C  11,C  14)    -62.2040         0.009810   
    175. D(H  32,C  13,C  11,C  12)   -177.8859         0.009810   
    176. D(H  36,C  14,C  11,C  13)    -55.5598         0.009792   
    177. D(H  36,C  14,C  11,C  12)     60.1406         0.009792   
    178. D(H  36,C  14,C  11,P   4)   -172.2477         0.009792   
    179. D(H  35,C  14,C  11,C  13)   -174.5819         0.009792   
    180. D(H  35,C  14,C  11,C  12)    -58.8815         0.009792   
    181. D(H  35,C  14,C  11,P   4)     68.7303         0.009792   
    -----------------------------------------------------------------

Number of atoms                         .... 38
Number of degrees of freedom            .... 181


         *************************************************************
         *                GEOMETRY OPTIMIZATION CYCLE   1            *
         *************************************************************
---------------------------------
CARTESIAN COORDINATES (ANGSTROEM)
---------------------------------
  C     -0.282006    1.590062    1.757346
  C     -0.518453    1.760599    0.250647
  C      0.449281    2.869138   -0.242495
  C     -1.946174    2.291638    0.027055
  P     -0.197593    0.250440   -0.786035
  C      1.427919   -0.368711   -0.299506
  C      2.475281   -0.236849   -1.227049
  C      3.764166   -0.693828   -0.937263
  C      4.029435   -1.293487    0.289065
  C      3.006232   -1.433865    1.221442
  C      1.717511   -0.975312    0.927166
  C     -1.451988   -1.093082   -0.535420
  C     -1.945547   -1.301741    0.897861
  C     -2.680192   -0.786155   -1.427375
  C     -0.878143   -2.437890   -1.046638
  H      0.768721    1.389515    1.989776
  H     -0.878943    0.789023    2.196258
  H     -0.544034    2.509122    2.296525
  H      0.278630    3.808638    0.297300
  H      1.499918    2.597376   -0.085751
  H      0.316819    3.080262   -1.310921
  H     -2.080140    3.271195    0.502480
  H     -2.175726    2.416730   -1.037804
  H     -2.702885    1.632806    0.461715
  H      2.296531    0.226858   -2.195819
  H      4.556596   -0.580121   -1.672034
  H      5.029977   -1.649872    0.517754
  H      3.207565   -1.900039    2.182402
  H      0.951874   -1.097453    1.685068
  H     -1.136850   -1.537420    1.592625
  H     -2.651827   -2.140211    0.946652
  H     -2.481531   -0.430300    1.282629
  H     -2.398366   -0.661999   -2.480384
  H     -3.410881   -1.603253   -1.383243
  H     -3.206527    0.121293   -1.119249
  H     -0.055646   -2.800603   -0.421074
  H     -1.645885   -3.221465   -1.037677
  H     -0.507120   -2.361038   -2.076030

----------------------------
CARTESIAN COORDINATES (A.U.)
----------------------------
  NO LB      ZA    FRAG     MASS         X           Y           Z
   0 C     6.0000    0    12.011   -0.532914    3.004782    3.320903
   1 C     6.0000    0    12.011   -0.979734    3.327050    0.473654
   2 C     6.0000    0    12.011    0.849018    5.421885   -0.458249
   3 C     6.0000    0    12.011   -3.677736    4.330568    0.051127
   4 P    15.0000    0    30.974   -0.373397    0.473263   -1.485391
   5 C     6.0000    0    12.011    2.698376   -0.696763   -0.565984
   6 C     6.0000    0    12.011    4.677603   -0.447580   -2.318787
   7 C     6.0000    0    12.011    7.113243   -1.311145   -1.771170
   8 C     6.0000    0    12.011    7.614529   -2.444336    0.546254
   9 C     6.0000    0    12.011    5.680955   -2.709612    2.308191
  10 C     6.0000    0    12.011    3.245625   -1.843073    1.752090
  11 C     6.0000    0    12.011   -2.743860   -2.065626   -1.011797
  12 C     6.0000    0    12.011   -3.676551   -2.459934    1.696711
  13 C     6.0000    0    12.011   -5.064829   -1.485618   -2.697348
  14 C     6.0000    0    12.011   -1.659450   -4.606944   -1.977859
  15 H     1.0000    0     1.008    1.452672    2.625803    3.760132
  16 H     1.0000    0     1.008   -1.660962    1.491037    4.150326
  17 H     1.0000    0     1.008   -1.028075    4.741553    4.339803
  18 H     1.0000    0     1.008    0.526534    7.197283    0.561816
  19 H     1.0000    0     1.008    2.834434    4.908329   -0.162046
  20 H     1.0000    0     1.008    0.598701    5.820852   -2.477282
  21 H     1.0000    0     1.008   -3.930895    6.181663    0.949550
  22 H     1.0000    0     1.008   -4.111526    4.566958   -1.961165
  23 H     1.0000    0     1.008   -5.107712    3.085556    0.872515
  24 H     1.0000    0     1.008    4.339815    0.428699   -4.149497
  25 H     1.0000    0     1.008    8.610719   -1.096270   -3.159686
  26 H     1.0000    0     1.008    9.505279   -3.117806    0.978413
  27 H     1.0000    0     1.008    6.061419   -3.590553    4.124142
  28 H     1.0000    0     1.008    1.798781   -2.073886    3.184317
  29 H     1.0000    0     1.008   -2.148335   -2.905303    3.009625
  30 H     1.0000    0     1.008   -5.011227   -4.044413    1.788913
  31 H     1.0000    0     1.008   -4.689414   -0.813149    2.423818
  32 H     1.0000    0     1.008   -4.532255   -1.250997   -4.687246
  33 H     1.0000    0     1.008   -6.445631   -3.029709   -2.613950
  34 H     1.0000    0     1.008   -6.059458    0.229211   -2.115074
  35 H     1.0000    0     1.008   -0.105156   -5.292373   -0.795715
  36 H     1.0000    0     1.008   -3.110272   -6.087687   -1.960925
  37 H     1.0000    0     1.008   -0.958318   -4.461715   -3.923128

--------------------------------
INTERNAL COORDINATES (ANGSTROEM)
--------------------------------
 C      0   0   0     0.000000000000     0.00000000     0.00000000
 C      1   0   0     1.534643909439     0.00000000     0.00000000
 C      2   1   0     1.551952589946   107.17379672     0.00000000
 C      2   1   3     1.539604837556   108.89214839   245.04835972
 P      2   1   3     1.859634618414   115.49861360   119.33182266
 C      5   2   1     1.806197024354   106.46856191   310.59691380
 C      6   5   2     1.405236906339   117.43894465   250.09780164
 C      7   6   5     1.397866329612   121.31274428   180.30516614
 C      8   7   6     1.390625370913   119.97792442     0.03463239
 C      9   8   7     1.391393988855   119.61440523   359.97448495
 C      6   5   2     1.398768206405   124.83437869    70.48710840
 C      5   2   1     1.855091927300   113.33777087    70.29232451
 C     12   5   2     1.530174333115   116.32138017   321.35033191
 C     12   5   2     1.548635841949   108.35663204    83.31376387
 C     12   5   2     1.548919134239   109.49313623   198.50978804
 H      1   2   3     1.094655211762   112.13028405   305.30138306
 H      1   2   3     1.091164976176   113.09193203   183.18959366
 H      1   2   3     1.097289364947   110.64390826    63.61470560
 H      3   2   1     1.096886801738   111.00275525   301.78644511
 H      3   2   1     1.096476799549   112.02617675    61.23106819
 H      3   2   1     1.097111499482   111.81529201   182.13103490
 H      4   2   1     1.097045001825   110.99486539    61.35496449
 H      4   2   1     1.096479283456   111.99519447   180.95807916
 H      4   2   1     1.093435163759   112.09861991   302.60927066
 H      7   6   5     1.088802579557   120.32451036     0.22676503
 H      8   7   6     1.086629195812   119.86863128   179.98177739
 H      9   8   7     1.086459028546   120.18150796   179.99882660
 H     10   9   8     1.086875014325   119.96839091   180.11086272
 H     11   6   5     1.084220402526   121.04288648   359.12093094
 H     13  12   5     1.091893971293   112.73947010   301.33751782
 H     13  12   5     1.097380490523   110.69734692   182.19957691
 H     13  12   5     1.093039193515   112.28262042    63.78291293
 H     14  12   5     1.097118298404   111.80857399    55.24630908
 H     14  12   5     1.097042929766   110.94378255   174.73213787
 H     14  12   5     1.093358146631   112.57941887   294.14151336
 H     15  12   5     1.095167728466   112.16441079    68.73025833
 H     15  12   5     1.097040500032   110.98784664   187.75234998
 H     15  12   5     1.096910290816   111.97585651   307.41252406

---------------------------
INTERNAL COORDINATES (A.U.)
---------------------------
 C      0   0   0     0.000000000000     0.00000000     0.00000000
 C      1   0   0     2.900056701930     0.00000000     0.00000000
 C      2   1   0     2.932765367828   107.17379672     0.00000000
 C      2   1   3     2.909431497441   108.89214839   245.04835972
 P      2   1   3     3.514200137962   115.49861360   119.33182266
 C      5   2   1     3.413217719933   106.46856191   310.59691380
 C      6   5   2     2.655512906259   117.43894465   250.09780164
 C      7   6   5     2.641584534796   121.31274428   180.30516614
 C      8   7   6     2.627901105908   119.97792442     0.03463239
 C      9   8   7     2.629353583320   119.61440523   359.97448495
 C      6   5   2     2.643288834941   124.83437869    70.48710840
 C      5   2   1     3.505615695845   113.33777087    70.29232451
 C     12   5   2     2.891610426742   116.32138017   321.35033191
 C     12   5   2     2.926497622459   108.35663204    83.31376387
 C     12   5   2     2.927032967303   109.49313623   198.50978804
 H      1   2   3     2.068598561300   112.13028405   305.30138306
 H      1   2   3     2.062002971900   113.09193203   183.18959366
 H      1   2   3     2.073576389414   110.64390826    63.61470560
 H      3   2   1     2.072815655197   111.00275525   301.78644511
 H      3   2   1     2.072040863346   112.02617675    61.23106819
 H      3   2   1     2.073240272397   111.81529201   182.13103490
 H      4   2   1     2.073114610037   110.99486539    61.35496449
 H      4   2   1     2.072045557251   111.99519447   180.95807916
 H      4   2   1     2.066293004704   112.09861991   302.60927066
 H      7   6   5     2.057538689269   120.32451036     0.22676503
 H      8   7   6     2.053431589207   119.86863128   179.98177739
 H      9   8   7     2.053110019679   120.18150796   179.99882660
 H     10   9   8     2.053896118877   119.96839091   180.11086272
 H     11   6   5     2.048879629584   121.04288648   359.12093094
 H     13  12   5     2.063380573023   112.73947010   301.33751782
 H     13  12   5     2.073748591797   110.69734692   182.19957691
 H     13  12   5     2.065544729386   112.28262042    63.78291293
 H     14  12   5     2.073253120497   111.80857399    55.24630908
 H     14  12   5     2.073110694412   110.94378255   174.73213787
 H     14  12   5     2.066147463425   112.57941887   294.14151336
 H     15  12   5     2.069567077510   112.16441079    68.73025833
 H     15  12   5     2.073106102880   110.98784664   187.75234998
 H     15  12   5     2.072860043121   111.97585651   307.41252406

---------------------
BASIS SET INFORMATION
---------------------
There are 3 groups of distinct atoms

 Group   1 Type C   : 7s4p1d contracted to 3s2p1d pattern {511/31/1}
 Group   2 Type P   : 10s7p1d contracted to 4s3p1d pattern {5311/511/1}
 Group   3 Type H   : 4s1p contracted to 2s1p pattern {31/1}

Atom   0C    basis set group =>   1
Atom   1C    basis set group =>   1
Atom   2C    basis set group =>   1
Atom   3C    basis set group =>   1
Atom   4P    basis set group =>   2
Atom   5C    basis set group =>   1
Atom   6C    basis set group =>   1
Atom   7C    basis set group =>   1
Atom   8C    basis set group =>   1
Atom   9C    basis set group =>   1
Atom  10C    basis set group =>   1
Atom  11C    basis set group =>   1
Atom  12C    basis set group =>   1
Atom  13C    basis set group =>   1
Atom  14C    basis set group =>   1
Atom  15H    basis set group =>   3
Atom  16H    basis set group =>   3
Atom  17H    basis set group =>   3
Atom  18H    basis set group =>   3
Atom  19H    basis set group =>   3
Atom  20H    basis set group =>   3
Atom  21H    basis set group =>   3
Atom  22H    basis set group =>   3
Atom  23H    basis set group =>   3
Atom  24H    basis set group =>   3
Atom  25H    basis set group =>   3
Atom  26H    basis set group =>   3
Atom  27H    basis set group =>   3
Atom  28H    basis set group =>   3
Atom  29H    basis set group =>   3
Atom  30H    basis set group =>   3
Atom  31H    basis set group =>   3
Atom  32H    basis set group =>   3
Atom  33H    basis set group =>   3
Atom  34H    basis set group =>   3
Atom  35H    basis set group =>   3
Atom  36H    basis set group =>   3
Atom  37H    basis set group =>   3
---------------------------------
AUXILIARY/J BASIS SET INFORMATION
---------------------------------
There are 3 groups of distinct atoms

 Group   1 Type C   : 12s5p4d2f1g contracted to 6s4p3d1f1g pattern {711111/2111/211/2/1}
 Group   2 Type P   : 14s5p5d2f1g contracted to 8s4p3d1f1g pattern {71111111/2111/311/2/1}
 Group   3 Type H   : 5s2p1d contracted to 3s1p1d pattern {311/2/1}

Atom   0C    basis set group =>   1
Atom   1C    basis set group =>   1
Atom   2C    basis set group =>   1
Atom   3C    basis set group =>   1
Atom   4P    basis set group =>   2
Atom   5C    basis set group =>   1
Atom   6C    basis set group =>   1
Atom   7C    basis set group =>   1
Atom   8C    basis set group =>   1
Atom   9C    basis set group =>   1
Atom  10C    basis set group =>   1
Atom  11C    basis set group =>   1
Atom  12C    basis set group =>   1
Atom  13C    basis set group =>   1
Atom  14C    basis set group =>   1
Atom  15H    basis set group =>   3
Atom  16H    basis set group =>   3
Atom  17H    basis set group =>   3
Atom  18H    basis set group =>   3
Atom  19H    basis set group =>   3
Atom  20H    basis set group =>   3
Atom  21H    basis set group =>   3
Atom  22H    basis set group =>   3
Atom  23H    basis set group =>   3
Atom  24H    basis set group =>   3
Atom  25H    basis set group =>   3
Atom  26H    basis set group =>   3
Atom  27H    basis set group =>   3
Atom  28H    basis set group =>   3
Atom  29H    basis set group =>   3
Atom  30H    basis set group =>   3
Atom  31H    basis set group =>   3
Atom  32H    basis set group =>   3
Atom  33H    basis set group =>   3
Atom  34H    basis set group =>   3
Atom  35H    basis set group =>   3
Atom  36H    basis set group =>   3
Atom  37H    basis set group =>   3


           ************************************************************
           *        Program running with 6 parallel MPI-processes     *
           *              working on a common directory               *
           ************************************************************
------------------------------------------------------------------------------
                             ORCA STARTUP CALCULATIONS
                           -- RI-GTO INTEGRALS CHOSEN --
------------------------------------------------------------------------------
------------------------------------------------------------------------------
                   ___                                                        
                  /   \      - P O W E R E D   B Y -                         
                 /     \                                                     
                 |  |  |   _    _      __       _____    __    __             
                 |  |  |  | |  | |    /  \     |  _  \  |  |  /  |          
                  \  \/   | |  | |   /    \    | | | |  |  | /  /          
                 / \  \   | |__| |  /  /\  \   | |_| |  |  |/  /          
                |  |  |   |  __  | /  /__\  \  |    /   |      \           
                |  |  |   | |  | | |   __   |  |    \   |  |\   \          
                \     /   | |  | | |  |  |  |  | |\  \  |  | \   \       
                 \___/    |_|  |_| |__|  |__|  |_| \__\ |__|  \__/        
                                                                              
                      - O R C A' S   B I G   F R I E N D -                    
                                      &                                       
                       - I N T E G R A L  F E E D E R -                       
                                                                              
 v1 FN, 2020, v2 2021, v3 2022-2024                                           
------------------------------------------------------------------------------


----------------------
SHARK INTEGRAL PACKAGE
----------------------

Number of atoms                             ...     38
Number of basis functions                   ...    329
Number of shells                            ...    161
Maximum angular momentum                    ...      2
Integral batch strategy                     ... SHARK/LIBINT Hybrid
RI-J (if used) integral strategy            ... SPLIT-RIJ (Revised 2003 algorithm where possible)
Printlevel                                  ...      1
Contraction scheme used                     ... SEGMENTED contraction
Prescreening option                         ... SCHWARTZ
   Thresh                                   ... 2.500e-11
   Tcut                                     ... 2.500e-12
   Tpresel                                  ... 2.500e-12 
Coulomb Range Separation                    ... NOT USED
Exchange Range Separation                   ... NOT USED
Multipole approximations                    ... NOT USED
Finite Nucleus Model                        ... NOT USED
CABS basis                                  ... NOT available
Auxiliary Coulomb fitting basis             ... AVAILABLE
   # of basis functions in Aux-J            ...    990
   # of shells in Aux-J                     ...    342
   Maximum angular momentum in Aux-J        ...      4
Auxiliary J/K fitting basis                 ... NOT available
Auxiliary Correlation fitting basis         ... NOT available
Auxiliary 'external' fitting basis          ... NOT available

Checking pre-screening integrals            ... done (  0.0 sec) Dimension = 161
Check shell pair data                       ... done (  0.0 sec)
Shell pair information
Shell pair cut-off parameter TPreSel        ...   2.5e-12
Total number of shell pairs                 ...     13041
Shell pairs after pre-screening             ...     11164
Total number of primitive shell pairs       ...     45725
Primitive shell pairs kept                  ...     26265
          la=0 lb=0:   3794 shell pairs
          la=1 lb=0:   4257 shell pairs
          la=1 lb=1:   1224 shell pairs
          la=2 lb=0:   1161 shell pairs
          la=2 lb=1:    639 shell pairs
          la=2 lb=2:     89 shell pairs

Calculating one electron integrals          ... done (  0.0 sec)
Calculating RI/J V-Matrix + Cholesky decomp.... done (  0.0 sec)
Calculating Nuclear repulsion               ... done (  0.0 sec) ENN=   1186.237406961577 Eh

Diagonalization of the overlap matrix:
Smallest eigenvalue                        ... 2.730e-04
Time for diagonalization                   ...    0.012 sec
Threshold for overlap eigenvalues          ... 1.000e-07
Number of eigenvalues below threshold      ... 0
Time for construction of square roots      ...    0.009 sec
Total time needed                          ...    0.022 sec

-------------------
DFT GRID GENERATION
-------------------

General Integration Accuracy     IntAcc      ... 4.388
Radial Grid Type                 RadialGrid  ... OptM3 with GC (2021)
Angular Grid (max. ang.)         AngularGrid ... 4 (Lebedev-302)
Angular grid pruning method      GridPruning ... 4 (adaptive)
Weight generation scheme         WeightScheme... mBecke (2022)
Basis function cutoff            BFCut       ... 1.0000e-11
Integration weight cutoff        WCut        ... 1.0000e-14
Partially contracted basis set               ... off
Rotationally invariant grid construction     ... off
Angular grids for H and He will be reduced by one unit

Total number of grid points                  ...   163131
Total number of batches                      ...     2566
Average number of points per batch           ...       63
Average number of grid points per atom       ...     4293
Initializing property integral containers    ... done (  0.0 sec)

SHARK setup successfully completed in   1.1 seconds

Maximum memory used throughout the entire STARTUP-calculation: 45.2 MB


           ************************************************************
           *        Program running with 6 parallel MPI-processes     *
           *              working on a common directory               *
           ************************************************************
-------------------------------------------------------------------------------
                                 ORCA GUESS
                   Start orbitals & Density for SCF / CASSCF
-------------------------------------------------------------------------------

------------
SCF SETTINGS
------------
Hamiltonian:
 Density Functional     Method          .... DFT(GTOs)
 Exchange Functional    Exchange        .... B88
   X-Alpha parameter    XAlpha          ....  0.666667
   Becke's b parameter  XBeta           ....  0.004200
 Correlation Functional Correlation     .... LYP
 LDA part of GGA corr.  LDAOpt          .... VWN-5
 Gradients option       PostSCFGGA      .... off
 Hybrid DFT is turned on
   Fraction HF Exchange ScalHFX         ....  0.200000
   Scaling of DF-GGA-X  ScalDFX         ....  0.720000
   Scaling of DF-GGA-C  ScalDFC         ....  0.810000
   Scaling of DF-LDA-C  ScalLDAC        ....  1.000000
   Perturbative correction              ....  0.000000
   NL short-range parameter             ....  4.800000
 RI-approximation to the Coulomb term is turned on
   Number of AuxJ basis functions       .... 990
   RIJ-ON(X) (HFX calculated with O(N)) .... on


General Settings:
 Integral files         IntName         .... data/geom_opt/316378/316378
 Hartree-Fock type      HFTyp           .... RHF
 Total Charge           Charge          ....    0
 Multiplicity           Mult            ....    1
 Number of Electrons    NEL             ....  122
 Basis Dimension        Dim             ....  329
 Nuclear Repulsion      ENuc            ....   1186.2374069616 Eh

Convergence Acceleration:
 AO-DIIS                CNVDIIS         .... on
   Start iteration      DIISMaxIt       ....    12
   Startup error        DIISStart       ....  0.200000
   # of expansion vecs  DIISMaxEq       ....     5
   Bias factor          DIISBfac        ....   1.050
   Max. coefficient     DIISMaxC        ....  10.000
 MO-DIIS                CNVKDIIS        .... off
 Trust-Rad. Augm. Hess. CNVTRAH         .... auto
   Auto Start mean grad. ratio tolernc. ....  1.125000
   Auto Start start iteration           ....    50
   Auto Start num. interpolation iter.  ....    10
   Max. Number of Micro iterations      ....    24
   Max. Number of Macro iterations      .... Maxiter - #DIIS iter
   Number of Davidson start vectors     ....     2
   Converg. threshold    (grad. norm)   ....   1.000e-05
   Grad. Scal. Fac. for Micro threshold ....   0.100
   Minimum threshold for Micro iter.    ....   1.000e-02
   NR start threshold (gradient norm)   ....   1.000e-04
   Initial trust radius                 ....   0.400
   Minimum AH scaling param. (alpha)    ....   1.000
   Maximum AH scaling param. (alpha)    .... 1000.000
   Quad. conv. algorithm                .... NR
   White noise on init. David. guess    .... on
   Maximum white noise                  ....   0.010
   Pseudo random numbers                .... off
   Inactive MOs                         .... canonical
   Orbital update algorithm             .... Taylor
   Preconditioner                       .... Diag
   Full preconditioner red. dimension   ....   250
   COSX micro iterations for RIJONX calc.... off
 SOSCF                  CNVSOSCF        .... on
   Start iteration      SOSCFMaxIt      ....   150
   Startup grad/error   SOSCFStart      ....  0.003300
   Hessian update       SOSCFHessUp     .... L-BFGS
 Level Shifting         CNVShift        .... on
   Level shift para.    LevelShift      ....    0.2500
   Turn off err/grad.   ShiftErr        ....    0.0010
 Zerner damping         CNVZerner       .... off
 Static damping         CNVDamp         .... on
   Fraction old density DampFac         ....    0.7000
   Max. Damping (<1)    DampMax         ....    0.9800
   Min. Damping (>=0)   DampMin         ....    0.0000
   Turn off err/grad.   DampErr         ....    0.1000

SCF Procedure:
 Maximum # iterations   MaxIter         ....   125
 SCF integral mode      SCFMode         .... Direct
   Integral package                     .... SHARK and LIBINT hybrid scheme
 Reset frequency        DirectResetFreq ....    20
 Integral Threshold     Thresh          ....  2.500e-11 Eh
 Primitive CutOff       TCut            ....  2.500e-12 Eh

Convergence Tolerance:
 Convergence Check Mode ConvCheckMode   .... Total+1el-Energy
 Convergence forced     ConvForced      .... 0
 Energy Change          TolE            ....  1.000e-08 Eh
 1-El. energy change                    ....  1.000e-05 Eh
 Orbital Gradient       TolG            ....  1.000e-05
 Orbital Rotation angle TolX            ....  1.000e-05
 DIIS Error             TolErr          ....  5.000e-07

------------------------------
INITIAL GUESS: MODEL POTENTIAL
------------------------------
Loading Hartree-Fock densities                     ... done
Calculating cut-offs                               ... done
Initializing the effective Hamiltonian             ... done
Setting up the integral package (SHARK)            ... done
Starting the Coulomb interaction                   ... done (   0.1 sec)
Making the grid                                    ... done (   0.2 sec)
Mapping shells                                     ... done
Starting the XC term evaluation                    ... done (   0.1 sec)
  promolecular density results
     # of electrons  =    121.985391657
     EX              =   -101.467950612
     EC              =     -4.092404845
     EX+EC           =   -105.560355457
Transforming the Hamiltonian                       ... done (   0.0 sec)
Diagonalizing the Hamiltonian                      ... done (   0.0 sec)
Back transforming the eigenvectors                 ... done (   0.0 sec)
Now organizing SCF variables                       ... done
                      ------------------
                      INITIAL GUESS DONE (   0.5 sec)
                      ------------------
             **** ENERGY FILE WAS UPDATED (data/geom_opt/316378/316378.en.tmp) ****
Finished Guess after   0.6 sec
Maximum memory used throughout the entire GUESS-calculation: 25.0 MB


           ************************************************************
           *        Program running with 6 parallel MPI-processes     *
           *              working on a common directory               *
           ************************************************************

-------------------------------------------------------------------------------------------
                                      ORCA LEAN-SCF
                              memory conserving SCF solver
-------------------------------------------------------------------------------------------

----------------------------------------D-I-I-S--------------------------------------------
Iteration    Energy (Eh)           Delta-E    RMSDP     MaxDP     DIISErr   Damp  Time(sec)
-------------------------------------------------------------------------------------------
               ***  Starting incremental Fock matrix formation  ***
    1    -887.3006678218227989     0.00e+00  2.47e-03  8.21e-02  1.70e-01  0.700   4.6
    2    -887.5079678459258048    -2.07e-01  1.78e-03  5.03e-02  8.86e-02  0.700   4.0
                               ***Turning on AO-DIIS***
    3    -887.5938132591311387    -8.58e-02  7.72e-04  3.17e-02  3.34e-02  0.700   3.9
    4    -887.6430286144457114    -4.92e-02  1.41e-03  7.21e-02  1.66e-02  0.000   3.7
    5    -887.7493024320644963    -1.06e-01  2.22e-04  9.88e-03  5.57e-03  0.000   4.0
                              *** Initializing SOSCF ***
---------------------------------------S-O-S-C-F--------------------------------------
Iteration    Energy (Eh)           Delta-E    RMSDP     MaxDP     MaxGrad    Time(sec)
--------------------------------------------------------------------------------------
    6    -887.7499677151715787    -6.65e-04  8.59e-05  3.12e-03  1.61e-03     3.5
               *** Restarting incremental Fock matrix formation ***
    7    -887.7500216724313304    -5.40e-05  5.23e-05  1.23e-03  1.83e-04     4.4
    8    -887.7500215423622194     1.30e-07  1.96e-05  6.64e-04  3.32e-04     3.0
    9    -887.7500273731332072    -5.83e-06  1.21e-05  6.97e-04  1.07e-04     2.8
   10    -887.7500271040405551     2.69e-07  6.47e-06  2.88e-04  1.44e-04     2.6
   11    -887.7500276211592336    -5.17e-07  2.40e-06  1.36e-04  1.17e-05     2.5
   12    -887.7500276007351658     2.04e-08  1.36e-06  7.34e-05  1.23e-05     2.2
   13    -887.7500276258713257    -2.51e-08  3.62e-07  1.89e-05  2.91e-06     2.0
   14    -887.7500276330072211    -7.14e-09  2.10e-07  1.02e-05  5.41e-06     1.7
                 **** Energy Check signals convergence ****

               *****************************************************
               *                     SUCCESS                       *
               *           SCF CONVERGED AFTER  14 CYCLES          *
               *****************************************************

             **** ENERGY FILE WAS UPDATED (data/geom_opt/316378/316378.en.tmp) ****

----------------
TOTAL SCF ENERGY
----------------

Total Energy       :       -887.75002763300722 Eh          -24156.90637 eV

Components:
Nuclear Repulsion  :       1186.23740696157688 Eh           32279.16088 eV
Electronic Energy  :      -2073.98743459458410 Eh          -56436.06725 eV
One Electron Energy:      -3565.80786148628886 Eh          -97030.56485 eV
Two Electron Energy:       1491.82042689170476 Eh           40594.49760 eV

Virial components:
Potential Energy   :      -1768.36117467688609 Eh          -48119.55391 eV
Kinetic Energy     :        880.61114704387899 Eh           23962.64755 eV
Virial Ratio       :          2.00810673429821

DFT components:
N(Alpha)           :       61.000019477075 electrons
N(Beta)            :       61.000019477075 electrons
N(Total)           :      122.000038954149 electrons
E(X)               :      -81.891360018451 Eh       
E(C)               :       -4.824840216378 Eh       
E(XC)              :      -86.716200234829 Eh       

---------------
SCF CONVERGENCE
---------------

  Last Energy change         ...    7.1359e-09  Tolerance :   1.0000e-08
  Last MAX-Density change    ...    1.0245e-05  Tolerance :   1.0000e-07
  Last RMS-Density change    ...    2.0973e-07  Tolerance :   5.0000e-09
  Last DIIS Error            ...    1.6115e-03  Tolerance :   5.0000e-07
  Last Orbital Gradient      ...    5.4078e-06  Tolerance :   1.0000e-05
  Last Orbital Rotation      ...    8.1908e-06  Tolerance :   1.0000e-05


----------------
ORBITAL ENERGIES
----------------

  NO   OCC          E(Eh)            E(eV) 
   0   2.0000     -77.022913     -2095.9000 
   1   2.0000     -10.195671      -277.4383 
   2   2.0000     -10.195565      -277.4354 
   3   2.0000     -10.190077      -277.2861 
   4   2.0000     -10.189882      -277.2808 
   5   2.0000     -10.188665      -277.2477 
   6   2.0000     -10.188505      -277.2433 
   7   2.0000     -10.187620      -277.2192 
   8   2.0000     -10.186402      -277.1861 
   9   2.0000     -10.175238      -276.8823 
  10   2.0000     -10.173820      -276.8437 
  11   2.0000     -10.172730      -276.8141 
  12   2.0000     -10.170950      -276.7656 
  13   2.0000     -10.170756      -276.7603 
  14   2.0000     -10.169124      -276.7159 
  15   2.0000      -6.520991      -177.4452 
  16   2.0000      -4.686642      -127.5300 
  17   2.0000      -4.686081      -127.5147 
  18   2.0000      -4.683122      -127.4342 
  19   2.0000      -0.848274       -23.0827 
  20   2.0000      -0.810559       -22.0564 
  21   2.0000      -0.791999       -21.5514 
  22   2.0000      -0.743521       -20.2322 
  23   2.0000      -0.736954       -20.0535 
  24   2.0000      -0.678828       -18.4718 
  25   2.0000      -0.675943       -18.3933 
  26   2.0000      -0.669133       -18.2080 
  27   2.0000      -0.668114       -18.1803 
  28   2.0000      -0.636081       -17.3087 
  29   2.0000      -0.598375       -16.2826 
  30   2.0000      -0.581516       -15.8239 
  31   2.0000      -0.544093       -14.8055 
  32   2.0000      -0.525191       -14.2912 
  33   2.0000      -0.491617       -13.3776 
  34   2.0000      -0.457357       -12.4453 
  35   2.0000      -0.454550       -12.3689 
  36   2.0000      -0.452231       -12.3058 
  37   2.0000      -0.443481       -12.0677 
  38   2.0000      -0.434407       -11.8208 
  39   2.0000      -0.430477       -11.7139 
  40   2.0000      -0.423651       -11.5281 
  41   2.0000      -0.421046       -11.4572 
  42   2.0000      -0.415302       -11.3009 
  43   2.0000      -0.391257       -10.6467 
  44   2.0000      -0.383631       -10.4391 
  45   2.0000      -0.379775       -10.3342 
  46   2.0000      -0.374398       -10.1879 
  47   2.0000      -0.372853       -10.1458 
  48   2.0000      -0.367027        -9.9873 
  49   2.0000      -0.359621        -9.7858 
  50   2.0000      -0.358760        -9.7624 
  51   2.0000      -0.346392        -9.4258 
  52   2.0000      -0.338376        -9.2077 
  53   2.0000      -0.333021        -9.0620 
  54   2.0000      -0.325755        -8.8642 
  55   2.0000      -0.322111        -8.7651 
  56   2.0000      -0.304768        -8.2932 
  57   2.0000      -0.295927        -8.0526 
  58   2.0000      -0.254609        -6.9283 
  59   2.0000      -0.254350        -6.9212 
  60   2.0000      -0.190923        -5.1953 
  61   0.0000      -0.021108        -0.5744 
  62   0.0000      -0.009388        -0.2555 
  63   0.0000       0.051939         1.4133 
  64   0.0000       0.060342         1.6420 
  65   0.0000       0.074534         2.0282 
  66   0.0000       0.077331         2.1043 
  67   0.0000       0.091491         2.4896 
  68   0.0000       0.094287         2.5657 
  69   0.0000       0.097295         2.6475 
  70   0.0000       0.106328         2.8933 
  71   0.0000       0.113521         3.0891 
*Only the first 10 virtual orbitals were printed.

                    ********************************
                    * MULLIKEN POPULATION ANALYSIS *
                    ********************************

-----------------------
MULLIKEN ATOMIC CHARGES
-----------------------
   0 C :    0.103656
   1 C :   -0.388426
   2 C :    0.088364
   3 C :    0.086322
   4 P :    0.238368
   5 C :   -0.114947
   6 C :    0.030336
   7 C :    0.024971
   8 C :    0.028369
   9 C :    0.021573
  10 C :    0.027380
  11 C :   -0.392772
  12 C :    0.111466
  13 C :    0.103683
  14 C :    0.089116
  15 H :    0.011524
  16 H :   -0.011874
  17 H :   -0.009390
  18 H :   -0.000389
  19 H :    0.011073
  20 H :    0.008879
  21 H :   -0.000930
  22 H :    0.016755
  23 H :    0.009111
  24 H :   -0.020749
  25 H :   -0.020018
  26 H :   -0.019403
  27 H :   -0.024944
  28 H :   -0.024529
  29 H :   -0.001808
  30 H :   -0.009563
  31 H :    0.008357
  32 H :    0.009192
  33 H :   -0.003326
  34 H :   -0.006964
  35 H :    0.009544
  36 H :    0.001240
  37 H :    0.010755
Sum of atomic charges:   -0.0000000

--------------------------------
MULLIKEN REDUCED ORBITAL CHARGES
--------------------------------
  0 C s       :     2.951627  s :     2.951627
      pz      :     0.931542  p :     2.915408
      px      :     0.997768
      py      :     0.986098
      dz2     :     0.006716  d :     0.029309
      dxz     :     0.004630
      dyz     :     0.007871
      dx2y2   :     0.005776
      dxy     :     0.004316

  1 C s       :     3.268366  s :     3.268366
      pz      :     1.017628  p :     3.073200
      px      :     1.019720
      py      :     1.035852
      dz2     :     0.011906  d :     0.046860
      dxz     :     0.007923
      dyz     :     0.009464
      dx2y2   :     0.009022
      dxy     :     0.008545

  2 C s       :     2.975126  s :     2.975126
      pz      :     0.989459  p :     2.907814
      px      :     0.975506
      py      :     0.942849
      dz2     :     0.008077  d :     0.028695
      dxz     :     0.001886
      dyz     :     0.005824
      dx2y2   :     0.008287
      dxy     :     0.004621

  3 C s       :     2.971314  s :     2.971314
      pz      :     0.989832  p :     2.913215
      px      :     0.944040
      py      :     0.979343
      dz2     :     0.007211  d :     0.029150
      dxz     :     0.004520
      dyz     :     0.004340
      dx2y2   :     0.006076
      dxy     :     0.007004

  4 P s       :     5.657160  s :     5.657160
      pz      :     3.391116  p :     8.936195
      px      :     2.751356
      py      :     2.793723
      dz2     :     0.017009  d :     0.168277
      dxz     :     0.024269
      dyz     :     0.032298
      dx2y2   :     0.040301
      dxy     :     0.054400

  5 C s       :     3.080271  s :     3.080271
      pz      :     0.991447  p :     2.997090
      px      :     0.998516
      py      :     1.007127
      dz2     :     0.009395  d :     0.037586
      dxz     :     0.011786
      dyz     :     0.006320
      dx2y2   :     0.005234
      dxy     :     0.004851

  6 C s       :     3.222231  s :     3.222231
      pz      :     0.873447  p :     2.712287
      px      :     0.910841
      py      :     0.927999
      dz2     :     0.007865  d :     0.035147
      dxz     :     0.009793
      dyz     :     0.004242
      dx2y2   :     0.006458
      dxy     :     0.006790

  7 C s       :     3.159050  s :     3.159050
      pz      :     0.904350  p :     2.780945
      px      :     0.894193
      py      :     0.982401
      dz2     :     0.007647  d :     0.035035
      dxz     :     0.011579
      dyz     :     0.004755
      dx2y2   :     0.005849
      dxy     :     0.005205

  8 C s       :     3.159819  s :     3.159819
      pz      :     0.960852  p :     2.776191
      px      :     0.856884
      py      :     0.958455
      dz2     :     0.009773  d :     0.035621
      dxz     :     0.009912
      dyz     :     0.006038
      dx2y2   :     0.005116
      dxy     :     0.004781

  9 C s       :     3.162429  s :     3.162429
      pz      :     0.856148  p :     2.780906
      px      :     0.963251
      py      :     0.961507
      dz2     :     0.007794  d :     0.035092
      dxz     :     0.010041
      dyz     :     0.004306
      dx2y2   :     0.006339
      dxy     :     0.006613

 10 C s       :     3.198022  s :     3.198022
      pz      :     0.911749  p :     2.739057
      px      :     0.862411
      py      :     0.964897
      dz2     :     0.007650  d :     0.035540
      dxz     :     0.011995
      dyz     :     0.004611
      dx2y2   :     0.005808
      dxy     :     0.005477

 11 C s       :     3.266876  s :     3.266876
      pz      :     1.021871  p :     3.079117
      px      :     1.029868
      py      :     1.027378
      dz2     :     0.010882  d :     0.046779
      dxz     :     0.010834
      dyz     :     0.008163
      dx2y2   :     0.006308
      dxy     :     0.010592

 12 C s       :     2.948338  s :     2.948338
      pz      :     0.950751  p :     2.910428
      px      :     0.974763
      py      :     0.984914
      dz2     :     0.006644  d :     0.029768
      dxz     :     0.008128
      dyz     :     0.004430
      dx2y2   :     0.002095
      dxy     :     0.008471

 13 C s       :     2.963847  s :     2.963847
      pz      :     0.980746  p :     2.903583
      px      :     0.935455
      py      :     0.987381
      dz2     :     0.008979  d :     0.028887
      dxz     :     0.005018
      dyz     :     0.002005
      dx2y2   :     0.003019
      dxy     :     0.009866

 14 C s       :     2.971707  s :     2.971707
      pz      :     0.993231  p :     2.910423
      px      :     0.986475
      py      :     0.930717
      dz2     :     0.007061  d :     0.028754
      dxz     :     0.005892
      dyz     :     0.003244
      dx2y2   :     0.003818
      dxy     :     0.008739

 15 H s       :     0.964873  s :     0.964873
      pz      :     0.004335  p :     0.023603
      px      :     0.013492
      py      :     0.005777

 16 H s       :     0.987953  s :     0.987953
      pz      :     0.005597  p :     0.023921
      px      :     0.008039
      py      :     0.010285

 17 H s       :     0.985932  s :     0.985932
      pz      :     0.006350  p :     0.023459
      px      :     0.005827
      py      :     0.011281

 18 H s       :     0.976969  s :     0.976969
      pz      :     0.007165  p :     0.023420
      px      :     0.004911
      py      :     0.011344

 19 H s       :     0.965393  s :     0.965393
      pz      :     0.005316  p :     0.023533
      px      :     0.013175
      py      :     0.005042

 20 H s       :     0.967939  s :     0.967939
      pz      :     0.013828  p :     0.023181
      px      :     0.004679
      py      :     0.004675

 21 H s       :     0.977487  s :     0.977487
      pz      :     0.006865  p :     0.023444
      px      :     0.004208
      py      :     0.012370

 22 H s       :     0.959987  s :     0.959987
      pz      :     0.013718  p :     0.023257
      px      :     0.004405
      py      :     0.005134

 23 H s       :     0.967192  s :     0.967192
      pz      :     0.006656  p :     0.023697
      px      :     0.008601
      py      :     0.008441

 24 H s       :     0.997585  s :     0.997585
      pz      :     0.012747  p :     0.023164
      px      :     0.003950
      py      :     0.006468

 25 H s       :     0.997035  s :     0.997035
      pz      :     0.008865  p :     0.022983
      px      :     0.009548
      py      :     0.004570

 26 H s       :     0.996444  s :     0.996444
      pz      :     0.004104  p :     0.022959
      px      :     0.013218
      py      :     0.005637

 27 H s       :     1.001990  s :     1.001990
      pz      :     0.012531  p :     0.022954
      px      :     0.003863
      py      :     0.006560

 28 H s       :     1.001051  s :     1.001051
      pz      :     0.009189  p :     0.023477
      px      :     0.009517
      py      :     0.004771

 29 H s       :     0.978204  s :     0.978204
      pz      :     0.007894  p :     0.023604
      px      :     0.009905
      py      :     0.005805

 30 H s       :     0.986126  s :     0.986126
      pz      :     0.004139  p :     0.023437
      px      :     0.008859
      py      :     0.010439

 31 H s       :     0.967921  s :     0.967921
      pz      :     0.005407  p :     0.023722
      px      :     0.007330
      py      :     0.010985

 32 H s       :     0.967556  s :     0.967556
      pz      :     0.013117  p :     0.023252
      px      :     0.004788
      py      :     0.005347

 33 H s       :     0.979915  s :     0.979915
      pz      :     0.004857  p :     0.023411
      px      :     0.008550
      py      :     0.010004

 34 H s       :     0.983176  s :     0.983176
      pz      :     0.005483  p :     0.023788
      px      :     0.006705
      py      :     0.011600

 35 H s       :     0.966877  s :     0.966877
      pz      :     0.007765  p :     0.023579
      px      :     0.010616
      py      :     0.005198

 36 H s       :     0.975324  s :     0.975324
      pz      :     0.005237  p :     0.023437
      px      :     0.009202
      py      :     0.008999

 37 H s       :     0.965881  s :     0.965881
      pz      :     0.013032  p :     0.023363
      px      :     0.006220
      py      :     0.004111



                     *******************************
                     * LOEWDIN POPULATION ANALYSIS *
                     *******************************

----------------------
LOEWDIN ATOMIC CHARGES
----------------------
   0 C :   -0.053994
   1 C :   -0.175400
   2 C :   -0.047889
   3 C :   -0.047237
   4 P :    0.493124
   5 C :   -0.180379
   6 C :   -0.018527
   7 C :   -0.027124
   8 C :   -0.017863
   9 C :   -0.028147
  10 C :   -0.025102
  11 C :   -0.180443
  12 C :   -0.050739
  13 C :   -0.049099
  14 C :   -0.045601
  15 H :    0.020477
  16 H :    0.015380
  17 H :    0.017354
  18 H :    0.019230
  19 H :    0.019805
  20 H :    0.019160
  21 H :    0.021738
  22 H :    0.021313
  23 H :    0.014644
  24 H :    0.022975
  25 H :    0.026093
  26 H :    0.025773
  27 H :    0.024679
  28 H :    0.019849
  29 H :    0.014530
  30 H :    0.018249
  31 H :    0.015807
  32 H :    0.020515
  33 H :    0.018266
  34 H :    0.016238
  35 H :    0.019785
  36 H :    0.020647
  37 H :    0.021914

-------------------------------
LOEWDIN REDUCED ORBITAL CHARGES
-------------------------------
  0 C s       :     2.839219  s :     2.839219
      pz      :     1.014938  p :     3.139280
      px      :     1.061638
      py      :     1.062703
      dz2     :     0.019494  d :     0.075495
      dxz     :     0.010960
      dyz     :     0.019281
      dx2y2   :     0.014778
      dxy     :     0.010981

  1 C s       :     2.900501  s :     2.900501
      pz      :     1.061756  p :     3.170680
      px      :     1.042131
      py      :     1.066793
      dz2     :     0.028927  d :     0.104220
      dxz     :     0.015294
      dyz     :     0.020546
      dx2y2   :     0.019339
      dxy     :     0.020113

  2 C s       :     2.846592  s :     2.846592
      pz      :     1.059239  p :     3.128511
      px      :     1.040209
      py      :     1.029063
      dz2     :     0.020543  d :     0.072787
      dxz     :     0.004683
      dyz     :     0.014492
      dx2y2   :     0.019931
      dxy     :     0.013138

  3 C s       :     2.840919  s :     2.840919
      pz      :     1.062727  p :     3.131933
      px      :     1.013456
      py      :     1.055750
      dz2     :     0.018958  d :     0.074384
      dxz     :     0.010770
      dyz     :     0.010839
      dx2y2   :     0.016000
      dxy     :     0.017817

  4 P s       :     5.220184  s :     5.220184
      pz      :     3.432703  p :     9.050156
      px      :     2.781454
      py      :     2.835998
      dz2     :     0.027165  d :     0.236537
      dxz     :     0.031295
      dyz     :     0.044122
      dx2y2   :     0.056739
      dxy     :     0.077216

  5 C s       :     2.906943  s :     2.906943
      pz      :     1.078724  p :     3.178263
      px      :     1.088673
      py      :     1.010867
      dz2     :     0.024144  d :     0.095172
      dxz     :     0.032304
      dyz     :     0.015843
      dx2y2   :     0.012071
      dxy     :     0.010810

  6 C s       :     2.869802  s :     2.869802
      pz      :     1.029755  p :     3.057275
      px      :     1.061253
      py      :     0.966266
      dz2     :     0.020598  d :     0.091450
      dxz     :     0.027283
      dyz     :     0.009710
      dx2y2   :     0.017691
      dxy     :     0.016169

  7 C s       :     2.860350  s :     2.860350
      pz      :     1.039849  p :     3.075854
      px      :     1.047212
      py      :     0.988793
      dz2     :     0.020494  d :     0.090920
      dxz     :     0.030979
      dyz     :     0.011917
      dx2y2   :     0.014837
      dxy     :     0.012692

  8 C s       :     2.859577  s :     2.859577
      pz      :     1.053429  p :     3.066000
      px      :     1.037104
      py      :     0.975467
      dz2     :     0.025938  d :     0.092286
      dxz     :     0.027738
      dyz     :     0.015055
      dx2y2   :     0.012648
      dxy     :     0.010907

  9 C s       :     2.860869  s :     2.860869
      pz      :     1.029644  p :     3.076265
      px      :     1.062033
      py      :     0.984588
      dz2     :     0.020308  d :     0.091013
      dxz     :     0.027943
      dyz     :     0.009772
      dx2y2   :     0.017103
      dxy     :     0.015887

 10 C s       :     2.865031  s :     2.865031
      pz      :     1.039740  p :     3.066774
      px      :     1.047621
      py      :     0.979412
      dz2     :     0.020426  d :     0.093298
      dxz     :     0.032735
      dyz     :     0.011758
      dx2y2   :     0.014792
      dxy     :     0.013587

 11 C s       :     2.899958  s :     2.899958
      pz      :     1.048820  p :     3.176455
      px      :     1.062336
      py      :     1.065299
      dz2     :     0.024462  d :     0.104030
      dxz     :     0.025248
      dyz     :     0.016492
      dx2y2   :     0.013880
      dxy     :     0.023948

 12 C s       :     2.838257  s :     2.838257
      pz      :     1.021081  p :     3.135887
      px      :     1.054848
      py      :     1.059958
      dz2     :     0.018158  d :     0.076595
      dxz     :     0.020904
      dyz     :     0.010590
      dx2y2   :     0.005356
      dxy     :     0.021586

 13 C s       :     2.845267  s :     2.845267
      pz      :     1.044527  p :     3.130370
      px      :     1.024538
      py      :     1.061306
      dz2     :     0.021936  d :     0.073462
      dxz     :     0.014164
      dyz     :     0.004920
      dx2y2   :     0.008160
      dxy     :     0.024283

 14 C s       :     2.843203  s :     2.843203
      pz      :     1.058548  p :     3.129282
      px      :     1.057861
      py      :     1.012873
      dz2     :     0.017794  d :     0.073117
      dxz     :     0.014925
      dyz     :     0.008233
      dx2y2   :     0.009932
      dxy     :     0.022232

 15 H s       :     0.912962  s :     0.912962
      pz      :     0.013855  p :     0.066560
      px      :     0.038732
      py      :     0.013973

 16 H s       :     0.917275  s :     0.917275
      pz      :     0.017726  p :     0.067345
      px      :     0.021606
      py      :     0.028013

 17 H s       :     0.916758  s :     0.916758
      pz      :     0.020250  p :     0.065887
      px      :     0.014306
      py      :     0.031332

 18 H s       :     0.915472  s :     0.915472
      pz      :     0.019040  p :     0.065298
      px      :     0.013017
      py      :     0.033240

 19 H s       :     0.914187  s :     0.914187
      pz      :     0.013073  p :     0.066008
      px      :     0.038839
      py      :     0.014097

 20 H s       :     0.914932  s :     0.914932
      pz      :     0.039945  p :     0.065909
      px      :     0.012709
      py      :     0.013255

 21 H s       :     0.913085  s :     0.913085
      pz      :     0.017665  p :     0.065177
      px      :     0.012766
      py      :     0.034746

 22 H s       :     0.912597  s :     0.912597
      pz      :     0.039503  p :     0.066091
      px      :     0.013649
      py      :     0.012939

 23 H s       :     0.918485  s :     0.918485
      pz      :     0.017419  p :     0.066871
      px      :     0.026585
      py      :     0.022867

 24 H s       :     0.908178  s :     0.908178
      pz      :     0.037279  p :     0.068847
      px      :     0.012155
      py      :     0.019413

 25 H s       :     0.906285  s :     0.906285
      pz      :     0.025754  p :     0.067621
      px      :     0.027765
      py      :     0.014102

 26 H s       :     0.906758  s :     0.906758
      pz      :     0.013133  p :     0.067468
      px      :     0.037475
      py      :     0.016860

 27 H s       :     0.907586  s :     0.907586
      pz      :     0.035657  p :     0.067735
      px      :     0.012571
      py      :     0.019507

 28 H s       :     0.910739  s :     0.910739
      pz      :     0.027107  p :     0.069412
      px      :     0.027975
      py      :     0.014330

 29 H s       :     0.918871  s :     0.918871
      pz      :     0.024322  p :     0.066599
      px      :     0.027852
      py      :     0.014425

[...]
      dx2y2   :     0.013878
      dxy     :     0.023497

 12 C s       :     2.843124  s :     2.843124
      pz      :     1.020309  p :     3.131979
      px      :     1.053910
      py      :     1.057761
      dz2     :     0.018411  d :     0.074718
      dxz     :     0.019898
      dyz     :     0.010274
      dx2y2   :     0.005737
      dxy     :     0.020399

 13 C s       :     2.848820  s :     2.848820
      pz      :     1.045717  p :     3.131796
      px      :     1.027391
      py      :     1.058688
      dz2     :     0.021933  d :     0.073407
      dxz     :     0.014019
      dyz     :     0.004779
      dx2y2   :     0.008914
      dxy     :     0.023762

 14 C s       :     2.846516  s :     2.846516
      pz      :     1.056915  p :     3.131409
      px      :     1.052806
      py      :     1.021688
      dz2     :     0.017157  d :     0.073370
      dxz     :     0.015524
      dyz     :     0.008027
      dx2y2   :     0.010044
      dxy     :     0.022617

 15 H s       :     0.910455  s :     0.910455
      pz      :     0.013021  p :     0.066444
      px      :     0.038665
      py      :     0.014759

 16 H s       :     0.916345  s :     0.916345
      pz      :     0.017246  p :     0.066210
      px      :     0.022677
      py      :     0.026287

 17 H s       :     0.915810  s :     0.915810
      pz      :     0.019918  p :     0.064563
      px      :     0.013012
      py      :     0.031633

 18 H s       :     0.916681  s :     0.916681
      pz      :     0.019493  p :     0.064304
      px      :     0.012386
      py      :     0.032425

 19 H s       :     0.912711  s :     0.912711
      pz      :     0.012284  p :     0.065573
      px      :     0.038304
      py      :     0.014985

 20 H s       :     0.915404  s :     0.915404
      pz      :     0.038895  p :     0.065201
      px      :     0.012879
      py      :     0.013427

 21 H s       :     0.914456  s :     0.914456
      pz      :     0.017339  p :     0.064278
      px      :     0.012543
      py      :     0.034396

 22 H s       :     0.913886  s :     0.913886
      pz      :     0.038949  p :     0.065155
      px      :     0.013562
      py      :     0.012645

 23 H s       :     0.918102  s :     0.918102
      pz      :     0.017157  p :     0.065670
      px      :     0.025754
      py      :     0.022758

 24 H s       :     0.909642  s :     0.909642
      pz      :     0.036283  p :     0.068031
      px      :     0.011854
      py      :     0.019894

 25 H s       :     0.906444  s :     0.906444
      pz      :     0.023904  p :     0.066553
      px      :     0.028596
      py      :     0.014053

 26 H s       :     0.906747  s :     0.906747
      pz      :     0.013279  p :     0.066485
      px      :     0.036937
      py      :     0.016268

 27 H s       :     0.907269  s :     0.907269
      pz      :     0.034859  p :     0.066588
      px      :     0.011737
      py      :     0.019992

 28 H s       :     0.910280  s :     0.910280
      pz      :     0.024792  p :     0.069363
      px      :     0.030211
      py      :     0.014360

 29 H s       :     0.917986  s :     0.917986
      pz      :     0.023221  p :     0.066019
      px      :     0.029006
      py      :     0.013792

 30 H s       :     0.914425  s :     0.914425
      pz      :     0.012561  p :     0.064574
      px      :     0.023674
      py      :     0.028340

 31 H s       :     0.916726  s :     0.916726
      pz      :     0.015979  p :     0.065699
      px      :     0.019034
      py      :     0.030685

 32 H s       :     0.914022  s :     0.914022
      pz      :     0.039110  p :     0.065264
      px      :     0.013672
      py      :     0.012482

 33 H s       :     0.917543  s :     0.917543
      pz      :     0.012239  p :     0.064188
      px      :     0.024766
      py      :     0.027182

 34 H s       :     0.916451  s :     0.916451
      pz      :     0.014534  p :     0.065667
      px      :     0.018779
      py      :     0.032354

 35 H s       :     0.912066  s :     0.912066
      pz      :     0.021715  p :     0.066342
      px      :     0.029521
      py      :     0.015106

 36 H s       :     0.916182  s :     0.916182
      pz      :     0.012243  p :     0.064322
      px      :     0.024686
      py      :     0.027392

 37 H s       :     0.912974  s :     0.912974
      pz      :     0.036813  p :     0.064943
      px      :     0.015715
      py      :     0.012415



                      *****************************
                      * MAYER POPULATION ANALYSIS *
                      *****************************

  NA   - Mulliken gross atomic population
  ZA   - Total nuclear charge
  QA   - Mulliken gross atomic charge
  VA   - Mayer's total valence
  BVA  - Mayer's bonded valence
  FA   - Mayer's free valence

  ATOM       NA         ZA         QA         VA         BVA        FA
  0 C      5.9033     6.0000     0.0967     3.8881     3.8881    -0.0000
  1 C      6.4040     6.0000    -0.4040     4.1411     4.1411    -0.0000
  2 C      5.9181     6.0000     0.0819     3.8850     3.8850    -0.0000
  3 C      5.9193     6.0000     0.0807     3.9032     3.9032    -0.0000
  4 P     14.7210    15.0000     0.2790     2.9328     2.9328    -0.0000
  5 C      6.1382     6.0000    -0.1382     3.7842     3.7842    -0.0000
  6 C      5.9733     6.0000     0.0267     3.8775     3.8775    -0.0000
  7 C      5.9763     6.0000     0.0237     3.8315     3.8315    -0.0000
  8 C      5.9782     6.0000     0.0218     3.8258     3.8258    -0.0000
  9 C      5.9800     6.0000     0.0200     3.8472     3.8472    -0.0000
 10 C      5.9768     6.0000     0.0232     3.8869     3.8869    -0.0000
 11 C      6.4138     6.0000    -0.4138     4.1275     4.1275    -0.0000
 12 C      5.8962     6.0000     0.1038     3.9018     3.9018    -0.0000
 13 C      5.9058     6.0000     0.0942     3.8863     3.8863    -0.0000
 14 C      5.9119     6.0000     0.0881     3.8988     3.8988    -0.0000
 15 H      0.9811     1.0000     0.0189     1.0074     1.0074    -0.0000
 16 H      1.0097     1.0000    -0.0097     1.0140     1.0140    -0.0000
 17 H      1.0041     1.0000    -0.0041     0.9927     0.9927    -0.0000
 18 H      0.9988     1.0000     0.0012     0.9939     0.9939     0.0000
 19 H      0.9837     1.0000     0.0163     1.0041     1.0041    -0.0000
 20 H      0.9883     1.0000     0.0117     0.9989     0.9989    -0.0000
 21 H      0.9998     1.0000     0.0002     0.9948     0.9948    -0.0000
 22 H      0.9822     1.0000     0.0178     0.9962     0.9962    -0.0000
 23 H      0.9863     1.0000     0.0137     0.9976     0.9976    -0.0000
 24 H      1.0180     1.0000    -0.0180     0.9979     0.9979    -0.0000
 25 H      1.0171     1.0000    -0.0171     0.9775     0.9775    -0.0000
 26 H      1.0159     1.0000    -0.0159     0.9773     0.9773    -0.0000
 27 H      1.0218     1.0000    -0.0218     0.9765     0.9765    -0.0000
 28 H      1.0267     1.0000    -0.0267     0.9930     0.9930    -0.0000
 29 H      0.9977     1.0000     0.0023     0.9996     0.9996     0.0000
 30 H      1.0040     1.0000    -0.0040     0.9929     0.9929    -0.0000
 31 H      0.9866     1.0000     0.0134     0.9987     0.9987    -0.0000
 32 H      0.9876     1.0000     0.0124     1.0013     1.0013    -0.0000
 33 H      1.0001     1.0000    -0.0001     0.9934     0.9934    -0.0000
 34 H      1.0019     1.0000    -0.0019     1.0106     1.0106    -0.0000
 35 H      0.9862     1.0000     0.0138     1.0065     1.0065    -0.0000
 36 H      0.9988     1.0000     0.0012     0.9942     0.9942    -0.0000
 37 H      0.9874     1.0000     0.0126     0.9972     0.9972    -0.0000

  Mayer bond orders larger than 0.100000
B(  0-C ,  1-C ) :   1.0207 B(  0-C , 15-H ) :   0.9545 B(  0-C , 16-H ) :   0.9597 
B(  0-C , 17-H ) :   0.9504 B(  1-C ,  2-C ) :   1.0171 B(  1-C ,  3-C ) :   1.0317 
B(  1-C ,  4-P ) :   0.9410 B(  2-C , 18-H ) :   0.9559 B(  2-C , 19-H ) :   0.9638 
B(  2-C , 20-H ) :   0.9605 B(  3-C , 21-H ) :   0.9513 B(  3-C , 22-H ) :   0.9570 
B(  3-C , 23-H ) :   0.9593 B(  4-P ,  5-C ) :   0.9296 B(  4-P , 11-C ) :   0.9261 
B(  5-C ,  6-C ) :   1.3911 B(  5-C , 10-C ) :   1.3511 B(  6-C ,  7-C ) :   1.3808 
B(  6-C , 24-H ) :   0.9793 B(  7-C ,  8-C ) :   1.3861 B(  7-C , 25-H ) :   0.9858 
B(  8-C ,  9-C ) :   1.3691 B(  8-C , 26-H ) :   0.9848 B(  9-C , 10-C ) :   1.4062 
B(  9-C , 27-H ) :   0.9838 B( 10-C , 28-H ) :   0.9750 B( 11-C , 12-C ) :   1.0180 
B( 11-C , 13-C ) :   1.0215 B( 11-C , 14-C ) :   1.0310 B( 12-C , 29-H ) :   0.9618 
B( 12-C , 30-H ) :   0.9430 B( 12-C , 31-H ) :   0.9563 B( 13-C , 32-H ) :   0.9604 
B( 13-C , 33-H ) :   0.9569 B( 13-C , 34-H ) :   0.9619 B( 14-C , 35-H ) :   0.9587 
B( 14-C , 36-H ) :   0.9566 B( 14-C , 37-H ) :   0.9584 

-------
TIMINGS
-------

Total SCF time: 0 days 0 hours 0 min 17 sec 

Total time                  ....      17.717 sec
Sum of individual times     ....      17.639 sec  ( 99.6%)

SCF preparation             ....       0.118 sec  (  0.7%)
Fock matrix formation       ....      17.146 sec  ( 96.8%)
  Startup                   ....       0.019 sec  (  0.1% of F)
  Exchange formation        ....      13.164 sec  ( 76.8% of F)
  Split-RI-J                ....       1.308 sec  (  7.6% of F)
  XC integration            ....       2.582 sec  ( 15.1% of F)
    Basis function eval.    ....       0.794 sec  ( 30.8% of XC)
    Density eval.           ....       0.798 sec  ( 30.9% of XC)
    XC-Functional eval.     ....       0.054 sec  (  2.1% of XC)
    XC-Potential eval.      ....       0.548 sec  ( 21.2% of XC)
Diagonalization             ....       0.000 sec  (  0.0%)
Density matrix formation    ....       0.041 sec  (  0.2%)
Total Energy calculation    ....       0.018 sec  (  0.1%)
Population analysis         ....       0.084 sec  (  0.5%)
Orbital Transformation      ....       0.030 sec  (  0.2%)
Orbital Orthonormalization  ....       0.000 sec  (  0.0%)
DIIS solution               ....       0.040 sec  (  0.2%)
SOSCF solution              ....       0.162 sec  (  0.9%)
Finished LeanSCF after  17.8 sec

Maximum memory used throughout the entire LEANSCF-calculation: 37.9 MB


-------------------------------------------------------------------------------
                          DFT DISPERSION CORRECTION                            
                                                                               
                              DFTD3 V3.1  Rev 1                                
                          USING Becke-Johnson damping                          
-------------------------------------------------------------------------------
The B3LYP functional is recognized
Active option DFTDOPT                   ...         4   

molecular C6(AA) [au] = 13618.035419 


            DFT-D V3
 parameters
 s6 scaling factor         :     1.0000 
 a1 scaling factor         :     0.3981 
 s8 scaling factor         :     1.9889 
 a2 scaling factor         :     4.4211 
 ad hoc parameters k1-k3   :    16.0000     1.3333    -4.0000 

 Edisp/kcal,au: -53.657860403621  -0.085509234359 
 E6   /kcal   : -25.157768482 
 E8   /kcal   : -28.500091921 
 % E8         :  53.114476998 

-------------------------   ----------------
Dispersion correction           -0.085509234
-------------------------   ----------------


-------------------------   --------------------
FINAL SINGLE POINT ENERGY      -887.844014115919
-------------------------   --------------------

                                *** OPTIMIZATION RUN DONE ***



           ************************************************************
           *        Program running with 6 parallel MPI-processes     *
           *              working on a common directory               *
           ************************************************************

------------------------------------------------------------------------------
                              ORCA PROPERTY CALCULATIONS
------------------------------------------------------------------------------

GBWName                                 ... data/geom_opt/316378/316378.gbw
Number of atoms                         ...     38
Number of basis functions               ...    329
Max core memory                         ...   1024 MB

Electric properties:
Dipole moment                           ... YES
Quadrupole moment                       ...  NO
Static polarizability (Dipole/Dipole)   ...  NO
Static polarizability (Dipole/Quad.)    ...  NO
Static polarizability (Quad./Quad.)     ...  NO
Static polarizability (Velocity)        ...  NO

Atomic electric properties:
Dipole moment                           ...  NO
Quadrupole moment                       ...  NO
Static polarizability                   ...  NO

Choice of electric origin               ... Center of mass
Position of electric origin             ...     0.598505    -0.120094    -0.265264

General magnetic properties:
Magnetizability                         ...  NO

EPR properties:
g-Tensor (aka g-matrix)                 ...  NO
Zero-Field splitting spin-orbit         ...  NO
Zero-field splitting spin-spin          ...  NO
Hyperfine couplings                     ...  NO (   0 nuclei)
Quadrupole couplings                    ...  NO (   0 nuclei)
Contact density                         ...  NO (   0 nuclei)

NMR properties:
Chemical shifts                         ...  NO (   0 nuclei)
Spin-rotation constants                 ...  NO (   0 nuclei)
Spin-spin couplings                     ...  NO (   0 nuclei,    0 pairs)

Choice of magnetic origin               ... GIAO
Position of magnetic origin             ...     0.000000     0.000000     0.000000

Properties with geometric perturbations:
SCF Hessian                             ...  NO
IR spectrum                             ...  NO
VCD spectrum                            ...  NO
X-ray spectroscopy properties:
SCF XES/XAS/RIXS spectra                ...  NO


-------------
DIPOLE MOMENT
-------------

Method             : SCF
Type of density    : Electron Density
Multiplicity       :   1
Irrep              :   0
Energy             :  -887.7585048815599293 Eh
Relativity type    : 
Basis              : AO
                                X                 Y                 Z
Electronic contribution:     12.751219298      -2.833089702      -4.479892270
Nuclear contribution   :    -12.724570003       2.721124515       4.891763789
                        -----------------------------------------
Total Dipole Moment    :      0.026649295      -0.111965187       0.411871519
                        -----------------------------------------
Magnitude (a.u.)       :      0.427650016
Magnitude (Debye)      :      1.086999955



--------------------
Rotational spectrum 
--------------------
 
Rotational constants in cm-1:             0.024476             0.014404             0.011680 
Rotational constants in MHz :           733.769801           431.807820           350.163997 

Dipole components along the rotational axes: 
x,y,z [a.u.] :     0.077983    -0.026874     0.419620 
x,y,z [Debye]:     0.198218    -0.068307     1.066589 

 

Dipole moment calculation done in   0.0 sec 

Maximum memory used throughout the entire PROP-calculation: 18.7 MB

--------------------------------
SUGGESTED CITATIONS FOR THIS RUN
--------------------------------

Below you find a list of papers that are relevant to this ORCA run
We neither can nor want to force you to cite these papers, but we appreciate if you do
You receive ORCA, which is the product of decades of hard work by many enthusiastic individuals, for free
The only thing we kindly ask in return is that you cite our papers,
We deeply appreciate it, if you show your appreciation for ORCA by not just citing the generic ORCA reference.

Please note that relegating all ORCA citations to the supporting information does *not* help us.
SI sections are not indexed - citations you put there will not count into any citation statistics
But we need these citations in order to attract the funding resources that allow us to do what we are doing

Therefore, if you are a happy ORCA user, please consider citing a few of the papers listed below in the main body of your paper

In addition to the list printed below, the program has created the file data/geom_opt/316378/316378.bibtex that contains the list in bibtex format
You can import this file easily into all common literature databanks and citation aid programs


List of essential papers. We consider these as the minimum necessary citations

  1. Neese,F.
     Software update: the ORCA program system, version 5.0
     WIRES Comput. Molec. Sci., 2022 12(1)e1606
     doi.org/10.1002/wcms.1606

List of papers to cite with high priority. The work reported in these papers was absolutely
necessary for this run to complete.
Our perspective: the developers of density functionals and basis sets usually get cited in chemistry papers
Good! But without the algorithms to do something with them, the functionals or basis sets would not do anything.
Hence, in our opinion, the algorithm design and method developments papers are equally worthy of getting cited

  1. Neese,F.
     An improvement of the resolution of the identity approximation for the formation of the Coulomb matrix
     J. Comp. Chem., 2003 24(14)1740-1747
     doi.org/10.1002/jcc.10318
  2. Neese,F.
     The SHARK Integral Generation and Digestion System
     J. Comp. Chem., 2022  1-16
     doi.org/10.1002/jcc.26942
  3. Grimme,S.; Antony,J.; Ehrlich,S.; Krieg,H.
     A consistent and accurate ab initio parametrization of density functional dispersion correction (DFT-D) for the 94 elements H-Pu
     J. Chem. Phys., 2010 132 154104-XXXX
     doi.org/10.1063/1.3382344
  4. Grimme,S.; Ehrlich,S.; Goerigk,L.
     Effect of the damping function in dispersion corrected density functional theory
     J. Comput. Chem., 2011 32(7)1456-1465
     doi.org/10.1002/jcc.21759

List of suggested additional citations. These are papers that are important in the 'surrounding' of 
of this run, or papers that preceded the highly important papers. If you like your results we are grateful for a citation.

  1. Neese,F.
     The ORCA program system
     WIRES Comput. Molec. Sci., 2012 2(1)73-78
     doi.org/10.1002/wcms.81
  2. Neese,F.
     Software update: the ORCA program system, version 4.0
     WIRES Comput. Molec. Sci., 2018 8(1)1-6
     doi.org/10.1002/wcms.1327
  3. Neese,F.; Wennmohs,F.; Becker,U.; Riplinger,C.
     The ORCA quantum chemistry program package
     J. Chem. Phys., 2020 152 Art. No. L224108
     doi.org/10.1063/5.0004608

List of optional additional citations

  1. Neese,F.
     Approximate second-order SCF convergence for spin unrestricted wavefunctions
     Chem. Phys. Lett., 2000 325(1-3)93-98
     doi.org/10.1016/s0009-2614(00)00662-x

Timings for individual modules:

Sum of individual times          ...      553.609 sec (=   9.227 min)
Startup calculation              ...       13.886 sec (=   0.231 min)   2.5 %
SCF iterations                   ...      367.004 sec (=   6.117 min)  66.3 %
Property calculations            ...        0.175 sec (=   0.003 min)   0.0 %
SCF Gradient evaluation          ...      172.350 sec (=   2.872 min)  31.1 %
Geometry relaxation              ...        0.194 sec (=   0.003 min)   0.0 %
                             ****ORCA TERMINATED NORMALLY****
TOTAL RUN TIME: 0 days 0 hours 9 minutes 15 seconds 828 msec
