
                                 *****************
                                 * O   R   C   A *
                                 *****************

                                            #,                                       
                                            ###                                      
                                            ####                                     
                                            #####                                    
                                            ######                                   
                                           ########,                                 
                                     ,,################,,,,,                         
                               ,,#################################,,                 
                          ,,##########################################,,             
                       ,#########################################, ''#####,          
                    ,#############################################,,   '####,        
                  ,##################################################,,,,####,       
                ,###########''''           ''''###############################       
              ,#####''   ,,,,##########,,,,          '''####'''          '####       
            ,##' ,,,,###########################,,,                        '##       
           ' ,,###''''                  '''############,,,                           
         ,,##''                                '''############,,,,        ,,,,,,###''
      ,#''                                            '''#######################'''  
     '                                                          ''''####''''         
             ,#######,   #######,   ,#######,      ##                                
            ,#'     '#,  ##    ##  ,#'     '#,    #''#        ,####,   ,####,        
            ##       ##  ##   ,#'  ##            #'  '#       #'       #'  '#        
            ##       ##  #######   ##           ,######,      #####,   #    #        
            '#,     ,#'  ##    ##  '#,     ,#' ,#      #,     #,   #   #,  ,#        
             '#######'   ##     ##  '#######'  #'      '#     '####' # '####'        



                #########################################################
                #                        -***-                          #
                #          Department of theory and spectroscopy        #
                #                                                       #
                #                      Frank Neese                      #
                #                                                       #
                #     Directorship, Architecture, Infrastructure        #
                #                    SHARK, DRIVERS                     #
                #        Core code/Algorithms in most modules           #
                #                                                       #
                #        Max Planck Institute fuer Kohlenforschung      #
                #                Kaiser Wilhelm Platz 1                 #
                #                 D-45470 Muelheim/Ruhr                 #
                #                      Germany                          #
                #                                                       #
                #                  All rights reserved                  #
                #                        -***-                          #
                #########################################################


                         Program Version 6.0.0  -   RELEASE   -


 With contributions from (in alphabetic order):
   Daniel Aravena         : Magnetic Suceptibility
   Michael Atanasov       : Ab Initio Ligand Field Theory (pilot matlab implementation)
   Alexander A. Auer      : GIAO ZORA, VPT2 properties, NMR spectrum
   Ute Becker             : All parallelization in ORCA, NUMFREQ, NUMCALC
   Giovanni Bistoni       : ED, misc. LED, open-shell LED, HFLD
   Martin Brehm           : Molecular dynamics
   Dmytro Bykov           : pre 5.0 version of the SCF Hessian
   Marcos Casanova-Páez   : Triplet and SCS-CIS(D). UHF-(DLPNO)-IP/EA/STEOM-CCSD. UHF-CVS-IP/STEOM-CCSD
   Vijay G. Chilkuri      : MRCI spin determinant printing, contributions to CSF-ICE
   Pauline Colinet        : FMM embedding
   Dipayan Datta          : RHF DLPNO-CCSD density
   Achintya Kumar Dutta   : EOM-CC, STEOM-CC
   Nicolas Foglia         : Exact transition moments, OPA infrastructure, MCD improvements
   Dmitry Ganyushin       : Spin-Orbit,Spin-Spin,Magnetic field MRCI
   Miquel Garcia          : C-PCM and meta-GGA Hessian, CCSD/C-PCM, Gaussian charge scheme
   Tiago L. C. Gouveia    : GS-ROHF, GS-ROCIS
   Yang Guo               : DLPNO-NEVPT2, F12-NEVPT2, CIM, IAO-localization
   Andreas Hansen         : Spin unrestricted coupled pair/coupled cluster methods
   Ingolf Harden          : AUTO-CI MPn and infrastructure 
   Benjamin Helmich-Paris : MC-RPA, TRAH-(SCF,CASSCF), AVAS, COSX integrals, SCF dyn. polar.
   Lee Huntington         : MR-EOM, pCC
   Robert Izsak           : Overlap fitted RIJCOSX, COSX-SCS-MP3, EOM
   Riya Kayal             : Wick's Theorem for AUTO-CI, AUTO-CI UHF-CCSDT
   Emily Kempfer          : AUTO-CI, RHF CISDT and CCSDT
   Christian Kollmar      : KDIIS, OOCD, Brueckner-CCSD(T), CCSD density, CASPT2, CASPT2-K, improved NEVPT2
   Axel Koslowski         : Symmetry handling
   Simone Kossmann        : Meta GGA functionals, TD-DFT gradient, OOMP2, (MP2 Hessian; deprecated post 5.0)
   Lucas Lang             : DCDCAS
   Marvin Lechner         : AUTO-CI (C++ implementation), FIC-MRCC
   Spencer Leger          : CASSCF response
   Dagmar Lenk            : GEPOL surface, SMD, ORCA-2-JSON
   Dimitrios Liakos       : Extrapolation schemes; Compound Job, initial MDCI parallelization
   Dimitrios Manganas     : Further ROCIS development; embedding schemes. LFT, Crystal Embedding
   Dimitrios Pantazis     : SARC Basis sets
   Anastasios Papadopoulos: AUTO-CI, single reference methods and gradients
   Taras Petrenko         : pre 6.0 DFT Hessian and TD-DFT gradient, (ASA, deprecated), ECA, 1-Electron XAS/XES, NRVS
   Peter Pinski           : DLPNO-MP2, DLPNO-MP2 Gradient
   Christoph Reimann      : Effective Core Potentials
   Marius Retegan         : Local ZFS, SOC
   Christoph Riplinger    : Optimizer, TS searches, QM/MM, DLPNO-CCSD(T), (RO)-DLPNO pert. Triples
   Michael Roemelt        : Original ROCIS implementation
   Masaaki Saitow         : Open-shell DLPNO-CCSD energy and density
   Barbara Sandhoefer     : DKH picture change effects
   Kantharuban Sivalingam : CASSCF convergence/infrastructure, NEVPT2 and variants, FIC-MRCI
   Bernardo de Souza      : ESD, SOC TD-DFT
   Georgi Stoychev        : AutoAux, RI-MP2 NMR, DLPNO-MP2 response, X2C
   Van Anh Tran           : RI-MP2 g-tensors
   Willem Van den Heuvel  : Paramagnetic NMR
   Zikuan Wang            : NOTCH, Electric field optimization 
   Frank Wennmohs         : Technical directorship and infrastructure
   Hang Xu                : AUTO-CI-Response properties 


 We gratefully acknowledge several colleagues who have allowed us to
 interface, adapt or use parts of their codes:
   Stefan Grimme, W. Hujo, H. Kruse, P. Pracht,  : VdW corrections, initial TS optimization,
                  C. Bannwarth, S. Ehlert,         DFT functionals, gCP, sTDA/sTD-DF
                  L. Wittmann, M. Mueller
   Ed Valeev, F. Pavosevic, A. Kumar             : LibInt (2-el integral package), F12 methods
   Garnet Chan, S. Sharma, J. Yang, R. Olivares  : DMRG
   Ulf Ekstrom                                   : XCFun DFT Library
   Mihaly Kallay                                 : mrcc  (arbitrary order and MRCC methods)
   Frank Weinhold                                : gennbo (NPA and NBO analysis)
   Simon Mueller                                 : openCOSMO-RS
   Christopher J. Cramer and Donald G. Truhlar   : smd solvation model
   Lars Goerigk                                  : TD-DFT with DH, B97 family of functionals
   V. Asgeirsson, H. Jonsson                     : NEB implementation
   FAccTs GmbH                                   : IRC, NEB, NEB-TS, DLPNO-Multilevel, CI-OPT
                                                   MM, QMMM, 2- and 3-layer-ONIOM, Crystal-QMMM,
                                                   LR-CPCM, SF, NACMEs, symmetry and pop. for TD-DFT,
                                                   nearIR, NL-DFT gradient (VV10), updates on ESD,
                                                   ML-optimized integration grids, MBIS, APM,
                                                   GOAT, DOCKER, SOLVATOR, interface openCOSMO-RS
   S Lehtola, MJT Oliveira, MAL Marques          : LibXC Library
   Liviu Ungur et al                             : ANISO software


 Your calculation uses the libint2 library for the computation of 2-el integrals
 For citations please refer to: http://libint.valeyev.net

 Your ORCA version has been built with support for libXC version: 6.2.2
 For citations please refer to: https://libxc.gitlab.io

 This ORCA versions uses:
   CBLAS   interface :  Fast vector & matrix operations
   LAPACKE interface :  Fast linear algebra routines
   Shared memory     :  Shared parallel matrices


Your calculation utilizes the atom-pairwise dispersion correction
with the Becke-Johnson damping scheme (D3BJ)


Warning: RI is on but no J-basis has been assigned. Assigning Def2/J (nothing to worry about!)
================================================================================

----- Orbital basis set information -----
Your calculation utilizes the basis: def2-SVP
   F. Weigend and R. Ahlrichs, Phys. Chem. Chem. Phys. 7, 3297 (2005).

----- AuxJ basis set information -----
Your calculation utilizes the auxiliary basis: def2/J
   F. Weigend, Phys. Chem. Chem. Phys. 8, 1057 (2006).

================================================================================
                                        WARNINGS
                       Please study these warnings very carefully!
================================================================================


WARNING: Geometry Optimization
  ===> : Switching off AutoStart
         For restart on a previous wavefunction, please use MOREAD

================================================================================
                                       INPUT FILE
================================================================================
NAME = data/geom_opt/13831/13831.inp
|  1> ! RIJONX B3LYP def2-SVP D3BJ TIGHTSCF Opt
|  2> %pal
|  3> nprocs 6
|  4> end
|  5> 
|  6> * xyz 0 1
|  7> C     -0.819809    4.828366    2.039791
|  8> C     -0.064777    3.508943    2.067416
|  9> C     -0.366296    2.664094    0.828128
| 10> C      0.397212    1.339551    0.866723
| 11> P      0.107513    0.315772   -0.651226
| 12> C      1.128925   -1.173937   -0.234451
| 13> C      2.625863   -0.922065   -0.420424
| 14> C      3.437185   -2.184134   -0.121331
| 15> C      4.927682   -1.944589   -0.302309
| 16> C     -1.585643   -0.340399   -0.278557
| 17> C     -2.100441   -1.274663   -1.374451
| 18> C     -3.519239   -1.756069   -1.064969
| 19> C     -4.040812   -2.686798   -2.148213
| 20> H     -0.541355    5.421406    1.162817
| 21> H     -0.589394    5.415670    2.934153
| 22> H     -1.901285    4.661043    2.012565
| 23> H     -0.342059    2.955004    2.971853
| 24> H      1.010824    3.711901    2.127475
| 25> H     -0.093184    3.229828   -0.071961
| 26> H     -1.446196    2.482016    0.772495
| 27> H      0.117873    0.768407    1.759188
| 28> H      1.469317    1.551663    0.940045
| 29> H      0.824477   -1.995546   -0.891754
| 30> H      0.923921   -1.489092    0.794811
| 31> H      2.827736   -0.596149   -1.448934
| 32> H      2.963110   -0.114248    0.239975
| 33> H      3.248251   -2.512883    0.907244
| 34> H      3.120815   -2.996749   -0.785622
| 35> H      5.154818   -1.644564   -1.330275
| 36> H      5.487803   -2.859124   -0.083704
| 37> H      5.283502   -1.158957    0.371859
| 38> H     -1.579375   -0.858261    0.687107
| 39> H     -2.271814    0.508430   -0.186716
| 40> H     -1.440994   -2.144782   -1.476696
| 41> H     -2.095792   -0.757579   -2.342649
| 42> H     -4.193291   -0.896241   -0.975160
| 43> H     -3.532379   -2.281310   -0.102842
| 44> H     -3.406807   -3.574287   -2.241638
| 45> H     -4.070294   -2.181461   -3.118823
| 46> H     -5.055595   -3.018209   -1.906796
| 47> **                         ****END OF INPUT****
================================================================================

                       *****************************
                       * Geometry Optimization Run *
                       *****************************

Geometry optimization settings:
Update method            Update   .... BFGS
Choice of coordinates    CoordSys .... (2022) Redundant Internals
Initial Hessian          InHess   .... Almloef's Model
Max. no of cycles        MaxIter  .... 120

Convergence Tolerances:
Energy Change            TolE     ....  5.0000e-06 Eh
Max. Gradient            TolMAXG  ....  3.0000e-04 Eh/bohr
RMS Gradient             TolRMSG  ....  1.0000e-04 Eh/bohr
Max. Displacement        TolMAXD  ....  4.0000e-03 bohr
RMS Displacement         TolRMSD  ....  2.0000e-03 bohr
Strict Convergence                .... False

------------------------------------------------------------------------------
                        ORCA OPTIMIZATION COORDINATE SETUP
------------------------------------------------------------------------------

The optimization will be done in redundant internal coordinates (2022)
Making redundant internal coordinates   ...  (2022 redundants) done
Evaluating the initial hessian          ...  (Almloef) done
Evaluating the coordinates              ...  done
Calculating the B-matrix                .... done
Calculating the G-matrix                .... done
Diagonalizing the G-matrix              .... done
Small eigenvalue found = 3.431e-03
Small eigenvalue found = 3.487e-03
Small eigenvalue found = 6.559e-03
Small eigenvalue found = 1.972e-02
Small eigenvalue found = 2.032e-02
Small eigenvalue found = 2.465e-02
The first mode is                       ....   69
The number of degrees of freedom        ....  114

    -----------------------------------------------------------------
                    Redundant Internal Coordinates


    -----------------------------------------------------------------
         Definition                    Initial Value    Approx d2E/dq
    -----------------------------------------------------------------
      1. B(C   1,C   0)                  1.5204         0.386939   
      2. B(C   2,C   1)                  1.5299         0.373746   
      3. B(C   3,C   2)                  1.5293         0.374496   
      4. B(P   4,C   3)                  1.8537         0.382316   
      5. B(C   5,P   4)                  1.8537         0.382317   
      6. B(C   6,C   5)                  1.5293         0.374496   
      7. B(C   7,C   6)                  1.5299         0.373746   
      8. B(C   8,C   7)                  1.5204         0.386938   
      9. B(C   9,P   4)                  1.8537         0.382315   
     10. B(C  10,C   9)                  1.5293         0.374496   
     11. B(C  11,C  10)                  1.5299         0.373746   
     12. B(C  12,C  11)                  1.5204         0.386940   
     13. B(H  13,C   0)                  1.0947         0.353967   
     14. B(H  14,C   0)                  1.0945         0.354214   
     15. B(H  15,C   0)                  1.0947         0.353959   
     16. B(H  16,C   1)                  1.0962         0.351940   
     17. B(H  17,C   1)                  1.0962         0.351954   
     18. B(H  18,C   2)                  1.0976         0.350139   
     19. B(H  19,C   2)                  1.0966         0.351533   
     20. B(H  20,C   3)                  1.0958         0.352537   
     21. B(H  21,C   3)                  1.0953         0.353101   
     22. B(H  22,C   5)                  1.0953         0.353100   
     23. B(H  23,C   5)                  1.0958         0.352537   
     24. B(H  24,C   6)                  1.0976         0.350138   
     25. B(H  25,C   6)                  1.0966         0.351533   
     26. B(H  26,C   7)                  1.0962         0.351941   
     27. B(H  27,C   7)                  1.0962         0.351955   
     28. B(H  28,C   8)                  1.0947         0.353965   
     29. B(H  29,C   8)                  1.0945         0.354215   
     30. B(H  30,C   8)                  1.0947         0.353960   
     31. B(H  31,C   9)                  1.0958         0.352538   
     32. B(H  32,C   9)                  1.0953         0.353101   
     33. B(H  33,C  10)                  1.0966         0.351533   
     34. B(H  34,C  10)                  1.0976         0.350139   
     35. B(H  35,C  11)                  1.0962         0.351955   
     36. B(H  36,C  11)                  1.0962         0.351941   
     37. B(H  37,C  12)                  1.0947         0.353960   
     38. B(H  38,C  12)                  1.0947         0.353965   
     39. B(H  39,C  12)                  1.0945         0.354214   
     40. A(H  14,C   0,H  15)          108.0790         0.289307   
     41. A(H  13,C   0,H  15)          108.3116         0.289275   
     42. A(H  13,C   0,H  14)          108.0826         0.289308   
     43. A(C   1,C   0,H  15)          111.0025         0.325277   
     44. A(C   1,C   0,H  13)          110.9998         0.325278   
     45. A(C   1,C   0,H  14)          110.2593         0.325315   
     46. A(C   2,C   1,H  17)          109.8769         0.323128   
     47. A(H  16,C   1,H  17)          107.2495         0.288758   
     48. A(C   0,C   1,C   2)          111.5083         0.365571   
     49. A(C   0,C   1,H  16)          109.1406         0.324971   
     50. A(C   2,C   1,H  16)          109.8420         0.323126   
     51. A(C   0,C   1,H  17)          109.1217         0.324973   
     52. A(C   3,C   2,H  19)          110.4341         0.323170   
     53. A(C   1,C   2,H  18)          109.3053         0.322854   
     54. A(C   1,C   2,C   3)          111.0664         0.363533   
     55. A(C   3,C   2,H  18)          110.0517         0.322960   
     56. A(H  18,C   2,H  19)          106.7991         0.288472   
     57. A(C   1,C   2,H  19)          109.0800         0.323064   
     58. A(C   2,C   3,H  21)          108.8216         0.323406   
     59. A(P   4,C   3,H  20)          109.8302         0.344422   
     60. A(C   2,C   3,P   4)          112.3117         0.388390   
     61. A(C   2,C   3,H  20)          110.1643         0.323322   
     62. A(H  20,C   3,H  21)          107.2133         0.288982   
     63. A(P   4,C   3,H  21)          108.3446         0.344514   
     64. A(C   3,P   4,C   5)           99.9982         0.415350   
     65. A(C   3,P   4,C   9)           99.9982         0.415350   
     66. A(C   5,P   4,C   9)           99.9982         0.415350   
     67. A(P   4,C   5,C   6)          112.3117         0.388390   
     68. A(H  22,C   5,H  23)          107.2133         0.288982   
     69. A(C   6,C   5,H  23)          110.1643         0.323322   
     70. A(P   4,C   5,H  23)          109.8302         0.344422   
     71. A(C   6,C   5,H  22)          108.8216         0.323406   
     72. A(P   4,C   5,H  22)          108.3446         0.344515   
     73. A(C   5,C   6,C   7)          111.0663         0.363533   
     74. A(C   7,C   6,H  25)          109.0800         0.323064   
     75. A(C   5,C   6,H  25)          110.4341         0.323170   
     76. A(C   7,C   6,H  24)          109.3054         0.322854   
     77. A(C   5,C   6,H  24)          110.0517         0.322960   
     78. A(H  24,C   6,H  25)          106.7991         0.288472   
     79. A(C   6,C   7,C   8)          111.5083         0.365571   
     80. A(H  26,C   7,H  27)          107.2496         0.288758   
     81. A(C   8,C   7,H  27)          109.1217         0.324973   
     82. A(C   6,C   7,H  27)          109.8770         0.323128   
     83. A(C   8,C   7,H  26)          109.1405         0.324971   
     84. A(C   6,C   7,H  26)          109.8420         0.323126   
     85. A(H  29,C   8,H  30)          108.0791         0.289307   
     86. A(H  28,C   8,H  30)          108.3115         0.289275   
     87. A(C   7,C   8,H  30)          111.0026         0.325277   
     88. A(H  28,C   8,H  29)          108.0826         0.289307   
     89. A(C   7,C   8,H  29)          110.2593         0.325315   
     90. A(C   7,C   8,H  28)          110.9997         0.325277   
     91. A(C  10,C   9,H  32)          108.8216         0.323406   
     92. A(P   4,C   9,H  32)          108.3446         0.344514   
     93. A(C  10,C   9,H  31)          110.1643         0.323322   
     94. A(P   4,C   9,H  31)          109.8302         0.344422   
     95. A(H  31,C   9,H  32)          107.2133         0.288982   
     96. A(P   4,C   9,C  10)          112.3117         0.388390   
     97. A(C  11,C  10,H  34)          109.3054         0.322854   
     98. A(C   9,C  10,H  34)          110.0518         0.322960   
     99. A(C  11,C  10,H  33)          109.0800         0.323064   
    100. A(C   9,C  10,H  33)          110.4341         0.323170   
    101. A(C   9,C  10,C  11)          111.0663         0.363533   
    102. A(H  33,C  10,H  34)          106.7991         0.288472   
    103. A(C  10,C  11,C  12)          111.5083         0.365572   
    104. A(H  35,C  11,H  36)          107.2495         0.288758   
    105. A(C  12,C  11,H  36)          109.1406         0.324971   
    106. A(C  10,C  11,H  36)          109.8421         0.323126   
    107. A(C  12,C  11,H  35)          109.1217         0.324973   
    108. A(C  10,C  11,H  35)          109.8769         0.323128   
    109. A(H  38,C  12,H  39)          108.0826         0.289307   
    110. A(H  37,C  12,H  39)          108.0790         0.289307   
    111. A(C  11,C  12,H  39)          110.2593         0.325315   
    112. A(H  37,C  12,H  38)          108.3115         0.289275   
    113. A(C  11,C  12,H  38)          110.9997         0.325278   
    114. A(C  11,C  12,H  37)          111.0026         0.325277   
    115. D(C   2,C   1,C   0,H  13)    -60.2467         0.011912   
    116. D(H  16,C   1,C   0,H  14)     58.4816         0.011912   
    117. D(C   2,C   1,C   0,H  14)   -179.9876         0.011912   
    118. D(C   2,C   1,C   0,H  15)     60.2743         0.011912   
    119. D(H  16,C   1,C   0,H  13)    178.2225         0.011912   
    120. D(H  16,C   1,C   0,H  15)    -61.2565         0.011912   
    121. D(C   3,C   2,C   1,H  16)    -58.8390         0.011153   
    122. D(H  18,C   2,C   1,H  17)    -62.7024         0.011153   
    123. D(H  18,C   2,C   1,H  16)    179.5433         0.011153   
    124. D(C   3,C   2,C   1,H  17)     58.9153         0.011153   
    125. D(H  18,C   2,C   1,C   0)     58.4204         0.011153   
    126. D(C   3,C   2,C   1,C   0)   -179.9619         0.011153   
    127. D(P   4,C   3,C   2,H  19)     61.0443         0.011195   
    128. D(P   4,C   3,C   2,H  18)    -56.6216         0.011195   
    129. D(P   4,C   3,C   2,C   1)   -177.8019         0.011195   
    130. D(H  20,C   3,C   2,H  19)    -61.7296         0.011195   
    131. D(H  20,C   3,C   2,H  18)   -179.3955         0.011195   
    132. D(H  20,C   3,C   2,C   1)     59.4242         0.011195   
    133. D(C   9,P   4,C   3,C   2)    -76.6566         0.003473   
    134. D(C   5,P   4,C   3,H  21)     60.9855         0.003473   
    135. D(C   5,P   4,C   3,H  20)    -55.8224         0.003473   
    136. D(C   9,P   4,C   3,H  20)     46.3054         0.003473   
    137. D(C   5,P   4,C   3,C   2)   -178.7844         0.003473   
    138. D(H  23,C   5,P   4,C   3)     46.3053         0.003473   
    139. D(H  22,C   5,P   4,C   9)     60.9854         0.003473   
    140. D(H  22,C   5,P   4,C   3)    163.1132         0.003473   
    141. D(C   6,C   5,P   4,C   9)   -178.7845         0.003473   
    142. D(C   6,C   5,P   4,C   3)    -76.6567         0.003473   
    143. D(C   7,C   6,C   5,H  23)     59.4241         0.011195   
    144. D(C   7,C   6,C   5,H  22)    -57.8488         0.011195   
    145. D(C   7,C   6,C   5,P   4)   -177.8021         0.011195   
    146. D(H  24,C   6,C   5,H  23)   -179.3955         0.011195   
    147. D(H  24,C   6,C   5,H  22)     63.3317         0.011195   
    148. D(H  24,C   6,C   5,P   4)    -56.6216         0.011195   
    149. D(H  26,C   7,C   6,H  25)     63.1067         0.011153   
    150. D(H  26,C   7,C   6,H  24)    179.5431         0.011153   
    151. D(H  26,C   7,C   6,C   5)    -58.8392         0.011153   
    152. D(C   8,C   7,C   6,H  25)    -58.0160         0.011153   
    153. D(C   8,C   7,C   6,H  24)     58.4203         0.011153   
    154. D(C   8,C   7,C   6,C   5)   -179.9619         0.011153   
    155. D(H  29,C   8,C   7,H  27)    -58.4260         0.011912   
    156. D(H  29,C   8,C   7,H  26)     58.4814         0.011912   
    157. D(H  29,C   8,C   7,C   6)   -179.9879         0.011912   
    158. D(H  28,C   8,C   7,H  27)     61.3149         0.011912   
    159. D(H  28,C   8,C   7,H  26)    178.2222         0.011912   
    160. D(H  28,C   8,C   7,C   6)    -60.2471         0.011912   
    161. D(H  32,C   9,P   4,C   3)     60.9853         0.003473   
    162. D(H  31,C   9,P   4,C   5)     46.3052         0.003473   
    163. D(H  31,C   9,P   4,C   3)    -55.8226         0.003473   
    164. D(C  10,C   9,P   4,C   5)    -76.6568         0.003473   
    165. D(C  10,C   9,P   4,C   3)   -178.7847         0.003473   
    166. D(H  33,C  10,C   9,H  32)   -179.0024         0.011195   
    167. D(H  33,C  10,C   9,H  31)    -61.7295         0.011195   
    168. D(H  33,C  10,C   9,P   4)     61.0443         0.011195   
    169. D(C  11,C  10,C   9,H  32)    -57.8486         0.011195   
    170. D(C  11,C  10,C   9,H  31)     59.4242         0.011195   
    171. D(C  11,C  10,C   9,P   4)   -177.8020         0.011195   
    172. D(H  35,C  11,C  10,H  33)   -179.1390         0.011153   
    173. D(H  35,C  11,C  10,C   9)     58.9151         0.011153   
    174. D(C  12,C  11,C  10,H  34)     58.4201         0.011153   
    175. D(C  12,C  11,C  10,H  33)    -58.0163         0.011153   
    176. D(H  35,C  11,C  10,H  34)    -62.7027         0.011153   
    177. D(C  12,C  11,C  10,C   9)   -179.9622         0.011153   
    178. D(H  38,C  12,C  11,H  36)    178.2221         0.011912   
    179. D(H  38,C  12,C  11,H  35)     61.3148         0.011912   
    180. D(H  38,C  12,C  11,C  10)    -60.2471         0.011912   
    181. D(H  37,C  12,C  11,H  36)    -61.2569         0.011912   
    182. D(H  37,C  12,C  11,H  35)   -178.1642         0.011912   
    183. D(H  37,C  12,C  11,C  10)     60.2739         0.011912   
    -----------------------------------------------------------------

Number of atoms                         .... 40
Number of degrees of freedom            .... 183


         *************************************************************
         *                GEOMETRY OPTIMIZATION CYCLE   1            *
         *************************************************************
---------------------------------
CARTESIAN COORDINATES (ANGSTROEM)
---------------------------------
  C     -0.819809    4.828366    2.039791
  C     -0.064777    3.508943    2.067416
  C     -0.366296    2.664094    0.828128
  C      0.397212    1.339551    0.866723
  P      0.107513    0.315772   -0.651226
  C      1.128925   -1.173937   -0.234451
  C      2.625863   -0.922065   -0.420424
  C      3.437185   -2.184134   -0.121331
  C      4.927682   -1.944589   -0.302309
  C     -1.585643   -0.340399   -0.278557
  C     -2.100441   -1.274663   -1.374451
  C     -3.519239   -1.756069   -1.064969
  C     -4.040812   -2.686798   -2.148213
  H     -0.541355    5.421406    1.162817
  H     -0.589394    5.415670    2.934153
  H     -1.901285    4.661043    2.012565
  H     -0.342059    2.955004    2.971853
  H      1.010824    3.711901    2.127475
  H     -0.093184    3.229828   -0.071961
  H     -1.446196    2.482016    0.772495
  H      0.117873    0.768407    1.759188
  H      1.469317    1.551663    0.940045
  H      0.824477   -1.995546   -0.891754
  H      0.923921   -1.489092    0.794811
  H      2.827736   -0.596149   -1.448934
  H      2.963110   -0.114248    0.239975
  H      3.248251   -2.512883    0.907244
  H      3.120815   -2.996749   -0.785622
  H      5.154818   -1.644564   -1.330275
  H      5.487803   -2.859124   -0.083704
  H      5.283502   -1.158957    0.371859
  H     -1.579375   -0.858261    0.687107
  H     -2.271814    0.508430   -0.186716
  H     -1.440994   -2.144782   -1.476696
  H     -2.095792   -0.757579   -2.342649
  H     -4.193291   -0.896241   -0.975160
  H     -3.532379   -2.281310   -0.102842
  H     -3.406807   -3.574287   -2.241638
  H     -4.070294   -2.181461   -3.118823
  H     -5.055595   -3.018209   -1.906796

----------------------------
CARTESIAN COORDINATES (A.U.)
----------------------------
  NO LB      ZA    FRAG     MASS         X           Y           Z
   0 C     6.0000    0    12.011   -1.549214    9.124289    3.854646
   1 C     6.0000    0    12.011   -0.122411    6.630941    3.906850
   2 C     6.0000    0    12.011   -0.692199    5.034408    1.564935
   3 C     6.0000    0    12.011    0.750622    2.531385    1.637869
   4 P    15.0000    0    30.974    0.203170    0.596723   -1.230639
   5 C     6.0000    0    12.011    2.133359   -2.218419   -0.443048
   6 C     6.0000    0    12.011    4.962162   -1.742450   -0.794486
   7 C     6.0000    0    12.011    6.495338   -4.127415   -0.229282
   8 C     6.0000    0    12.011    9.311969   -3.674741   -0.571281
   9 C     6.0000    0    12.011   -2.996431   -0.643261   -0.526396
  10 C     6.0000    0    12.011   -3.969258   -2.408764   -2.597336
  11 C     6.0000    0    12.011   -6.650398   -3.318489   -2.012500
  12 C     6.0000    0    12.011   -7.636028   -5.077312   -4.059534
  13 H     1.0000    0     1.008   -1.023013   10.244973    2.197406
  14 H     1.0000    0     1.008   -1.113793   10.234133    5.544746
  15 H     1.0000    0     1.008   -3.592908    8.808095    3.803197
  16 H     1.0000    0     1.008   -0.646398    5.584148    5.615988
  17 H     1.0000    0     1.008    1.910181    7.014476    4.020345
  18 H     1.0000    0     1.008   -0.176092    6.103490   -0.135987
  19 H     1.0000    0     1.008   -2.732914    4.690331    1.459804
  20 H     1.0000    0     1.008    0.222748    1.452079    3.324384
  21 H     1.0000    0     1.008    2.776607    2.932218    1.776428
  22 H     1.0000    0     1.008    1.558036   -3.771035   -1.685171
  23 H     1.0000    0     1.008    1.745958   -2.813976    1.501975
  24 H     1.0000    0     1.008    5.343647   -1.126558   -2.738088
  25 H     1.0000    0     1.008    5.599466   -0.215897    0.453487
  26 H     1.0000    0     1.008    6.138305   -4.748661    1.714443
  27 H     1.0000    0     1.008    5.897486   -5.663035   -1.484610
  28 H     1.0000    0     1.008    9.741194   -3.107776   -2.513855
  29 H     1.0000    0     1.008   10.370445   -5.402961   -0.158178
  30 H     1.0000    0     1.008    9.984372   -2.190111    0.702712
  31 H     1.0000    0     1.008   -2.984586   -1.621878    1.298444
  32 H     1.0000    0     1.008   -4.293106    0.960793   -0.352842
  33 H     1.0000    0     1.008   -2.723084   -4.053051   -2.790551
  34 H     1.0000    0     1.008   -3.960473   -1.431617   -4.426965
  35 H     1.0000    0     1.008   -7.924172   -1.693650   -1.842785
  36 H     1.0000    0     1.008   -6.675229   -4.311051   -0.194343
  37 H     1.0000    0     1.008   -6.437932   -6.754424   -4.236082
  38 H     1.0000    0     1.008   -7.691741   -4.122364   -5.893721
  39 H     1.0000    0     1.008   -9.553690   -5.703588   -3.603322

--------------------------------
INTERNAL COORDINATES (ANGSTROEM)
--------------------------------
 C      0   0   0     0.000000000000     0.00000000     0.00000000
 C      1   0   0     1.520432015770     0.00000000     0.00000000
 C      2   1   0     1.529875252139   111.50829690     0.00000000
 C      3   2   1     1.529329329784   111.06635037   180.03808093
 P      4   3   2     1.853703891684   112.31173732   182.19806733
 C      5   4   3     1.853703530517    99.99821651   181.21557406
 C      6   5   4     1.529329538379   112.31171667   283.34331391
 C      7   6   5     1.529875214223   111.06633023   182.19789376
 C      8   7   6     1.520432882609   111.50828612   180.03806624
 C      5   4   3     1.853704346744    99.99820518   283.34338429
 C     10   5   4     1.529329873420   112.31167911   181.21534381
 C     11  10   5     1.529875357656   111.06631112   182.19804125
 C     12  11  10     1.520431658874   111.50828362   180.03784894
 H      1   2   3     1.094676421776   110.99979748   299.75329026
 H      1   2   3     1.094486385336   110.25933218   180.01241360
 H      1   2   3     1.094681953803   111.00248686    60.27431259
 H      2   1   3     1.096239029689   109.14058311   238.46920332
 H      2   1   3     1.096228326785   109.12173689   121.56192625
 H      3   2   1     1.097636247224   109.30528141    58.42039374
 H      3   2   1     1.096554348299   109.07998408   301.98403287
 H      4   3   2     1.095778044077   110.16427614    59.42420137
 H      4   3   2     1.095343209799   108.82163766   302.15137648
 H      6   5   4     1.095343401584   108.34460513   163.11318976
 H      6   5   4     1.095778069996   109.83015481    46.30533012
 H      7   6   5     1.097636901386   110.05173034   303.37836767
 H      7   6   5     1.096554004005   110.43409607    61.04415151
 H      8   7   6     1.096238337216   109.84202227   301.16082319
 H      8   7   6     1.096227917819   109.87695465    58.91527405
 H      9   8   7     1.094677971039   110.99971339   299.75293712
 H      9   8   7     1.094485242884   110.25929562   180.01210009
 H      9   8   7     1.094681690743   111.00255309    60.27385267
 H     10   5   4     1.095777030132   109.83016525   304.17737868
 H     10   5   4     1.095342906018   108.34460067    60.98526525
 H     11  10   5     1.096554357975   110.43410612    61.04429717
 H     11  10   5     1.097636025038   110.05176234   303.37847676
 H     12  11  10     1.096228053267   109.87688000    58.91508043
 H     12  11  10     1.096238629045   109.84205004   301.16075653
 H     13  12  11     1.094681367235   111.00260114    60.27392703
 H     13  12  11     1.094677324143   110.99968610   299.75294348
 H     13  12  11     1.094486160670   110.25929629   180.01213347

---------------------------
INTERNAL COORDINATES (A.U.)
---------------------------
 C      0   0   0     0.000000000000     0.00000000     0.00000000
 C      1   0   0     2.873200115051     0.00000000     0.00000000
 C      2   1   0     2.891045245606   111.50829690     0.00000000
 C      3   2   1     2.890013601865   111.06635037   180.03808093
 P      4   3   2     3.502992688666   112.31173732   182.19806733
 C      5   4   3     3.502992006159    99.99821651   181.21557406
 C      6   5   4     2.890013996052   112.31171667   283.34331391
 C      7   6   5     2.891045173956   111.06633023   182.19789376
 C      8   7   6     2.873201753139   111.50828612   180.03806624
 C      5   4   3     3.502993548606    99.99820518   283.34338429
 C     10   5   4     2.890014629189   112.31167911   181.21534381
 C     11  10   5     2.891045445005   111.06631112   182.19804125
 C     12  11  10     2.873199440615   111.50828362   180.03784894
 H      1   2   3     2.068638642417   110.99979748   299.75329026
 H      1   2   3     2.068279525590   110.25933218   180.01241360
 H      1   2   3     2.068649096433   111.00248686    60.27431259
 H      2   1   3     2.071591543428   109.14058311   238.46920332
 H      2   1   3     2.071571317871   109.12173689   121.56192625
 H      3   2   1     2.074231901919   109.30528141    58.42039374
 H      3   2   1     2.072187409245   109.07998408   301.98403287
 H      4   3   2     2.070720406870   110.16427614    59.42420137
 H      4   3   2     2.069898689171   108.82163766   302.15137648
 H      6   5   4     2.069899051592   108.34460513   163.11318976
 H      6   5   4     2.070720455850   109.83015481    46.30533012
 H      7   6   5     2.074233138106   110.05173034   303.37836767
 H      7   6   5     2.072186758624   110.43409607    61.04415151
 H      8   7   6     2.071590234843   109.84202227   301.16082319
 H      8   7   6     2.071570545037   109.87695465    58.91527405
 H      9   8   7     2.068641570099   110.99971339   299.75293712
 H      9   8   7     2.068277366669   110.25929562   180.01210009
 H      9   8   7     2.068648599322   111.00255309    60.27385267
 H     10   5   4     2.070718490790   109.83016525   304.17737868
 H     10   5   4     2.069898115107   108.34460067    60.98526525
 H     11  10   5     2.072187427531   110.43410612    61.04429717
 H     11  10   5     2.074231482048   110.05176234   303.37847676
 H     12  11  10     2.071570800996   109.87688000    58.91508043
 H     12  11  10     2.071590786320   109.84205004   301.16075653
 H     13  12  11     2.068647987980   111.00260114    60.27392703
 H     13  12  11     2.068640347644   110.99968610   299.75294348
 H     13  12  11     2.068279101034   110.25929629   180.01213347

---------------------
BASIS SET INFORMATION
---------------------
There are 3 groups of distinct atoms

 Group   1 Type C   : 7s4p1d contracted to 3s2p1d pattern {511/31/1}
 Group   2 Type P   : 10s7p1d contracted to 4s3p1d pattern {5311/511/1}
 Group   3 Type H   : 4s1p contracted to 2s1p pattern {31/1}

Atom   0C    basis set group =>   1
Atom   1C    basis set group =>   1
Atom   2C    basis set group =>   1
Atom   3C    basis set group =>   1
Atom   4P    basis set group =>   2
Atom   5C    basis set group =>   1
Atom   6C    basis set group =>   1
Atom   7C    basis set group =>   1
Atom   8C    basis set group =>   1
Atom   9C    basis set group =>   1
Atom  10C    basis set group =>   1
Atom  11C    basis set group =>   1
Atom  12C    basis set group =>   1
Atom  13H    basis set group =>   3
Atom  14H    basis set group =>   3
Atom  15H    basis set group =>   3
Atom  16H    basis set group =>   3
Atom  17H    basis set group =>   3
Atom  18H    basis set group =>   3
Atom  19H    basis set group =>   3
Atom  20H    basis set group =>   3
Atom  21H    basis set group =>   3
Atom  22H    basis set group =>   3
Atom  23H    basis set group =>   3
Atom  24H    basis set group =>   3
Atom  25H    basis set group =>   3
Atom  26H    basis set group =>   3
Atom  27H    basis set group =>   3
Atom  28H    basis set group =>   3
Atom  29H    basis set group =>   3
Atom  30H    basis set group =>   3
Atom  31H    basis set group =>   3
Atom  32H    basis set group =>   3
Atom  33H    basis set group =>   3
Atom  34H    basis set group =>   3
Atom  35H    basis set group =>   3
Atom  36H    basis set group =>   3
Atom  37H    basis set group =>   3
Atom  38H    basis set group =>   3
Atom  39H    basis set group =>   3
---------------------------------
AUXILIARY/J BASIS SET INFORMATION
---------------------------------
There are 3 groups of distinct atoms

 Group   1 Type C   : 12s5p4d2f1g contracted to 6s4p3d1f1g pattern {711111/2111/211/2/1}
 Group   2 Type P   : 14s5p5d2f1g contracted to 8s4p3d1f1g pattern {71111111/2111/311/2/1}
 Group   3 Type H   : 5s2p1d contracted to 3s1p1d pattern {311/2/1}

Atom   0C    basis set group =>   1
Atom   1C    basis set group =>   1
Atom   2C    basis set group =>   1
Atom   3C    basis set group =>   1
Atom   4P    basis set group =>   2
Atom   5C    basis set group =>   1
Atom   6C    basis set group =>   1
Atom   7C    basis set group =>   1
Atom   8C    basis set group =>   1
Atom   9C    basis set group =>   1
Atom  10C    basis set group =>   1
Atom  11C    basis set group =>   1
Atom  12C    basis set group =>   1
Atom  13H    basis set group =>   3
Atom  14H    basis set group =>   3
Atom  15H    basis set group =>   3
Atom  16H    basis set group =>   3
Atom  17H    basis set group =>   3
Atom  18H    basis set group =>   3
Atom  19H    basis set group =>   3
Atom  20H    basis set group =>   3
Atom  21H    basis set group =>   3
Atom  22H    basis set group =>   3
Atom  23H    basis set group =>   3
Atom  24H    basis set group =>   3
Atom  25H    basis set group =>   3
Atom  26H    basis set group =>   3
Atom  27H    basis set group =>   3
Atom  28H    basis set group =>   3
Atom  29H    basis set group =>   3
Atom  30H    basis set group =>   3
Atom  31H    basis set group =>   3
Atom  32H    basis set group =>   3
Atom  33H    basis set group =>   3
Atom  34H    basis set group =>   3
Atom  35H    basis set group =>   3
Atom  36H    basis set group =>   3
Atom  37H    basis set group =>   3
Atom  38H    basis set group =>   3
Atom  39H    basis set group =>   3


           ************************************************************
           *        Program running with 6 parallel MPI-processes     *
           *              working on a common directory               *
           ************************************************************
------------------------------------------------------------------------------
                             ORCA STARTUP CALCULATIONS
                           -- RI-GTO INTEGRALS CHOSEN --
------------------------------------------------------------------------------
------------------------------------------------------------------------------
                   ___                                                        
                  /   \      - P O W E R E D   B Y -                         
                 /     \                                                     
                 |  |  |   _    _      __       _____    __    __             
                 |  |  |  | |  | |    /  \     |  _  \  |  |  /  |          
                  \  \/   | |  | |   /    \    | | | |  |  | /  /          
                 / \  \   | |__| |  /  /\  \   | |_| |  |  |/  /          
                |  |  |   |  __  | /  /__\  \  |    /   |      \           
                |  |  |   | |  | | |   __   |  |    \   |  |\   \          
                \     /   | |  | | |  |  |  |  | |\  \  |  | \   \       
                 \___/    |_|  |_| |__|  |__|  |_| \__\ |__|  \__/        
                                                                              
                      - O R C A' S   B I G   F R I E N D -                    
                                      &                                       
                       - I N T E G R A L  F E E D E R -                       
                                                                              
 v1 FN, 2020, v2 2021, v3 2022-2024                                           
------------------------------------------------------------------------------


----------------------
SHARK INTEGRAL PACKAGE
----------------------

Number of atoms                             ...     40
Number of basis functions                   ...    321
Number of shells                            ...    161
Maximum angular momentum                    ...      2
Integral batch strategy                     ... SHARK/LIBINT Hybrid
RI-J (if used) integral strategy            ... SPLIT-RIJ (Revised 2003 algorithm where possible)
Printlevel                                  ...      1
Contraction scheme used                     ... SEGMENTED contraction
Prescreening option                         ... SCHWARTZ
   Thresh                                   ... 2.500e-11
   Tcut                                     ... 2.500e-12
   Tpresel                                  ... 2.500e-12 
Coulomb Range Separation                    ... NOT USED
Exchange Range Separation                   ... NOT USED
Multipole approximations                    ... NOT USED
Finite Nucleus Model                        ... NOT USED
CABS basis                                  ... NOT available
Auxiliary Coulomb fitting basis             ... AVAILABLE
   # of basis functions in Aux-J            ...    936
   # of shells in Aux-J                     ...    332
   Maximum angular momentum in Aux-J        ...      4
Auxiliary J/K fitting basis                 ... NOT available
Auxiliary Correlation fitting basis         ... NOT available
Auxiliary 'external' fitting basis          ... NOT available

Checking pre-screening integrals            ... done (  0.0 sec) Dimension = 161
Check shell pair data                       ... done (  0.0 sec)
Shell pair information
Shell pair cut-off parameter TPreSel        ...   2.5e-12
Total number of shell pairs                 ...     13041
Shell pairs after pre-screening             ...      9635
Total number of primitive shell pairs       ...     44513
Primitive shell pairs kept                  ...     22173
          la=0 lb=0:   3526 shell pairs
          la=1 lb=0:   3768 shell pairs
          la=1 lb=1:    990 shell pairs
          la=2 lb=0:    856 shell pairs
          la=2 lb=1:    438 shell pairs
          la=2 lb=2:     57 shell pairs

Calculating one electron integrals          ... done (  0.0 sec)
Calculating RI/J V-Matrix + Cholesky decomp.... done (  0.0 sec)
Calculating Nuclear repulsion               ... done (  0.0 sec) ENN=    922.812865580988 Eh

Diagonalization of the overlap matrix:
Smallest eigenvalue                        ... 1.133e-03
Time for diagonalization                   ...    0.013 sec
Threshold for overlap eigenvalues          ... 1.000e-07
Number of eigenvalues below threshold      ... 0
Time for construction of square roots      ...    0.009 sec
Total time needed                          ...    0.023 sec

-------------------
DFT GRID GENERATION
-------------------

General Integration Accuracy     IntAcc      ... 4.388
Radial Grid Type                 RadialGrid  ... OptM3 with GC (2021)
Angular Grid (max. ang.)         AngularGrid ... 4 (Lebedev-302)
Angular grid pruning method      GridPruning ... 4 (adaptive)
Weight generation scheme         WeightScheme... mBecke (2022)
Basis function cutoff            BFCut       ... 1.0000e-11
Integration weight cutoff        WCut        ... 1.0000e-14
Partially contracted basis set               ... off
Rotationally invariant grid construction     ... off
Angular grids for H and He will be reduced by one unit

Total number of grid points                  ...   165007
Total number of batches                      ...     2599
Average number of points per batch           ...       63
Average number of grid points per atom       ...     4125
Initializing property integral containers    ... done (  0.0 sec)

SHARK setup successfully completed in   1.1 seconds

Maximum memory used throughout the entire STARTUP-calculation: 44.7 MB


           ************************************************************
           *        Program running with 6 parallel MPI-processes     *
           *              working on a common directory               *
           ************************************************************
-------------------------------------------------------------------------------
                                 ORCA GUESS
                   Start orbitals & Density for SCF / CASSCF
-------------------------------------------------------------------------------

------------
SCF SETTINGS
------------
Hamiltonian:
 Density Functional     Method          .... DFT(GTOs)
 Exchange Functional    Exchange        .... B88
   X-Alpha parameter    XAlpha          ....  0.666667
   Becke's b parameter  XBeta           ....  0.004200
 Correlation Functional Correlation     .... LYP
 LDA part of GGA corr.  LDAOpt          .... VWN-5
 Gradients option       PostSCFGGA      .... off
 Hybrid DFT is turned on
   Fraction HF Exchange ScalHFX         ....  0.200000
   Scaling of DF-GGA-X  ScalDFX         ....  0.720000
   Scaling of DF-GGA-C  ScalDFC         ....  0.810000
   Scaling of DF-LDA-C  ScalLDAC        ....  1.000000
   Perturbative correction              ....  0.000000
   NL short-range parameter             ....  4.800000
 RI-approximation to the Coulomb term is turned on
   Number of AuxJ basis functions       .... 936
   RIJ-ON(X) (HFX calculated with O(N)) .... on


General Settings:
 Integral files         IntName         .... data/geom_opt/13831/13831
 Hartree-Fock type      HFTyp           .... RHF
 Total Charge           Charge          ....    0
 Multiplicity           Mult            ....    1
 Number of Electrons    NEL             ....  114
 Basis Dimension        Dim             ....  321
 Nuclear Repulsion      ENuc            ....    922.8128655810 Eh

Convergence Acceleration:
 AO-DIIS                CNVDIIS         .... on
   Start iteration      DIISMaxIt       ....    12
   Startup error        DIISStart       ....  0.200000
   # of expansion vecs  DIISMaxEq       ....     5
   Bias factor          DIISBfac        ....   1.050
   Max. coefficient     DIISMaxC        ....  10.000
 MO-DIIS                CNVKDIIS        .... off
 Trust-Rad. Augm. Hess. CNVTRAH         .... auto
   Auto Start mean grad. ratio tolernc. ....  1.125000
   Auto Start start iteration           ....    50
   Auto Start num. interpolation iter.  ....    10
   Max. Number of Micro iterations      ....    24
   Max. Number of Macro iterations      .... Maxiter - #DIIS iter
   Number of Davidson start vectors     ....     2
   Converg. threshold    (grad. norm)   ....   1.000e-05
   Grad. Scal. Fac. for Micro threshold ....   0.100
   Minimum threshold for Micro iter.    ....   1.000e-02
   NR start threshold (gradient norm)   ....   1.000e-04
   Initial trust radius                 ....   0.400
   Minimum AH scaling param. (alpha)    ....   1.000
   Maximum AH scaling param. (alpha)    .... 1000.000
   Quad. conv. algorithm                .... NR
   White noise on init. David. guess    .... on
   Maximum white noise                  ....   0.010
   Pseudo random numbers                .... off
   Inactive MOs                         .... canonical
   Orbital update algorithm             .... Taylor
   Preconditioner                       .... Diag
   Full preconditioner red. dimension   ....   250
   COSX micro iterations for RIJONX calc.... off
 SOSCF                  CNVSOSCF        .... on
   Start iteration      SOSCFMaxIt      ....   150
   Startup grad/error   SOSCFStart      ....  0.003300
   Hessian update       SOSCFHessUp     .... L-BFGS
 Level Shifting         CNVShift        .... on
   Level shift para.    LevelShift      ....    0.2500
   Turn off err/grad.   ShiftErr        ....    0.0010
 Zerner damping         CNVZerner       .... off
 Static damping         CNVDamp         .... on
   Fraction old density DampFac         ....    0.7000
   Max. Damping (<1)    DampMax         ....    0.9800
   Min. Damping (>=0)   DampMin         ....    0.0000
   Turn off err/grad.   DampErr         ....    0.1000

SCF Procedure:
 Maximum # iterations   MaxIter         ....   125
 SCF integral mode      SCFMode         .... Direct
   Integral package                     .... SHARK and LIBINT hybrid scheme
 Reset frequency        DirectResetFreq ....    20
 Integral Threshold     Thresh          ....  2.500e-11 Eh
 Primitive CutOff       TCut            ....  2.500e-12 Eh

Convergence Tolerance:
 Convergence Check Mode ConvCheckMode   .... Total+1el-Energy
 Convergence forced     ConvForced      .... 0
 Energy Change          TolE            ....  1.000e-08 Eh
 1-El. energy change                    ....  1.000e-05 Eh
 Orbital Gradient       TolG            ....  1.000e-05
 Orbital Rotation angle TolX            ....  1.000e-05
 DIIS Error             TolErr          ....  5.000e-07

------------------------------
INITIAL GUESS: MODEL POTENTIAL
------------------------------
Loading Hartree-Fock densities                     ... done
Calculating cut-offs                               ... done
Initializing the effective Hamiltonian             ... done
Setting up the integral package (SHARK)            ... done
Starting the Coulomb interaction                   ... done (   0.2 sec)
Making the grid                                    ... done (   0.2 sec)
Mapping shells                                     ... done
Starting the XC term evaluation                    ... done (   0.1 sec)
  promolecular density results
     # of electrons  =    113.990229859
     EX              =    -92.394754410
     EC              =     -3.760925881
     EX+EC           =    -96.155680291
Transforming the Hamiltonian                       ... done (   0.0 sec)
Diagonalizing the Hamiltonian                      ... done (   0.0 sec)
Back transforming the eigenvectors                 ... done (   0.0 sec)
Now organizing SCF variables                       ... done
                      ------------------
                      INITIAL GUESS DONE (   0.5 sec)
                      ------------------
             **** ENERGY FILE WAS UPDATED (data/geom_opt/13831/13831.en.tmp) ****
Finished Guess after   0.6 sec
Maximum memory used throughout the entire GUESS-calculation: 22.9 MB


           ************************************************************
           *        Program running with 6 parallel MPI-processes     *
           *              working on a common directory               *
           ************************************************************

-------------------------------------------------------------------------------------------
                                      ORCA LEAN-SCF
                              memory conserving SCF solver
-------------------------------------------------------------------------------------------

----------------------------------------D-I-I-S--------------------------------------------
Iteration    Energy (Eh)           Delta-E    RMSDP     MaxDP     DIISErr   Damp  Time(sec)
-------------------------------------------------------------------------------------------
               ***  Starting incremental Fock matrix formation  ***
    1    -813.5636018897446320     0.00e+00  2.52e-03  7.96e-02  1.76e-01  0.700   3.0
    2    -813.7963215477741414    -2.33e-01  1.82e-03  5.15e-02  9.23e-02  0.700   2.8
                               ***Turning on AO-DIIS***
    3    -813.8907984389843477    -9.45e-02  7.79e-04  3.73e-02  3.52e-02  0.700   2.7
    4    -813.9446237875106362    -5.38e-02  1.40e-03  8.07e-02  1.68e-02  0.000   2.4
    5    -814.0613501180771436    -1.17e-01  2.38e-04  1.27e-02  6.83e-03  0.000   2.5
                              *** Initializing SOSCF ***
---------------------------------------S-O-S-C-F--------------------------------------
Iteration    Energy (Eh)           Delta-E    RMSDP     MaxDP     MaxGrad    Time(sec)
--------------------------------------------------------------------------------------
    6    -814.0621681503669151    -8.18e-04  8.75e-05  1.87e-03  1.73e-03     2.4
               *** Restarting incremental Fock matrix formation ***
    7    -814.0622450027622108    -7.69e-05  6.30e-05  2.91e-03  3.26e-04     3.0
    8    -814.0622468157760068    -1.81e-06  1.92e-05  1.10e-03  1.95e-04     2.2
    9    -814.0622522401683909    -5.42e-06  4.36e-06  3.94e-04  2.04e-05     2.1
   10    -814.0622522700712125    -2.99e-08  1.98e-06  1.77e-04  2.03e-05     1.8
   11    -814.0622522916601156    -2.16e-08  4.99e-07  1.20e-05  2.79e-06     1.6
   12    -814.0622522797841611     1.19e-08  1.95e-07  9.19e-06  1.48e-06     1.4
                  *** Gradient check signals convergence ***

               *****************************************************
               *                     SUCCESS                       *
               *           SCF CONVERGED AFTER  12 CYCLES          *
               *****************************************************

             **** ENERGY FILE WAS UPDATED (data/geom_opt/13831/13831.en.tmp) ****

----------------
TOTAL SCF ENERGY
----------------

Total Energy       :       -814.06225227978416 Eh          -22151.76006 eV

Components:
Nuclear Repulsion  :        922.81286558098782 Eh           25111.01469 eV
Electronic Energy  :      -1736.87511786077198 Eh          -47262.77475 eV
One Electron Energy:      -2940.39937715513452 Eh          -80012.33480 eV
Two Electron Energy:       1203.52425929436254 Eh           32749.56005 eV

Virial components:
Potential Energy   :      -1621.71769645449126 Eh          -44129.18200 eV
Kinetic Energy     :        807.65544417470710 Eh           21977.42195 eV
Virial Ratio       :          2.00793260065451

DFT components:
N(Alpha)           :       57.000050617389 electrons
N(Beta)            :       57.000050617389 electrons
N(Total)           :      114.000101234778 electrons
E(X)               :      -74.791979629172 Eh       
E(C)               :       -4.445180556924 Eh       
E(XC)              :      -79.237160186096 Eh       

---------------
SCF CONVERGENCE
---------------

  Last Energy change         ...   -1.1876e-08  Tolerance :   1.0000e-08
  Last MAX-Density change    ...    9.1879e-06  Tolerance :   1.0000e-07
  Last RMS-Density change    ...    1.9479e-07  Tolerance :   5.0000e-09
  Last DIIS Error            ...    1.7309e-03  Tolerance :   5.0000e-07
  Last Orbital Gradient      ...    1.4832e-06  Tolerance :   1.0000e-05
  Last Orbital Rotation      ...    1.9022e-06  Tolerance :   1.0000e-05


----------------
ORBITAL ENERGIES
----------------

  NO   OCC          E(Eh)            E(eV) 
   0   2.0000     -77.023033     -2095.9033 
   1   2.0000     -10.176440      -276.9150 
   2   2.0000     -10.176429      -276.9147 
   3   2.0000     -10.176416      -276.9144 
   4   2.0000     -10.174531      -276.8631 
   5   2.0000     -10.174529      -276.8630 
   6   2.0000     -10.174518      -276.8627 
   7   2.0000     -10.173258      -276.8284 
   8   2.0000     -10.173239      -276.8279 
   9   2.0000     -10.173183      -276.8264 
  10   2.0000     -10.169745      -276.7328 
  11   2.0000     -10.169742      -276.7327 
  12   2.0000     -10.169741      -276.7327 
  13   2.0000      -6.521470      -177.4582 
  14   2.0000      -4.686797      -127.5342 
  15   2.0000      -4.686793      -127.5341 
  16   2.0000      -4.683741      -127.4511 
  17   2.0000      -0.798860       -21.7381 
  18   2.0000      -0.786677       -21.4066 
  19   2.0000      -0.786670       -21.4064 
  20   2.0000      -0.742457       -20.2033 
  21   2.0000      -0.711650       -19.3650 
  22   2.0000      -0.711646       -19.3649 
  23   2.0000      -0.648026       -17.6337 
  24   2.0000      -0.612385       -16.6638 
  25   2.0000      -0.612382       -16.6638 
  26   2.0000      -0.571537       -15.5523 
  27   2.0000      -0.570681       -15.5290 
  28   2.0000      -0.570677       -15.5289 
  29   2.0000      -0.515761       -14.0346 
  30   2.0000      -0.471786       -12.8379 
  31   2.0000      -0.471780       -12.8378 
  32   2.0000      -0.471200       -12.8220 
  33   2.0000      -0.431386       -11.7386 
  34   2.0000      -0.431380       -11.7385 
  35   2.0000      -0.429615       -11.6904 
  36   2.0000      -0.415247       -11.2994 
  37   2.0000      -0.415244       -11.2994 
  38   2.0000      -0.412139       -11.2149 
  39   2.0000      -0.394219       -10.7272 
  40   2.0000      -0.394211       -10.7270 
  41   2.0000      -0.382229       -10.4010 
  42   2.0000      -0.363097        -9.8804 
  43   2.0000      -0.363094        -9.8803 
  44   2.0000      -0.360769        -9.8170 
  45   2.0000      -0.347639        -9.4597 
  46   2.0000      -0.347637        -9.4597 
  47   2.0000      -0.337590        -9.1863 
  48   2.0000      -0.333177        -9.0662 
  49   2.0000      -0.333174        -9.0661 
  50   2.0000      -0.332144        -9.0381 
  51   2.0000      -0.326944        -8.8966 
  52   2.0000      -0.322242        -8.7687 
  53   2.0000      -0.322240        -8.7686 
  54   2.0000      -0.286707        -7.8017 
  55   2.0000      -0.286703        -7.8016 
  56   2.0000      -0.212371        -5.7789 
  57   0.0000       0.055500         1.5102 
  58   0.0000       0.055522         1.5108 
  59   0.0000       0.057073         1.5530 
  60   0.0000       0.072646         1.9768 
  61   0.0000       0.072655         1.9770 
  62   0.0000       0.073004         1.9865 
  63   0.0000       0.086062         2.3419 
  64   0.0000       0.086073         2.3422 
  65   0.0000       0.094970         2.5843 
  66   0.0000       0.103068         2.8046 
  67   0.0000       0.103083         2.8050 
*Only the first 10 virtual orbitals were printed.

                    ********************************
                    * MULLIKEN POPULATION ANALYSIS *
                    ********************************

-----------------------
MULLIKEN ATOMIC CHARGES
-----------------------
   0 C :    0.033617
   1 C :   -0.014739
   2 C :    0.025992
   3 C :   -0.117166
   4 P :    0.160459
   5 C :   -0.117863
   6 C :    0.025966
   7 C :   -0.014706
   8 C :    0.033657
   9 C :   -0.117468
  10 C :    0.025929
  11 C :   -0.014756
  12 C :    0.033657
  13 H :    0.003460
  14 H :    0.003370
  15 H :    0.002158
  16 H :   -0.007349
  17 H :   -0.005724
  18 H :    0.001787
  19 H :   -0.004747
  20 H :    0.005321
  21 H :    0.020674
  22 H :    0.020797
  23 H :    0.005515
  24 H :    0.001831
  25 H :   -0.004747
  26 H :   -0.007342
  27 H :   -0.005724
  28 H :    0.003474
  29 H :    0.003361
  30 H :    0.002156
  31 H :    0.005429
  32 H :    0.020730
  33 H :   -0.004724
  34 H :    0.001782
  35 H :   -0.005707
  36 H :   -0.007371
  37 H :    0.002171
  38 H :    0.003475
  39 H :    0.003366
Sum of atomic charges:   -0.0000000

--------------------------------
MULLIKEN REDUCED ORBITAL CHARGES
--------------------------------
  0 C s       :     2.968134  s :     2.968134
      pz      :     0.989882  p :     2.968422
      px      :     0.993658
      py      :     0.984882
      dz2     :     0.005737  d :     0.029827
      dxz     :     0.001647
      dyz     :     0.009463
      dx2y2   :     0.008277
      dxy     :     0.004703

  1 C s       :     3.020659  s :     3.020659
      pz      :     0.986979  p :     2.956209
      px      :     0.995500
      py      :     0.973730
      dz2     :     0.008755  d :     0.037871
      dxz     :     0.003277
      dyz     :     0.010287
      dx2y2   :     0.009223
      dxy     :     0.006329

  2 C s       :     2.997850  s :     2.997850
      pz      :     0.991381  p :     2.938727
      px      :     0.993718
      py      :     0.953628
      dz2     :     0.008788  d :     0.037431
      dxz     :     0.003224
      dyz     :     0.009961
      dx2y2   :     0.009306
      dxy     :     0.006152

  3 C s       :     3.056717  s :     3.056717
      pz      :     1.016520  p :     3.029668
      px      :     1.013384
      py      :     0.999764
      dz2     :     0.006998  d :     0.030781
      dxz     :     0.001873
      dyz     :     0.008686
      dx2y2   :     0.008132
      dxy     :     0.005093

  4 P s       :     5.791805  s :     5.791805
      pz      :     3.206121  p :     8.877304
      px      :     2.790989
      py      :     2.880193
      dz2     :     0.033008  d :     0.170432
      dxz     :     0.021713
      dyz     :     0.036352
      dx2y2   :     0.034115
      dxy     :     0.045245

  5 C s       :     3.056875  s :     3.056875
      pz      :     1.000932  p :     3.030205
      px      :     1.000429
      py      :     1.028843
      dz2     :     0.006500  d :     0.030783
      dxz     :     0.004992
      dyz     :     0.006697
      dx2y2   :     0.005868
      dxy     :     0.006726

  6 C s       :     2.997711  s :     2.997711
      pz      :     1.000079  p :     2.938891
      px      :     0.944174
      py      :     0.994638
      dz2     :     0.007321  d :     0.037432
      dxz     :     0.004981
      dyz     :     0.008171
      dx2y2   :     0.008599
      dxy     :     0.008359

  7 C s       :     3.020605  s :     3.020605
      pz      :     0.990169  p :     2.956230
      px      :     0.974349
      py      :     0.991712
      dz2     :     0.007596  d :     0.037872
      dxz     :     0.004986
      dyz     :     0.008194
      dx2y2   :     0.008732
      dxy     :     0.008365

  8 C s       :     2.968100  s :     2.968100
      pz      :     0.999694  p :     2.968416
      px      :     0.981324
      py      :     0.987398
      dz2     :     0.006692  d :     0.029826
      dxz     :     0.004682
      dyz     :     0.005442
      dx2y2   :     0.005491
      dxy     :     0.007520

  9 C s       :     3.056759  s :     3.056759
      pz      :     1.010605  p :     3.029927
      px      :     1.017443
      py      :     1.001879
      dz2     :     0.008367  d :     0.030782
      dxz     :     0.003543
      dyz     :     0.007406
      dx2y2   :     0.003966
      dxy     :     0.007500

 10 C s       :     2.997777  s :     2.997777
      pz      :     0.994024  p :     2.938862
      px      :     0.969141
      py      :     0.975697
      dz2     :     0.008824  d :     0.037432
      dxz     :     0.004800
      dyz     :     0.008089
      dx2y2   :     0.005864
      dxy     :     0.009855

 11 C s       :     3.020616  s :     3.020616
      pz      :     0.997061  p :     2.956268
      px      :     0.974153
      py      :     0.985054
      dz2     :     0.008963  d :     0.037872
      dxz     :     0.004758
      dyz     :     0.008193
      dx2y2   :     0.005929
      dxy     :     0.010029

 12 C s       :     2.968099  s :     2.968099
      pz      :     0.989135  p :     2.968418
      px      :     0.986416
      py      :     0.992867
      dz2     :     0.008393  d :     0.029827
      dxz     :     0.002674
      dyz     :     0.006825
      dx2y2   :     0.004791
      dxy     :     0.007144

 13 H s       :     0.973144  s :     0.973144
      pz      :     0.010725  p :     0.023396
      px      :     0.005386
      py      :     0.007284

 14 H s       :     0.973423  s :     0.973423
      pz      :     0.010930  p :     0.023207
      px      :     0.005200
      py      :     0.007077

 15 H s       :     0.974444  s :     0.974444
      pz      :     0.005244  p :     0.023398
      px      :     0.013677
      py      :     0.004478

 16 H s       :     0.984993  s :     0.984993
      pz      :     0.010623  p :     0.022356
      px      :     0.005337
      py      :     0.006395

 17 H s       :     0.983383  s :     0.983383
      pz      :     0.004403  p :     0.022341
      px      :     0.013321
      py      :     0.004618

 18 H s       :     0.976019  s :     0.976019
      pz      :     0.010726  p :     0.022195
      px      :     0.005247
      py      :     0.006222

 19 H s       :     0.982325  s :     0.982325
      pz      :     0.004600  p :     0.022423
      px      :     0.013376
      py      :     0.004447

 20 H s       :     0.971827  s :     0.971827
      pz      :     0.010685  p :     0.022852
      px      :     0.005241
      py      :     0.006926

 21 H s       :     0.956126  s :     0.956126
      pz      :     0.004875  p :     0.023200
      px      :     0.013527
      py      :     0.004799

 22 H s       :     0.956008  s :     0.956008
      pz      :     0.008354  p :     0.023195
      px      :     0.005151
      py      :     0.009690

 23 H s       :     0.971643  s :     0.971643
      pz      :     0.012960  p :     0.022842
      px      :     0.004385
      py      :     0.005497

 24 H s       :     0.975978  s :     0.975978
      pz      :     0.012969  p :     0.022191
      px      :     0.004058
      py      :     0.005165

 25 H s       :     0.982328  s :     0.982328
      pz      :     0.008269  p :     0.022419
      px      :     0.004797
      py      :     0.009353

 26 H s       :     0.984988  s :     0.984988
      pz      :     0.012825  p :     0.022355
      px      :     0.004365
      py      :     0.005164

 27 H s       :     0.983384  s :     0.983384
      pz      :     0.008209  p :     0.022340
      px      :     0.004776
      py      :     0.009356

 28 H s       :     0.973132  s :     0.973132
      pz      :     0.012936  p :     0.023394
      px      :     0.004640
      py      :     0.005818

 29 H s       :     0.973432  s :     0.973432
      pz      :     0.005398  p :     0.023207
      px      :     0.006670
      py      :     0.011139

 30 H s       :     0.974447  s :     0.974447
      pz      :     0.008478  p :     0.023397
      px      :     0.005287
      py      :     0.009632

 31 H s       :     0.971725  s :     0.971725
      pz      :     0.011536  p :     0.022846
      px      :     0.004825
      py      :     0.006486

 32 H s       :     0.956072  s :     0.956072
      pz      :     0.004633  p :     0.023198
      px      :     0.008152
      py      :     0.010414

 33 H s       :     0.982304  s :     0.982304
      pz      :     0.004652  p :     0.022420
      px      :     0.007583
      py      :     0.010185

 34 H s       :     0.976025  s :     0.976025
      pz      :     0.011440  p :     0.022193
      px      :     0.004079
      py      :     0.006673

 35 H s       :     0.983365  s :     0.983365
      pz      :     0.004638  p :     0.022341
      px      :     0.007710
      py      :     0.009993

 36 H s       :     0.985017  s :     0.985017
      pz      :     0.011395  p :     0.022354
      px      :     0.004152
      py      :     0.006807

 37 H s       :     0.974433  s :     0.974433
      pz      :     0.004677  p :     0.023396
      px      :     0.007836
      py      :     0.010883

 38 H s       :     0.973131  s :     0.973131
      pz      :     0.011801  p :     0.023394
      px      :     0.005154
      py      :     0.006440

 39 H s       :     0.973427  s :     0.973427
      pz      :     0.004981  p :     0.023207
      px      :     0.012629
      py      :     0.005597



                     *******************************
                     * LOEWDIN POPULATION ANALYSIS *
                     *******************************

----------------------
LOEWDIN ATOMIC CHARGES
----------------------
   0 C :   -0.053316
   1 C :   -0.034418
   2 C :   -0.040529
   3 C :   -0.173626
   4 P :    0.452226
   5 C :   -0.173740
   6 C :   -0.040550
   7 C :   -0.034424
   8 C :   -0.053320
   9 C :   -0.173684
  10 C :   -0.040546
  11 C :   -0.034432
  12 C :   -0.053321
  13 H :    0.019472
  14 H :    0.020406
  15 H :    0.018670
  16 H :    0.016169
  17 H :    0.016533
  18 H :    0.018364
  19 H :    0.013964
  20 H :    0.009813
  21 H :    0.017778
  22 H :    0.017805
  23 H :    0.009846
  24 H :    0.018381
  25 H :    0.013972
  26 H :    0.016178
  27 H :    0.016539
  28 H :    0.019477
  29 H :    0.020406
  30 H :    0.018671
  31 H :    0.009836
  32 H :    0.017787
  33 H :    0.013976
  34 H :    0.018370
  35 H :    0.016539
  36 H :    0.016170
  37 H :    0.018675
  38 H :    0.019477
  39 H :    0.020406

-------------------------------
LOEWDIN REDUCED ORBITAL CHARGES
-------------------------------
  0 C s       :     2.835451  s :     2.835451
      pz      :     1.058799  p :     3.143694
      px      :     1.052342
      py      :     1.032553
      dz2     :     0.014986  d :     0.074171
      dxz     :     0.003892
      dyz     :     0.022954
      dx2y2   :     0.019901
      dxy     :     0.012437

  1 C s       :     2.837053  s :     2.837053
      pz      :     1.035318  p :     3.105897
      px      :     1.047651
      py      :     1.022929
      dz2     :     0.021419  d :     0.091468
      dxz     :     0.006954
      dyz     :     0.025379
      dx2y2   :     0.021932
      dxy     :     0.015783

  2 C s       :     2.839154  s :     2.839154
      pz      :     1.042939  p :     3.110198
      px      :     1.047357
      py      :     1.019902
      dz2     :     0.021219  d :     0.091177
      dxz     :     0.006872
      dyz     :     0.025198
      dx2y2   :     0.022486
      dxy     :     0.015403

  3 C s       :     2.890647  s :     2.890647
      pz      :     1.088868  p :     3.207583
      px      :     1.064774
      py      :     1.053941
      dz2     :     0.018157  d :     0.075396
      dxz     :     0.004272
      dyz     :     0.020665
      dx2y2   :     0.019252
      dxy     :     0.013050

  4 P s       :     5.304803  s :     5.304803
      pz      :     3.292535  p :     9.017643
      px      :     2.810777
      py      :     2.914332
      dz2     :     0.043641  d :     0.225328
      dxz     :     0.025990
      dyz     :     0.048785
      dx2y2   :     0.045273
      dxy     :     0.061638

  5 C s       :     2.890642  s :     2.890642
      pz      :     1.074041  p :     3.207706
      px      :     1.046645
      py      :     1.087019
      dz2     :     0.016956  d :     0.075392
      dxz     :     0.010126
      dyz     :     0.016721
      dx2y2   :     0.015625
      dxy     :     0.015964

  6 C s       :     2.839140  s :     2.839140
      pz      :     1.059762  p :     3.110233
      px      :     1.012070
      py      :     1.038400
      dz2     :     0.019305  d :     0.091176
      dxz     :     0.010310
      dyz     :     0.019124
      dx2y2   :     0.021823
      dxy     :     0.020614

  7 C s       :     2.837045  s :     2.837045
      pz      :     1.054330  p :     3.105911
      px      :     1.018013
      py      :     1.033568
      dz2     :     0.019727  d :     0.091468
      dxz     :     0.010315
      dyz     :     0.019449
      dx2y2   :     0.021736
      dxy     :     0.020241

  8 C s       :     2.835452  s :     2.835452
      pz      :     1.060877  p :     3.143697
      px      :     1.025128
      py      :     1.057692
      dz2     :     0.017484  d :     0.074171
      dxz     :     0.009905
      dyz     :     0.013672
      dx2y2   :     0.015159
      dxy     :     0.017951

  9 C s       :     2.890643  s :     2.890643
      pz      :     1.059615  p :     3.207647
      px      :     1.086102
      py      :     1.061930
      dz2     :     0.019244  d :     0.075394
      dxz     :     0.008181
      dyz     :     0.019596
      dx2y2   :     0.009008
      dxy     :     0.019363

 10 C s       :     2.839144  s :     2.839144
      pz      :     1.039223  p :     3.110226
      px      :     1.029200
      py      :     1.041803
      dz2     :     0.021211  d :     0.091176
      dxz     :     0.010821
      dyz     :     0.020846
      dx2y2   :     0.013897
      dxy     :     0.024401

 11 C s       :     2.837047  s :     2.837047
      pz      :     1.040728  p :     3.105918
      px      :     1.023593
      py      :     1.041597
      dz2     :     0.021365  d :     0.091467
      dxz     :     0.010524
      dyz     :     0.021129
      dx2y2   :     0.014017
      dxy     :     0.024432

 12 C s       :     2.835450  s :     2.835450
      pz      :     1.043980  p :     3.143699
      px      :     1.052635
      py      :     1.047084
      dz2     :     0.019861  d :     0.074171
      dxz     :     0.006576
      dyz     :     0.018054
      dx2y2   :     0.011484
      dxy     :     0.018196

 13 H s       :     0.915781  s :     0.915781
      pz      :     0.029855  p :     0.064747
      px      :     0.014074
      py      :     0.020819

 14 H s       :     0.914681  s :     0.914681
      pz      :     0.030221  p :     0.064912
      px      :     0.013737
      py      :     0.020954

 15 H s       :     0.916639  s :     0.916639
      pz      :     0.012334  p :     0.064691
      px      :     0.039019
      py      :     0.013338

 16 H s       :     0.918829  s :     0.918829
      pz      :     0.031252  p :     0.065001
      px      :     0.014121
      py      :     0.019628

 17 H s       :     0.918559  s :     0.918559
      pz      :     0.012658  p :     0.064907
      px      :     0.038526
      py      :     0.013723

 18 H s       :     0.915913  s :     0.915913
      pz      :     0.032067  p :     0.065723
      px      :     0.013981
      py      :     0.019675

 19 H s       :     0.920201  s :     0.920201
      pz      :     0.013086  p :     0.065835
      px      :     0.039171
      py      :     0.013578

 20 H s       :     0.919845  s :     0.919845
      pz      :     0.035327  p :     0.070342
      px      :     0.014351
      py      :     0.020665

 21 H s       :     0.912371  s :     0.912371
      pz      :     0.014567  p :     0.069851
      px      :     0.040040
      py      :     0.015243

 22 H s       :     0.912342  s :     0.912342
      pz      :     0.022384  p :     0.069854
      px      :     0.016306
      py      :     0.031164

 23 H s       :     0.919807  s :     0.919807
      pz      :     0.037958  p :     0.070347
      px      :     0.014534
      py      :     0.017855

 24 H s       :     0.915896  s :     0.915896
      pz      :     0.036943  p :     0.065723
      px      :     0.013270
      py      :     0.015510

 25 H s       :     0.920194  s :     0.920194
      pz      :     0.022300  p :     0.065834
      px      :     0.015410
      py      :     0.028125

 26 H s       :     0.918821  s :     0.918821
      pz      :     0.036077  p :     0.065001
      px      :     0.013736
      py      :     0.015189

 27 H s       :     0.918554  s :     0.918554
      pz      :     0.022101  p :     0.064907
      px      :     0.015066
      py      :     0.027740

[...]
      px      :     1.052151
      py      :     1.045688
      dz2     :     0.019708  d :     0.072128
      dxz     :     0.006249
      dyz     :     0.017069
      dx2y2   :     0.011196
      dxy     :     0.017906

 13 H s       :     0.915600  s :     0.915600
      pz      :     0.029371  p :     0.063474
      px      :     0.013535
      py      :     0.020567

 14 H s       :     0.913895  s :     0.913895
      pz      :     0.029966  p :     0.063668
      px      :     0.013282
      py      :     0.020420

 15 H s       :     0.916451  s :     0.916451
      pz      :     0.012017  p :     0.063408
      px      :     0.038696
      py      :     0.012695

 16 H s       :     0.919230  s :     0.919230
      pz      :     0.030635  p :     0.063555
      px      :     0.013512
      py      :     0.019408

 17 H s       :     0.918985  s :     0.918985
      pz      :     0.012420  p :     0.063484
      px      :     0.038189
      py      :     0.012875

 18 H s       :     0.916612  s :     0.916612
      pz      :     0.031703  p :     0.064511
      px      :     0.013629
      py      :     0.019179

 19 H s       :     0.920885  s :     0.920885
      pz      :     0.012733  p :     0.064367
      px      :     0.038609
      py      :     0.013025

 20 H s       :     0.919894  s :     0.919894
      pz      :     0.034327  p :     0.068524
      px      :     0.013716
      py      :     0.020481

 21 H s       :     0.912805  s :     0.912805
      pz      :     0.014193  p :     0.068536
      px      :     0.039919
      py      :     0.014424

 22 H s       :     0.912788  s :     0.912788
      pz      :     0.021859  p :     0.068573
      px      :     0.016052
      py      :     0.030662

 23 H s       :     0.919850  s :     0.919850
      pz      :     0.037383  p :     0.068531
      px      :     0.013924
      py      :     0.017225

 24 H s       :     0.916585  s :     0.916585
      pz      :     0.036456  p :     0.064515
      px      :     0.012852
      py      :     0.015207

 25 H s       :     0.920945  s :     0.920945
      pz      :     0.021438  p :     0.064373
      px      :     0.014879
      py      :     0.028056

 26 H s       :     0.919214  s :     0.919214
      pz      :     0.035550  p :     0.063557
      px      :     0.013145
      py      :     0.014863

 27 H s       :     0.919016  s :     0.919016
      pz      :     0.021239  p :     0.063488
      px      :     0.014592
      py      :     0.027657

 28 H s       :     0.915599  s :     0.915599
      pz      :     0.035862  p :     0.063479
      px      :     0.013576
      py      :     0.014041

 29 H s       :     0.913901  s :     0.913901
      pz      :     0.013233  p :     0.063671
      px      :     0.019871
      py      :     0.030567

 30 H s       :     0.916440  s :     0.916440
      pz      :     0.021726  p :     0.063409
      px      :     0.015368
      py      :     0.026315

 31 H s       :     0.919852  s :     0.919852
      pz      :     0.035489  p :     0.068513
      px      :     0.014639
      py      :     0.018384

 32 H s       :     0.912811  s :     0.912811
      pz      :     0.012753  p :     0.068532
      px      :     0.026027
      py      :     0.029753

 33 H s       :     0.920848  s :     0.920848
      pz      :     0.012623  p :     0.064404
      px      :     0.022728
      py      :     0.029053

 34 H s       :     0.916622  s :     0.916622
      pz      :     0.034293  p :     0.064525
      px      :     0.012378
      py      :     0.017854

 35 H s       :     0.918988  s :     0.918988
      pz      :     0.012405  p :     0.063485
      px      :     0.022392
      py      :     0.028688

 36 H s       :     0.919225  s :     0.919225
      pz      :     0.033673  p :     0.063557
      px      :     0.012357
      py      :     0.017528

 37 H s       :     0.916442  s :     0.916442
      pz      :     0.012390  p :     0.063412
      px      :     0.020971
      py      :     0.030051

 38 H s       :     0.915595  s :     0.915595
      pz      :     0.034259  p :     0.063475
      px      :     0.011981
      py      :     0.017235

 39 H s       :     0.913892  s :     0.913892
      pz      :     0.013436  p :     0.063671
      px      :     0.035389
      py      :     0.014845



                      *****************************
                      * MAYER POPULATION ANALYSIS *
                      *****************************

  NA   - Mulliken gross atomic population
  ZA   - Total nuclear charge
  QA   - Mulliken gross atomic charge
  VA   - Mayer's total valence
  BVA  - Mayer's bonded valence
  FA   - Mayer's free valence

  ATOM       NA         ZA         QA         VA         BVA        FA
  0 C      5.9796     6.0000     0.0204     4.0132     4.0132     0.0000
  1 C      6.0155     6.0000    -0.0155     4.1199     4.1199    -0.0000
  2 C      5.9730     6.0000     0.0270     4.0409     4.0409    -0.0000
  3 C      6.1330     6.0000    -0.1330     3.9228     3.9228    -0.0000
  4 P     14.8272    15.0000     0.1728     3.0329     3.0329    -0.0000
  5 C      6.1341     6.0000    -0.1341     3.9233     3.9233    -0.0000
  6 C      5.9726     6.0000     0.0274     4.0408     4.0408     0.0000
  7 C      6.0156     6.0000    -0.0156     4.1199     4.1199    -0.0000
  8 C      5.9794     6.0000     0.0206     4.0131     4.0131    -0.0000
  9 C      6.1331     6.0000    -0.1331     3.9228     3.9228    -0.0000
 10 C      5.9738     6.0000     0.0262     4.0414     4.0414    -0.0000
 11 C      6.0153     6.0000    -0.0153     4.1198     4.1198    -0.0000
 12 C      5.9796     6.0000     0.0204     4.0133     4.0133     0.0000
 13 H      0.9934     1.0000     0.0066     0.9879     0.9879     0.0000
 14 H      0.9916     1.0000     0.0084     0.9818     0.9818     0.0000
 15 H      0.9946     1.0000     0.0054     0.9880     0.9880     0.0000
 16 H      1.0052     1.0000    -0.0052     0.9776     0.9776    -0.0000
 17 H      1.0039     1.0000    -0.0039     0.9777     0.9777     0.0000
 18 H      0.9974     1.0000     0.0026     0.9859     0.9859    -0.0000
 19 H      1.0035     1.0000    -0.0035     0.9871     0.9871    -0.0000
 20 H      0.9902     1.0000     0.0098     0.9859     0.9859     0.0000
 21 H      0.9765     1.0000     0.0235     0.9875     0.9875     0.0000
 22 H      0.9764     1.0000     0.0236     0.9876     0.9876    -0.0000
 23 H      0.9901     1.0000     0.0099     0.9859     0.9859     0.0000
 24 H      0.9974     1.0000     0.0026     0.9859     0.9859    -0.0000
 25 H      1.0037     1.0000    -0.0037     0.9872     0.9872     0.0000
 26 H      1.0052     1.0000    -0.0052     0.9776     0.9776     0.0000
 27 H      1.0039     1.0000    -0.0039     0.9777     0.9777     0.0000
 28 H      0.9934     1.0000     0.0066     0.9880     0.9880    -0.0000
 29 H      0.9916     1.0000     0.0084     0.9818     0.9818    -0.0000
 30 H      0.9946     1.0000     0.0054     0.9880     0.9880    -0.0000
 31 H      0.9901     1.0000     0.0099     0.9857     0.9857    -0.0000
 32 H      0.9763     1.0000     0.0237     0.9873     0.9873    -0.0000
 33 H      1.0033     1.0000    -0.0033     0.9872     0.9872    -0.0000
 34 H      0.9973     1.0000     0.0027     0.9859     0.9859    -0.0000
 35 H      1.0039     1.0000    -0.0039     0.9777     0.9777    -0.0000
 36 H      1.0052     1.0000    -0.0052     0.9776     0.9776    -0.0000
 37 H      0.9946     1.0000     0.0054     0.9880     0.9880     0.0000
 38 H      0.9933     1.0000     0.0067     0.9880     0.9880     0.0000
 39 H      0.9916     1.0000     0.0084     0.9818     0.9818     0.0000

  Mayer bond orders larger than 0.100000
B(  0-C ,  1-C ) :   1.1060 B(  0-C , 13-H ) :   0.9686 B(  0-C , 14-H ) :   0.9650 
B(  0-C , 15-H ) :   0.9684 B(  1-C ,  2-C ) :   1.0863 B(  1-C , 16-H ) :   0.9446 
B(  1-C , 17-H ) :   0.9451 B(  2-C ,  3-C ) :   1.0619 B(  2-C , 18-H ) :   0.9392 
B(  2-C , 19-H ) :   0.9402 B(  3-C ,  4-P ) :   0.9656 B(  3-C , 20-H ) :   0.9242 
B(  3-C , 21-H ) :   0.9383 B(  4-P ,  5-C ) :   0.9655 B(  4-P ,  9-C ) :   0.9655 
B(  5-C ,  6-C ) :   1.0620 B(  5-C , 22-H ) :   0.9382 B(  5-C , 23-H ) :   0.9242 
B(  6-C ,  7-C ) :   1.0863 B(  6-C , 24-H ) :   0.9393 B(  6-C , 25-H ) :   0.9400 
B(  7-C ,  8-C ) :   1.1060 B(  7-C , 26-H ) :   0.9445 B(  7-C , 27-H ) :   0.9452 
B(  8-C , 28-H ) :   0.9686 B(  8-C , 29-H ) :   0.9650 B(  8-C , 30-H ) :   0.9684 
B(  9-C , 10-C ) :   1.0621 B(  9-C , 31-H ) :   0.9242 B(  9-C , 32-H ) :   0.9383 
B( 10-C , 11-C ) :   1.0865 B( 10-C , 33-H ) :   0.9400 B( 10-C , 34-H ) :   0.9392 
B( 11-C , 12-C ) :   1.1060 B( 11-C , 35-H ) :   0.9451 B( 11-C , 36-H ) :   0.9446 
B( 12-C , 37-H ) :   0.9684 B( 12-C , 38-H ) :   0.9686 B( 12-C , 39-H ) :   0.9650 


-------
TIMINGS
-------

Total SCF time: 0 days 0 hours 0 min 7 sec 

Total time                  ....       7.496 sec
Sum of individual times     ....       7.421 sec  ( 99.0%)

SCF preparation             ....       0.112 sec  (  1.5%)
Fock matrix formation       ....       7.047 sec  ( 94.0%)
  Startup                   ....       0.011 sec  (  0.2% of F)
  Exchange formation        ....       5.333 sec  ( 75.7% of F)
  Split-RI-J                ....       0.565 sec  (  8.0% of F)
  XC integration            ....       1.101 sec  ( 15.6% of F)
    Basis function eval.    ....       0.306 sec  ( 27.8% of XC)
    Density eval.           ....       0.296 sec  ( 26.9% of XC)
    XC-Functional eval.     ....       0.021 sec  (  1.9% of XC)
    XC-Potential eval.      ....       0.302 sec  ( 27.4% of XC)
Diagonalization             ....       0.000 sec  (  0.0%)
Density matrix formation    ....       0.022 sec  (  0.3%)
Total Energy calculation    ....       0.009 sec  (  0.1%)
Population analysis         ....       0.079 sec  (  1.1%)
Orbital Transformation      ....       0.031 sec  (  0.4%)
Orbital Orthonormalization  ....       0.000 sec  (  0.0%)
DIIS solution               ....       0.038 sec  (  0.5%)
SOSCF solution              ....       0.083 sec  (  1.1%)
Finished LeanSCF after   7.5 sec

Maximum memory used throughout the entire LEANSCF-calculation: 33.7 MB


-------------------------------------------------------------------------------
                          DFT DISPERSION CORRECTION                            
                                                                               
                              DFTD3 V3.1  Rev 1                                
                          USING Becke-Johnson damping                          
-------------------------------------------------------------------------------
The B3LYP functional is recognized
Active option DFTDOPT                   ...         4   

molecular C6(AA) [au] = 12258.510479 


            DFT-D V3
 parameters
 s6 scaling factor         :     1.0000 
 a1 scaling factor         :     0.3981 
 s8 scaling factor         :     1.9889 
 a2 scaling factor         :     4.4211 
 ad hoc parameters k1-k3   :    16.0000     1.3333    -4.0000 

 Edisp/kcal,au: -40.158861523113  -0.063997212631 
 E6   /kcal   : -19.462049539 
 E8   /kcal   : -20.696811985 
 % E8         :  51.537347424 

-------------------------   ----------------
Dispersion correction           -0.063997213
-------------------------   ----------------


-------------------------   --------------------
FINAL SINGLE POINT ENERGY      -814.130818250530
-------------------------   --------------------

                                *** OPTIMIZATION RUN DONE ***



           ************************************************************
           *        Program running with 6 parallel MPI-processes     *
           *              working on a common directory               *
           ************************************************************

------------------------------------------------------------------------------
                              ORCA PROPERTY CALCULATIONS
------------------------------------------------------------------------------

GBWName                                 ... data/geom_opt/13831/13831.gbw
Number of atoms                         ...     40
Number of basis functions               ...    321
Max core memory                         ...   1024 MB

Electric properties:
Dipole moment                           ... YES
Quadrupole moment                       ...  NO
Static polarizability (Dipole/Dipole)   ...  NO
Static polarizability (Dipole/Quad.)    ...  NO
Static polarizability (Quad./Quad.)     ...  NO
Static polarizability (Velocity)        ...  NO

Atomic electric properties:
Dipole moment                           ...  NO
Quadrupole moment                       ...  NO
Static polarizability                   ...  NO

Choice of electric origin               ... Center of mass
Position of electric origin             ...     0.033578     0.101572    -0.210077

General magnetic properties:
Magnetizability                         ...  NO

EPR properties:
g-Tensor (aka g-matrix)                 ...  NO
Zero-Field splitting spin-orbit         ...  NO
Zero-field splitting spin-spin          ...  NO
Hyperfine couplings                     ...  NO (   0 nuclei)
Quadrupole couplings                    ...  NO (   0 nuclei)
Contact density                         ...  NO (   0 nuclei)

NMR properties:
Chemical shifts                         ...  NO (   0 nuclei)
Spin-rotation constants                 ...  NO (   0 nuclei)
Spin-spin couplings                     ...  NO (   0 nuclei,    0 pairs)

Choice of magnetic origin               ... GIAO
Position of magnetic origin             ...     0.000000     0.000000     0.000000

Properties with geometric perturbations:
SCF Hessian                             ...  NO
IR spectrum                             ...  NO
VCD spectrum                            ...  NO
X-ray spectroscopy properties:
SCF XES/XAS/RIXS spectra                ...  NO


-------------
DIPOLE MOMENT
-------------

Method             : SCF
Type of density    : Electron Density
Multiplicity       :   1
Irrep              :   0
Energy             :  -814.0668210378993308 Eh
Relativity type    : 
Basis              : AO
                                X                 Y                 Z
Electronic contribution:      0.594522748       1.807316856      -3.669216128
Nuclear contribution   :     -0.658973517      -1.994339646       4.053451027
                        -----------------------------------------
Total Dipole Moment    :     -0.064450768      -0.187022790       0.384234899
                        -----------------------------------------
Magnitude (a.u.)       :      0.432166499
Magnitude (Debye)      :      1.098479943



--------------------
Rotational spectrum 
--------------------
 
Rotational constants in cm-1:             0.012947             0.012905             0.006707 
Rotational constants in MHz :           388.138338           386.891292           201.066330 

Dipole components along the rotational axes: 
x,y,z [a.u.] :     0.000074    -0.000816     0.432166 
x,y,z [Debye]:     0.000188    -0.002074     1.098478 

 

Dipole moment calculation done in   0.0 sec 

Maximum memory used throughout the entire PROP-calculation: 16.2 MB

--------------------------------
SUGGESTED CITATIONS FOR THIS RUN
--------------------------------

Below you find a list of papers that are relevant to this ORCA run
We neither can nor want to force you to cite these papers, but we appreciate if you do
You receive ORCA, which is the product of decades of hard work by many enthusiastic individuals, for free
The only thing we kindly ask in return is that you cite our papers,
We deeply appreciate it, if you show your appreciation for ORCA by not just citing the generic ORCA reference.

Please note that relegating all ORCA citations to the supporting information does *not* help us.
SI sections are not indexed - citations you put there will not count into any citation statistics
But we need these citations in order to attract the funding resources that allow us to do what we are doing

Therefore, if you are a happy ORCA user, please consider citing a few of the papers listed below in the main body of your paper

In addition to the list printed below, the program has created the file data/geom_opt/13831/13831.bibtex that contains the list in bibtex format
You can import this file easily into all common literature databanks and citation aid programs


List of essential papers. We consider these as the minimum necessary citations

  1. Neese,F.
     Software update: the ORCA program system, version 5.0
     WIRES Comput. Molec. Sci., 2022 12(1)e1606
     doi.org/10.1002/wcms.1606

List of papers to cite with high priority. The work reported in these papers was absolutely
necessary for this run to complete.
Our perspective: the developers of density functionals and basis sets usually get cited in chemistry papers
Good! But without the algorithms to do something with them, the functionals or basis sets would not do anything.
Hence, in our opinion, the algorithm design and method developments papers are equally worthy of getting cited

  1. Neese,F.
     An improvement of the resolution of the identity approximation for the formation of the Coulomb matrix
     J. Comp. Chem., 2003 24(14)1740-1747
     doi.org/10.1002/jcc.10318
  2. Neese,F.
     The SHARK Integral Generation and Digestion System
     J. Comp. Chem., 2022  1-16
     doi.org/10.1002/jcc.26942
  3. Grimme,S.; Antony,J.; Ehrlich,S.; Krieg,H.
     A consistent and accurate ab initio parametrization of density functional dispersion correction (DFT-D) for the 94 elements H-Pu
     J. Chem. Phys., 2010 132 154104-XXXX
     doi.org/10.1063/1.3382344
  4. Grimme,S.; Ehrlich,S.; Goerigk,L.
     Effect of the damping function in dispersion corrected density functional theory
     J. Comput. Chem., 2011 32(7)1456-1465
     doi.org/10.1002/jcc.21759

List of suggested additional citations. These are papers that are important in the 'surrounding' of 
of this run, or papers that preceded the highly important papers. If you like your results we are grateful for a citation.

  1. Neese,F.
     The ORCA program system
     WIRES Comput. Molec. Sci., 2012 2(1)73-78
     doi.org/10.1002/wcms.81
  2. Neese,F.
     Software update: the ORCA program system, version 4.0
     WIRES Comput. Molec. Sci., 2018 8(1)1-6
     doi.org/10.1002/wcms.1327
  3. Neese,F.; Wennmohs,F.; Becker,U.; Riplinger,C.
     The ORCA quantum chemistry program package
     J. Chem. Phys., 2020 152 Art. No. L224108
     doi.org/10.1063/5.0004608

List of optional additional citations

  1. Neese,F.
     Approximate second-order SCF convergence for spin unrestricted wavefunctions
     Chem. Phys. Lett., 2000 325(1-3)93-98
     doi.org/10.1016/s0009-2614(00)00662-x

Timings for individual modules:

Sum of individual times          ...      197.781 sec (=   3.296 min)
Startup calculation              ...        9.375 sec (=   0.156 min)   4.7 %
SCF iterations                   ...      113.719 sec (=   1.895 min)  57.5 %
Property calculations            ...        0.163 sec (=   0.003 min)   0.1 %
SCF Gradient evaluation          ...       74.391 sec (=   1.240 min)  37.6 %
Geometry relaxation              ...        0.133 sec (=   0.002 min)   0.1 %
                             ****ORCA TERMINATED NORMALLY****
TOTAL RUN TIME: 0 days 0 hours 3 minutes 19 seconds 307 msec
