
                                 *****************
                                 * O   R   C   A *
                                 *****************

                                            #,                                       
                                            ###                                      
                                            ####                                     
                                            #####                                    
                                            ######                                   
                                           ########,                                 
                                     ,,################,,,,,                         
                               ,,#################################,,                 
                          ,,##########################################,,             
                       ,#########################################, ''#####,          
                    ,#############################################,,   '####,        
                  ,##################################################,,,,####,       
                ,###########''''           ''''###############################       
              ,#####''   ,,,,##########,,,,          '''####'''          '####       
            ,##' ,,,,###########################,,,                        '##       
           ' ,,###''''                  '''############,,,                           
         ,,##''                                '''############,,,,        ,,,,,,###''
      ,#''                                            '''#######################'''  
     '                                                          ''''####''''         
             ,#######,   #######,   ,#######,      ##                                
            ,#'     '#,  ##    ##  ,#'     '#,    #''#        ,####,   ,####,        
            ##       ##  ##   ,#'  ##            #'  '#       #'       #'  '#        
            ##       ##  #######   ##           ,######,      #####,   #    #        
            '#,     ,#'  ##    ##  '#,     ,#' ,#      #,     #,   #   #,  ,#        
             '#######'   ##     ##  '#######'  #'      '#     '####' # '####'        



                #########################################################
                #                        -***-                          #
                #          Department of theory and spectroscopy        #
                #                                                       #
                #                      Frank Neese                      #
                #                                                       #
                #     Directorship, Architecture, Infrastructure        #
                #                    SHARK, DRIVERS                     #
                #        Core code/Algorithms in most modules           #
                #                                                       #
                #        Max Planck Institute fuer Kohlenforschung      #
                #                Kaiser Wilhelm Platz 1                 #
                #                 D-45470 Muelheim/Ruhr                 #
                #                      Germany                          #
                #                                                       #
                #                  All rights reserved                  #
                #                        -***-                          #
                #########################################################


                         Program Version 6.0.0  -   RELEASE   -


 With contributions from (in alphabetic order):
   Daniel Aravena         : Magnetic Suceptibility
   Michael Atanasov       : Ab Initio Ligand Field Theory (pilot matlab implementation)
   Alexander A. Auer      : GIAO ZORA, VPT2 properties, NMR spectrum
   Ute Becker             : All parallelization in ORCA, NUMFREQ, NUMCALC
   Giovanni Bistoni       : ED, misc. LED, open-shell LED, HFLD
   Martin Brehm           : Molecular dynamics
   Dmytro Bykov           : pre 5.0 version of the SCF Hessian
   Marcos Casanova-Páez   : Triplet and SCS-CIS(D). UHF-(DLPNO)-IP/EA/STEOM-CCSD. UHF-CVS-IP/STEOM-CCSD
   Vijay G. Chilkuri      : MRCI spin determinant printing, contributions to CSF-ICE
   Pauline Colinet        : FMM embedding
   Dipayan Datta          : RHF DLPNO-CCSD density
   Achintya Kumar Dutta   : EOM-CC, STEOM-CC
   Nicolas Foglia         : Exact transition moments, OPA infrastructure, MCD improvements
   Dmitry Ganyushin       : Spin-Orbit,Spin-Spin,Magnetic field MRCI
   Miquel Garcia          : C-PCM and meta-GGA Hessian, CCSD/C-PCM, Gaussian charge scheme
   Tiago L. C. Gouveia    : GS-ROHF, GS-ROCIS
   Yang Guo               : DLPNO-NEVPT2, F12-NEVPT2, CIM, IAO-localization
   Andreas Hansen         : Spin unrestricted coupled pair/coupled cluster methods
   Ingolf Harden          : AUTO-CI MPn and infrastructure 
   Benjamin Helmich-Paris : MC-RPA, TRAH-(SCF,CASSCF), AVAS, COSX integrals, SCF dyn. polar.
   Lee Huntington         : MR-EOM, pCC
   Robert Izsak           : Overlap fitted RIJCOSX, COSX-SCS-MP3, EOM
   Riya Kayal             : Wick's Theorem for AUTO-CI, AUTO-CI UHF-CCSDT
   Emily Kempfer          : AUTO-CI, RHF CISDT and CCSDT
   Christian Kollmar      : KDIIS, OOCD, Brueckner-CCSD(T), CCSD density, CASPT2, CASPT2-K, improved NEVPT2
   Axel Koslowski         : Symmetry handling
   Simone Kossmann        : Meta GGA functionals, TD-DFT gradient, OOMP2, (MP2 Hessian; deprecated post 5.0)
   Lucas Lang             : DCDCAS
   Marvin Lechner         : AUTO-CI (C++ implementation), FIC-MRCC
   Spencer Leger          : CASSCF response
   Dagmar Lenk            : GEPOL surface, SMD, ORCA-2-JSON
   Dimitrios Liakos       : Extrapolation schemes; Compound Job, initial MDCI parallelization
   Dimitrios Manganas     : Further ROCIS development; embedding schemes. LFT, Crystal Embedding
   Dimitrios Pantazis     : SARC Basis sets
   Anastasios Papadopoulos: AUTO-CI, single reference methods and gradients
   Taras Petrenko         : pre 6.0 DFT Hessian and TD-DFT gradient, (ASA, deprecated), ECA, 1-Electron XAS/XES, NRVS
   Peter Pinski           : DLPNO-MP2, DLPNO-MP2 Gradient
   Christoph Reimann      : Effective Core Potentials
   Marius Retegan         : Local ZFS, SOC
   Christoph Riplinger    : Optimizer, TS searches, QM/MM, DLPNO-CCSD(T), (RO)-DLPNO pert. Triples
   Michael Roemelt        : Original ROCIS implementation
   Masaaki Saitow         : Open-shell DLPNO-CCSD energy and density
   Barbara Sandhoefer     : DKH picture change effects
   Kantharuban Sivalingam : CASSCF convergence/infrastructure, NEVPT2 and variants, FIC-MRCI
   Bernardo de Souza      : ESD, SOC TD-DFT
   Georgi Stoychev        : AutoAux, RI-MP2 NMR, DLPNO-MP2 response, X2C
   Van Anh Tran           : RI-MP2 g-tensors
   Willem Van den Heuvel  : Paramagnetic NMR
   Zikuan Wang            : NOTCH, Electric field optimization 
   Frank Wennmohs         : Technical directorship and infrastructure
   Hang Xu                : AUTO-CI-Response properties 


 We gratefully acknowledge several colleagues who have allowed us to
 interface, adapt or use parts of their codes:
   Stefan Grimme, W. Hujo, H. Kruse, P. Pracht,  : VdW corrections, initial TS optimization,
                  C. Bannwarth, S. Ehlert,         DFT functionals, gCP, sTDA/sTD-DF
                  L. Wittmann, M. Mueller
   Ed Valeev, F. Pavosevic, A. Kumar             : LibInt (2-el integral package), F12 methods
   Garnet Chan, S. Sharma, J. Yang, R. Olivares  : DMRG
   Ulf Ekstrom                                   : XCFun DFT Library
   Mihaly Kallay                                 : mrcc  (arbitrary order and MRCC methods)
   Frank Weinhold                                : gennbo (NPA and NBO analysis)
   Simon Mueller                                 : openCOSMO-RS
   Christopher J. Cramer and Donald G. Truhlar   : smd solvation model
   Lars Goerigk                                  : TD-DFT with DH, B97 family of functionals
   V. Asgeirsson, H. Jonsson                     : NEB implementation
   FAccTs GmbH                                   : IRC, NEB, NEB-TS, DLPNO-Multilevel, CI-OPT
                                                   MM, QMMM, 2- and 3-layer-ONIOM, Crystal-QMMM,
                                                   LR-CPCM, SF, NACMEs, symmetry and pop. for TD-DFT,
                                                   nearIR, NL-DFT gradient (VV10), updates on ESD,
                                                   ML-optimized integration grids, MBIS, APM,
                                                   GOAT, DOCKER, SOLVATOR, interface openCOSMO-RS
   S Lehtola, MJT Oliveira, MAL Marques          : LibXC Library
   Liviu Ungur et al                             : ANISO software


 Your calculation uses the libint2 library for the computation of 2-el integrals
 For citations please refer to: http://libint.valeyev.net

 Your ORCA version has been built with support for libXC version: 6.2.2
 For citations please refer to: https://libxc.gitlab.io

 This ORCA versions uses:
   CBLAS   interface :  Fast vector & matrix operations
   LAPACKE interface :  Fast linear algebra routines
   Shared memory     :  Shared parallel matrices


Your calculation utilizes the atom-pairwise dispersion correction
with the Becke-Johnson damping scheme (D3BJ)


Warning: RI is on but no J-basis has been assigned. Assigning Def2/J (nothing to worry about!)
================================================================================

----- Orbital basis set information -----
Your calculation utilizes the basis: def2-SVP
   F. Weigend and R. Ahlrichs, Phys. Chem. Chem. Phys. 7, 3297 (2005).

----- AuxJ basis set information -----
Your calculation utilizes the auxiliary basis: def2/J
   F. Weigend, Phys. Chem. Chem. Phys. 8, 1057 (2006).

================================================================================
                                        WARNINGS
                       Please study these warnings very carefully!
================================================================================


WARNING: Geometry Optimization
  ===> : Switching off AutoStart
         For restart on a previous wavefunction, please use MOREAD

================================================================================
                                       INPUT FILE
================================================================================
NAME = data/geom_opt_P_BP86/316378/316378.inp
|  1> ! RI BP86 def2-SVP D3BJ TIGHTSCF Opt
|  2> %pal
|  3> nprocs 6
|  4> end
|  5> 
|  6> * xyz 0 1
|  7> C     -0.282006    1.590062    1.757346
|  8> C     -0.518453    1.760599    0.250647
|  9> C      0.449281    2.869138   -0.242495
| 10> C     -1.946174    2.291638    0.027055
| 11> P     -0.197593    0.250440   -0.786035
| 12> C      1.427919   -0.368711   -0.299506
| 13> C      2.475281   -0.236849   -1.227049
| 14> C      3.764166   -0.693828   -0.937263
| 15> C      4.029435   -1.293487    0.289065
| 16> C      3.006232   -1.433865    1.221442
| 17> C      1.717511   -0.975312    0.927166
| 18> C     -1.451988   -1.093082   -0.535420
| 19> C     -1.945547   -1.301741    0.897861
| 20> C     -2.680192   -0.786155   -1.427375
| 21> C     -0.878143   -2.437890   -1.046638
| 22> H      0.768721    1.389515    1.989776
| 23> H     -0.878943    0.789023    2.196258
| 24> H     -0.544034    2.509122    2.296525
| 25> H      0.278630    3.808638    0.297300
| 26> H      1.499918    2.597376   -0.085751
| 27> H      0.316819    3.080262   -1.310921
| 28> H     -2.080140    3.271195    0.502480
| 29> H     -2.175726    2.416730   -1.037804
| 30> H     -2.702885    1.632806    0.461715
| 31> H      2.296531    0.226858   -2.195819
| 32> H      4.556596   -0.580121   -1.672034
| 33> H      5.029977   -1.649872    0.517754
| 34> H      3.207565   -1.900039    2.182402
| 35> H      0.951874   -1.097453    1.685068
| 36> H     -1.136850   -1.537420    1.592625
| 37> H     -2.651827   -2.140211    0.946652
| 38> H     -2.481531   -0.430300    1.282629
| 39> H     -2.398366   -0.661999   -2.480384
| 40> H     -3.410881   -1.603253   -1.383243
| 41> H     -3.206527    0.121293   -1.119249
| 42> H     -0.055646   -2.800603   -0.421074
| 43> H     -1.645885   -3.221465   -1.037677
| 44> H     -0.507120   -2.361038   -2.076030
| 45> **                         ****END OF INPUT****
================================================================================

                       *****************************
                       * Geometry Optimization Run *
                       *****************************

Geometry optimization settings:
Update method            Update   .... BFGS
Choice of coordinates    CoordSys .... (2022) Redundant Internals
Initial Hessian          InHess   .... Almloef's Model
Max. no of cycles        MaxIter  .... 114

Convergence Tolerances:
Energy Change            TolE     ....  5.0000e-06 Eh
Max. Gradient            TolMAXG  ....  3.0000e-04 Eh/bohr
RMS Gradient             TolRMSG  ....  1.0000e-04 Eh/bohr
Max. Displacement        TolMAXD  ....  4.0000e-03 bohr
RMS Displacement         TolRMSD  ....  2.0000e-03 bohr
Strict Convergence                .... False

------------------------------------------------------------------------------
                        ORCA OPTIMIZATION COORDINATE SETUP
------------------------------------------------------------------------------

The optimization will be done in redundant internal coordinates (2022)
Making redundant internal coordinates   ...  (2022 redundants) done
Evaluating the initial hessian          ...  (Almloef) done
Evaluating the coordinates              ...  done
Calculating the B-matrix                .... done
Calculating the G-matrix                .... done
Diagonalizing the G-matrix              .... done
Small eigenvalue found = 8.284e-03
Small eigenvalue found = 8.595e-03
Small eigenvalue found = 1.482e-02
Small eigenvalue found = 2.746e-02
The first mode is                       ....   73
The number of degrees of freedom        ....  108

    -----------------------------------------------------------------
                    Redundant Internal Coordinates


    -----------------------------------------------------------------
         Definition                    Initial Value    Approx d2E/dq
    -----------------------------------------------------------------
      1. B(C   1,C   0)                  1.5346         0.367256   
      2. B(C   2,C   1)                  1.5520         0.344630   
      3. B(C   3,C   1)                  1.5396         0.360623   
      4. B(P   4,C   1)                  1.8596         0.374077   
      5. B(C   5,P   4)                  1.8062         0.455215   
      6. B(C   6,C   5)                  1.4052         0.590784   
      7. B(C   7,C   6)                  1.3979         0.606999   
      8. B(C   8,C   7)                  1.3906         0.623363   
      9. B(C   9,C   8)                  1.3914         0.621605   
     10. B(C  10,C   9)                  1.3992         0.604104   
     11. B(C  10,C   5)                  1.3988         0.604992   
     12. B(C  11,P   4)                  1.8551         0.380372   
     13. B(C  12,C  11)                  1.5302         0.373336   
     14. B(C  13,C  11)                  1.5486         0.348855   
     15. B(C  14,C  11)                  1.5489         0.348492   
     16. B(H  15,C   0)                  1.0947         0.353994   
     17. B(H  16,C   0)                  1.0912         0.358562   
     18. B(H  17,C   0)                  1.0973         0.350585   
     19. B(H  18,C   2)                  1.0969         0.351104   
     20. B(H  19,C   2)                  1.0965         0.351633   
     21. B(H  20,C   2)                  1.0971         0.350814   
     22. B(H  21,C   3)                  1.0970         0.350900   
     23. B(H  22,C   3)                  1.0965         0.351630   
     24. B(H  23,C   3)                  1.0934         0.355584   
     25. B(H  24,C   6)                  1.0888         0.361688   
     26. B(H  25,C   7)                  1.0866         0.364587   
     27. B(H  26,C   8)                  1.0865         0.364815   
     28. B(H  27,C   9)                  1.0869         0.364258   
     29. B(H  28,C  10)                  1.0842         0.367827   
     30. B(H  29,C  12)                  1.0919         0.357603   
     31. B(H  30,C  12)                  1.0974         0.350468   
     32. B(H  31,C  12)                  1.0930         0.356102   
     33. B(H  32,C  13)                  1.0971         0.350805   
     34. B(H  33,C  13)                  1.0970         0.350903   
     35. B(H  34,C  13)                  1.0934         0.355685   
     36. B(H  35,C  14)                  1.0952         0.353328   
     37. B(H  36,C  14)                  1.0970         0.350906   
     38. B(H  37,C  14)                  1.0969         0.351074   
     39. A(C   1,C   0,H  15)          112.1303         0.322506   
     40. A(H  16,C   0,H  17)          106.6537         0.289426   
     41. A(C   1,C   0,H  17)          110.6439         0.321995   
     42. A(H  15,C   0,H  16)          107.7707         0.289865   
     43. A(H  15,C   0,H  17)          106.1604         0.288845   
     44. A(C   1,C   0,H  16)          113.0919         0.323185   
     45. A(C   2,C   1,P   4)          107.1771         0.381366   
     46. A(C   2,C   1,C   3)          106.6023         0.356246   
     47. A(C   3,C   1,P   4)          111.0475         0.384383   
     48. A(C   0,C   1,C   3)          108.8921         0.360120   
     49. A(C   0,C   1,P   4)          115.4986         0.385604   
     50. A(C   0,C   1,C   2)          107.1738         0.357351   
     51. A(C   1,C   2,H  18)          111.0028         0.318743   
     52. A(H  19,C   2,H  20)          107.6138         0.288572   
     53. A(H  18,C   2,H  20)          107.1959         0.288504   
     54. A(C   1,C   2,H  20)          111.8153         0.318700   
     55. A(H  18,C   2,H  19)          106.9185         0.288609   
     56. A(C   1,C   2,H  19)          112.0262         0.318821   
     57. A(H  22,C   3,H  23)          108.0539         0.289182   
     58. A(C   1,C   3,H  23)          112.0986         0.321781   
     59. A(H  21,C   3,H  23)          106.3333         0.289088   
     60. A(H  21,C   3,H  22)          107.0639         0.288582   
     61. A(C   1,C   3,H  22)          111.9952         0.321193   
     62. A(C   1,C   3,H  21)          110.9949         0.321083   
     63. A(C   1,P   4,C   5)          106.4686         0.426829   
     64. A(C   5,P   4,C  11)          108.8986         0.428108   
     65. A(C   1,P   4,C  11)          113.3378         0.413370   
     66. A(C   6,C   5,C  10)          117.7256         0.428429   
     67. A(P   4,C   5,C  10)          124.8344         0.436168   
     68. A(P   4,C   5,C   6)          117.4389         0.434306   
     69. A(C   7,C   6,H  24)          118.3627         0.351908   
     70. A(C   5,C   6,H  24)          120.3245         0.350301   
     71. A(C   5,C   6,C   7)          121.3127         0.428684   
     72. A(C   8,C   7,H  25)          120.1534         0.353974   
     73. A(C   6,C   7,H  25)          119.8686         0.352383   
     74. A(C   6,C   7,C   8)          119.9779         0.432836   
     75. A(C   9,C   8,H  26)          120.2041         0.353842   
     76. A(C   7,C   8,H  26)          120.1815         0.354011   
     77. A(C   7,C   8,C   9)          119.6144         0.434691   
     78. A(C   8,C   9,C  10)          120.2204         0.432244   
     79. A(C  10,C   9,H  27)          119.8111         0.352045   
     80. A(C   8,C   9,H  27)          119.9684         0.353750   
     81. A(C   5,C  10,C   9)          121.1489         0.430146   
     82. A(C   9,C  10,H  28)          117.8060         0.352626   
     83. A(C   5,C  10,H  28)          121.0429         0.352714   
     84. A(C  13,C  11,C  14)          106.0099         0.354917   
     85. A(C  12,C  11,C  14)          108.0746         0.359030   
     86. A(P   4,C  11,C  14)          109.4931         0.383213   
     87. A(C  12,C  11,C  13)          108.1018         0.359094   
     88. A(P   4,C  11,C  13)          108.3566         0.383283   
     89. A(P   4,C  11,C  12)          116.3214         0.387835   
     90. A(H  30,C  12,H  31)          106.1356         0.289098   
     91. A(H  29,C  12,H  31)          108.1363         0.290013   
     92. A(C  11,C  12,H  31)          112.2826         0.323691   
     93. A(H  29,C  12,H  30)          106.4673         0.289289   
     94. A(C  11,C  12,H  30)          110.6973         0.322845   
     95. A(C  11,C  12,H  29)          112.7395         0.323914   
     96. A(H  32,C  13,H  34)          107.4709         0.289089   
     97. A(C  11,C  13,H  34)          112.5794         0.320055   
     98. A(H  32,C  13,H  33)          107.0972         0.288477   
     99. A(C  11,C  13,H  33)          110.9438         0.319348   
    100. A(H  33,C  13,H  34)          106.6307         0.289101   
    101. A(C  11,C  13,H  32)          111.8086         0.319333   
    102. A(H  36,C  14,H  37)          107.1229         0.288512   
    103. A(H  35,C  14,H  37)          107.7714         0.288823   
    104. A(C  11,C  14,H  37)          111.9759         0.319319   
    105. A(H  35,C  14,H  36)          106.5208         0.288801   
    106. A(C  11,C  14,H  36)          110.9878         0.319294   
    107. A(C  11,C  14,H  35)          112.1644         0.319653   
    108. D(C   2,C   1,C   0,H  17)     63.6147         0.010792   
    109. D(C   3,C   1,C   0,H  15)   -169.6503         0.010792   
    110. D(C   3,C   1,C   0,H  16)     68.2380         0.010792   
    111. D(C   3,C   1,C   0,H  17)    -51.3369         0.010792   
    112. D(C   2,C   1,C   0,H  15)    -54.6986         0.010792   
    113. D(C   2,C   1,C   0,H  16)   -176.8104         0.010792   
    114. D(H  18,C   2,C   1,C   0)    -58.2136         0.009594   
    115. D(H  19,C   2,C   1,C   3)    177.7047         0.009594   
    116. D(H  18,C   2,C   1,C   3)     58.2601         0.009594   
    117. D(H  19,C   2,C   1,P   4)    -63.3204         0.009594   
    118. D(H  19,C   2,C   1,C   0)     61.2311         0.009594   
    119. D(H  18,C   2,C   1,P   4)    177.2350         0.009594   
    120. D(H  21,C   3,C   1,P   4)   -170.3859         0.010431   
    121. D(H  21,C   3,C   1,C   2)    -53.9665         0.010431   
    122. D(H  21,C   3,C   1,C   0)     61.3550         0.010431   
    123. D(H  22,C   3,C   1,P   4)    -50.7828         0.010431   
    124. D(H  22,C   3,C   1,C   2)     65.6367         0.010431   
    125. D(H  22,C   3,C   1,C   0)   -179.0419         0.010431   
    126. D(C  11,P   4,C   1,C   0)     70.2923         0.003387   
    127. D(C   5,P   4,C   1,C   3)   -174.0077         0.003387   
    128. D(C   5,P   4,C   1,C   2)     69.9269         0.003387   
    129. D(C  11,P   4,C   1,C   2)   -170.3777         0.003387   
    130. D(C   5,P   4,C   1,C   0)    -49.4031         0.003387   
    131. D(C  10,C   5,P   4,C  11)    -52.0496         0.004090   
    132. D(C  10,C   5,P   4,C   1)     70.4871         0.004090   
    133. D(C   6,C   5,P   4,C   1)   -109.9022         0.004090   
    134. D(C   6,C   5,P   4,C  11)    127.5611         0.004090   
    135. D(H  24,C   6,C   5,P   4)      0.2268         0.024022   
    136. D(C   7,C   6,C   5,C  10)     -0.0558         0.024022   
    137. D(C   7,C   6,C   5,P   4)   -179.6948         0.024022   
    138. D(H  24,C   6,C   5,C  10)    179.8658         0.024022   
    139. D(H  25,C   7,C   6,H  24)      0.0587         0.025432   
    140. D(H  25,C   7,C   6,C   5)    179.9818         0.025432   
    141. D(C   8,C   7,C   6,H  24)   -179.8885         0.025432   
    142. D(C   8,C   7,C   6,C   5)      0.0346         0.025432   
    143. D(H  26,C   8,C   7,H  25)      0.0518         0.026907   
    144. D(H  26,C   8,C   7,C   6)    179.9988         0.026907   
    145. D(C   9,C   8,C   7,H  25)   -179.9725         0.026907   
    146. D(C   9,C   8,C   7,C   6)     -0.0255         0.026907   
    147. D(H  27,C   9,C   8,H  26)      0.0865         0.026746   
    148. D(H  27,C   9,C   8,C   7)   -179.8891         0.026746   
    149. D(C  10,C   9,C   8,H  26)   -179.9849         0.026746   
    150. D(C  10,C   9,C   8,C   7)      0.0395         0.026746   
    151. D(H  28,C  10,C   9,H  27)      0.4067         0.025177   
    152. D(H  28,C  10,C   9,C   8)   -179.5220         0.025177   
    153. D(C   5,C  10,C   9,H  27)    179.8657         0.025177   
    154. D(C   5,C  10,C   9,C   8)     -0.0630         0.025177   
    155. D(H  28,C  10,C   5,C   6)    179.5113         0.025255   
    156. D(H  28,C  10,C   5,P   4)     -0.8791         0.025255   
    157. D(C   9,C  10,C   5,C   6)      0.0698         0.025255   
    158. D(C   9,C  10,C   5,P   4)    179.6795         0.025255   
    159. D(C  14,C  11,P   4,C   1)   -161.4902         0.003453   
    160. D(C  13,C  11,P   4,C   5)   -158.3889         0.003453   
    161. D(C  13,C  11,P   4,C   1)     83.3138         0.003453   
    162. D(C  12,C  11,P   4,C   5)     79.6477         0.003453   
    163. D(C  12,C  11,P   4,C   1)    -38.6497         0.003453   
    164. D(H  30,C  12,C  11,C  14)    -54.2228         0.011130   
    165. D(H  30,C  12,C  11,C  13)     60.1020         0.011130   
    166. D(H  30,C  12,C  11,P   4)   -177.8004         0.011130   
    167. D(H  29,C  12,C  11,C  14)     64.9151         0.011130   
    168. D(H  29,C  12,C  11,C  13)    179.2399         0.011130   
    169. D(H  29,C  12,C  11,P   4)    -58.6625         0.011130   
    170. D(H  32,C  13,C  11,P   4)     55.2463         0.009810   
    171. D(H  33,C  13,C  11,C  14)     57.2818         0.009810   
    172. D(H  33,C  13,C  11,C  12)    -58.4001         0.009810   
    173. D(H  33,C  13,C  11,P   4)    174.7321         0.009810   
    174. D(H  32,C  13,C  11,C  14)    -62.2040         0.009810   
    175. D(H  32,C  13,C  11,C  12)   -177.8859         0.009810   
    176. D(H  36,C  14,C  11,C  13)    -55.5598         0.009792   
    177. D(H  36,C  14,C  11,C  12)     60.1406         0.009792   
    178. D(H  36,C  14,C  11,P   4)   -172.2477         0.009792   
    179. D(H  35,C  14,C  11,C  13)   -174.5819         0.009792   
    180. D(H  35,C  14,C  11,C  12)    -58.8815         0.009792   
    181. D(H  35,C  14,C  11,P   4)     68.7303         0.009792   
    -----------------------------------------------------------------

Number of atoms                         .... 38
Number of degrees of freedom            .... 181


         *************************************************************
         *                GEOMETRY OPTIMIZATION CYCLE   1            *
         *************************************************************
---------------------------------
CARTESIAN COORDINATES (ANGSTROEM)
---------------------------------
  C     -0.282006    1.590062    1.757346
  C     -0.518453    1.760599    0.250647
  C      0.449281    2.869138   -0.242495
  C     -1.946174    2.291638    0.027055
  P     -0.197593    0.250440   -0.786035
  C      1.427919   -0.368711   -0.299506
  C      2.475281   -0.236849   -1.227049
  C      3.764166   -0.693828   -0.937263
  C      4.029435   -1.293487    0.289065
  C      3.006232   -1.433865    1.221442
  C      1.717511   -0.975312    0.927166
  C     -1.451988   -1.093082   -0.535420
  C     -1.945547   -1.301741    0.897861
  C     -2.680192   -0.786155   -1.427375
  C     -0.878143   -2.437890   -1.046638
  H      0.768721    1.389515    1.989776
  H     -0.878943    0.789023    2.196258
  H     -0.544034    2.509122    2.296525
  H      0.278630    3.808638    0.297300
  H      1.499918    2.597376   -0.085751
  H      0.316819    3.080262   -1.310921
  H     -2.080140    3.271195    0.502480
  H     -2.175726    2.416730   -1.037804
  H     -2.702885    1.632806    0.461715
  H      2.296531    0.226858   -2.195819
  H      4.556596   -0.580121   -1.672034
  H      5.029977   -1.649872    0.517754
  H      3.207565   -1.900039    2.182402
  H      0.951874   -1.097453    1.685068
  H     -1.136850   -1.537420    1.592625
  H     -2.651827   -2.140211    0.946652
  H     -2.481531   -0.430300    1.282629
  H     -2.398366   -0.661999   -2.480384
  H     -3.410881   -1.603253   -1.383243
  H     -3.206527    0.121293   -1.119249
  H     -0.055646   -2.800603   -0.421074
  H     -1.645885   -3.221465   -1.037677
  H     -0.507120   -2.361038   -2.076030

----------------------------
CARTESIAN COORDINATES (A.U.)
----------------------------
  NO LB      ZA    FRAG     MASS         X           Y           Z
   0 C     6.0000    0    12.011   -0.532914    3.004782    3.320903
   1 C     6.0000    0    12.011   -0.979734    3.327050    0.473654
   2 C     6.0000    0    12.011    0.849018    5.421885   -0.458249
   3 C     6.0000    0    12.011   -3.677736    4.330568    0.051127
   4 P    15.0000    0    30.974   -0.373397    0.473263   -1.485391
   5 C     6.0000    0    12.011    2.698376   -0.696763   -0.565984
   6 C     6.0000    0    12.011    4.677603   -0.447580   -2.318787
   7 C     6.0000    0    12.011    7.113243   -1.311145   -1.771170
   8 C     6.0000    0    12.011    7.614529   -2.444336    0.546254
   9 C     6.0000    0    12.011    5.680955   -2.709612    2.308191
  10 C     6.0000    0    12.011    3.245625   -1.843073    1.752090
  11 C     6.0000    0    12.011   -2.743860   -2.065626   -1.011797
  12 C     6.0000    0    12.011   -3.676551   -2.459934    1.696711
  13 C     6.0000    0    12.011   -5.064829   -1.485618   -2.697348
  14 C     6.0000    0    12.011   -1.659450   -4.606944   -1.977859
  15 H     1.0000    0     1.008    1.452672    2.625803    3.760132
  16 H     1.0000    0     1.008   -1.660962    1.491037    4.150326
  17 H     1.0000    0     1.008   -1.028075    4.741553    4.339803
  18 H     1.0000    0     1.008    0.526534    7.197283    0.561816
  19 H     1.0000    0     1.008    2.834434    4.908329   -0.162046
  20 H     1.0000    0     1.008    0.598701    5.820852   -2.477282
  21 H     1.0000    0     1.008   -3.930895    6.181663    0.949550
  22 H     1.0000    0     1.008   -4.111526    4.566958   -1.961165
  23 H     1.0000    0     1.008   -5.107712    3.085556    0.872515
  24 H     1.0000    0     1.008    4.339815    0.428699   -4.149497
  25 H     1.0000    0     1.008    8.610719   -1.096270   -3.159686
  26 H     1.0000    0     1.008    9.505279   -3.117806    0.978413
  27 H     1.0000    0     1.008    6.061419   -3.590553    4.124142
  28 H     1.0000    0     1.008    1.798781   -2.073886    3.184317
  29 H     1.0000    0     1.008   -2.148335   -2.905303    3.009625
  30 H     1.0000    0     1.008   -5.011227   -4.044413    1.788913
  31 H     1.0000    0     1.008   -4.689414   -0.813149    2.423818
  32 H     1.0000    0     1.008   -4.532255   -1.250997   -4.687246
  33 H     1.0000    0     1.008   -6.445631   -3.029709   -2.613950
  34 H     1.0000    0     1.008   -6.059458    0.229211   -2.115074
  35 H     1.0000    0     1.008   -0.105156   -5.292373   -0.795715
  36 H     1.0000    0     1.008   -3.110272   -6.087687   -1.960925
  37 H     1.0000    0     1.008   -0.958318   -4.461715   -3.923128

--------------------------------
INTERNAL COORDINATES (ANGSTROEM)
--------------------------------
 C      0   0   0     0.000000000000     0.00000000     0.00000000
 C      1   0   0     1.534643909439     0.00000000     0.00000000
 C      2   1   0     1.551952589946   107.17379672     0.00000000
 C      2   1   3     1.539604837556   108.89214839   245.04835972
 P      2   1   3     1.859634618414   115.49861360   119.33182266
 C      5   2   1     1.806197024354   106.46856191   310.59691380
 C      6   5   2     1.405236906339   117.43894465   250.09780164
 C      7   6   5     1.397866329612   121.31274428   180.30516614
 C      8   7   6     1.390625370913   119.97792442     0.03463239
 C      9   8   7     1.391393988855   119.61440523   359.97448495
 C      6   5   2     1.398768206405   124.83437869    70.48710840
 C      5   2   1     1.855091927300   113.33777087    70.29232451
 C     12   5   2     1.530174333115   116.32138017   321.35033191
 C     12   5   2     1.548635841949   108.35663204    83.31376387
 C     12   5   2     1.548919134239   109.49313623   198.50978804
 H      1   2   3     1.094655211762   112.13028405   305.30138306
 H      1   2   3     1.091164976176   113.09193203   183.18959366
 H      1   2   3     1.097289364947   110.64390826    63.61470560
 H      3   2   1     1.096886801738   111.00275525   301.78644511
 H      3   2   1     1.096476799549   112.02617675    61.23106819
 H      3   2   1     1.097111499482   111.81529201   182.13103490
 H      4   2   1     1.097045001825   110.99486539    61.35496449
 H      4   2   1     1.096479283456   111.99519447   180.95807916
 H      4   2   1     1.093435163759   112.09861991   302.60927066
 H      7   6   5     1.088802579557   120.32451036     0.22676503
 H      8   7   6     1.086629195812   119.86863128   179.98177739
 H      9   8   7     1.086459028546   120.18150796   179.99882660
 H     10   9   8     1.086875014325   119.96839091   180.11086272
 H     11   6   5     1.084220402526   121.04288648   359.12093094
 H     13  12   5     1.091893971293   112.73947010   301.33751782
 H     13  12   5     1.097380490523   110.69734692   182.19957691
 H     13  12   5     1.093039193515   112.28262042    63.78291293
 H     14  12   5     1.097118298404   111.80857399    55.24630908
 H     14  12   5     1.097042929766   110.94378255   174.73213787
 H     14  12   5     1.093358146631   112.57941887   294.14151336
 H     15  12   5     1.095167728466   112.16441079    68.73025833
 H     15  12   5     1.097040500032   110.98784664   187.75234998
 H     15  12   5     1.096910290816   111.97585651   307.41252406

---------------------------
INTERNAL COORDINATES (A.U.)
---------------------------
 C      0   0   0     0.000000000000     0.00000000     0.00000000
 C      1   0   0     2.900056701930     0.00000000     0.00000000
 C      2   1   0     2.932765367828   107.17379672     0.00000000
 C      2   1   3     2.909431497441   108.89214839   245.04835972
 P      2   1   3     3.514200137962   115.49861360   119.33182266
 C      5   2   1     3.413217719933   106.46856191   310.59691380
 C      6   5   2     2.655512906259   117.43894465   250.09780164
 C      7   6   5     2.641584534796   121.31274428   180.30516614
 C      8   7   6     2.627901105908   119.97792442     0.03463239
 C      9   8   7     2.629353583320   119.61440523   359.97448495
 C      6   5   2     2.643288834941   124.83437869    70.48710840
 C      5   2   1     3.505615695845   113.33777087    70.29232451
 C     12   5   2     2.891610426742   116.32138017   321.35033191
 C     12   5   2     2.926497622459   108.35663204    83.31376387
 C     12   5   2     2.927032967303   109.49313623   198.50978804
 H      1   2   3     2.068598561300   112.13028405   305.30138306
 H      1   2   3     2.062002971900   113.09193203   183.18959366
 H      1   2   3     2.073576389414   110.64390826    63.61470560
 H      3   2   1     2.072815655197   111.00275525   301.78644511
 H      3   2   1     2.072040863346   112.02617675    61.23106819
 H      3   2   1     2.073240272397   111.81529201   182.13103490
 H      4   2   1     2.073114610037   110.99486539    61.35496449
 H      4   2   1     2.072045557251   111.99519447   180.95807916
 H      4   2   1     2.066293004704   112.09861991   302.60927066
 H      7   6   5     2.057538689269   120.32451036     0.22676503
 H      8   7   6     2.053431589207   119.86863128   179.98177739
 H      9   8   7     2.053110019679   120.18150796   179.99882660
 H     10   9   8     2.053896118877   119.96839091   180.11086272
 H     11   6   5     2.048879629584   121.04288648   359.12093094
 H     13  12   5     2.063380573023   112.73947010   301.33751782
 H     13  12   5     2.073748591797   110.69734692   182.19957691
 H     13  12   5     2.065544729386   112.28262042    63.78291293
 H     14  12   5     2.073253120497   111.80857399    55.24630908
 H     14  12   5     2.073110694412   110.94378255   174.73213787
 H     14  12   5     2.066147463425   112.57941887   294.14151336
 H     15  12   5     2.069567077510   112.16441079    68.73025833
 H     15  12   5     2.073106102880   110.98784664   187.75234998
 H     15  12   5     2.072860043121   111.97585651   307.41252406

---------------------
BASIS SET INFORMATION
---------------------
There are 3 groups of distinct atoms

 Group   1 Type C   : 7s4p1d contracted to 3s2p1d pattern {511/31/1}
 Group   2 Type P   : 10s7p1d contracted to 4s3p1d pattern {5311/511/1}
 Group   3 Type H   : 4s1p contracted to 2s1p pattern {31/1}

Atom   0C    basis set group =>   1
Atom   1C    basis set group =>   1
Atom   2C    basis set group =>   1
Atom   3C    basis set group =>   1
Atom   4P    basis set group =>   2
Atom   5C    basis set group =>   1
Atom   6C    basis set group =>   1
Atom   7C    basis set group =>   1
Atom   8C    basis set group =>   1
Atom   9C    basis set group =>   1
Atom  10C    basis set group =>   1
Atom  11C    basis set group =>   1
Atom  12C    basis set group =>   1
Atom  13C    basis set group =>   1
Atom  14C    basis set group =>   1
Atom  15H    basis set group =>   3
Atom  16H    basis set group =>   3
Atom  17H    basis set group =>   3
Atom  18H    basis set group =>   3
Atom  19H    basis set group =>   3
Atom  20H    basis set group =>   3
Atom  21H    basis set group =>   3
Atom  22H    basis set group =>   3
Atom  23H    basis set group =>   3
Atom  24H    basis set group =>   3
Atom  25H    basis set group =>   3
Atom  26H    basis set group =>   3
Atom  27H    basis set group =>   3
Atom  28H    basis set group =>   3
Atom  29H    basis set group =>   3
Atom  30H    basis set group =>   3
Atom  31H    basis set group =>   3
Atom  32H    basis set group =>   3
Atom  33H    basis set group =>   3
Atom  34H    basis set group =>   3
Atom  35H    basis set group =>   3
Atom  36H    basis set group =>   3
Atom  37H    basis set group =>   3
---------------------------------
AUXILIARY/J BASIS SET INFORMATION
---------------------------------
There are 3 groups of distinct atoms

 Group   1 Type C   : 12s5p4d2f1g contracted to 6s4p3d1f1g pattern {711111/2111/211/2/1}
 Group   2 Type P   : 14s5p5d2f1g contracted to 8s4p3d1f1g pattern {71111111/2111/311/2/1}
 Group   3 Type H   : 5s2p1d contracted to 3s1p1d pattern {311/2/1}

Atom   0C    basis set group =>   1
Atom   1C    basis set group =>   1
Atom   2C    basis set group =>   1
Atom   3C    basis set group =>   1
Atom   4P    basis set group =>   2
Atom   5C    basis set group =>   1
Atom   6C    basis set group =>   1
Atom   7C    basis set group =>   1
Atom   8C    basis set group =>   1
Atom   9C    basis set group =>   1
Atom  10C    basis set group =>   1
Atom  11C    basis set group =>   1
Atom  12C    basis set group =>   1
Atom  13C    basis set group =>   1
Atom  14C    basis set group =>   1
Atom  15H    basis set group =>   3
Atom  16H    basis set group =>   3
Atom  17H    basis set group =>   3
Atom  18H    basis set group =>   3
Atom  19H    basis set group =>   3
Atom  20H    basis set group =>   3
Atom  21H    basis set group =>   3
Atom  22H    basis set group =>   3
Atom  23H    basis set group =>   3
Atom  24H    basis set group =>   3
Atom  25H    basis set group =>   3
Atom  26H    basis set group =>   3
Atom  27H    basis set group =>   3
Atom  28H    basis set group =>   3
Atom  29H    basis set group =>   3
Atom  30H    basis set group =>   3
Atom  31H    basis set group =>   3
Atom  32H    basis set group =>   3
Atom  33H    basis set group =>   3
Atom  34H    basis set group =>   3
Atom  35H    basis set group =>   3
Atom  36H    basis set group =>   3
Atom  37H    basis set group =>   3


           ************************************************************
           *        Program running with 6 parallel MPI-processes     *
           *              working on a common directory               *
           ************************************************************
------------------------------------------------------------------------------
                             ORCA STARTUP CALCULATIONS
                           -- RI-GTO INTEGRALS CHOSEN --
------------------------------------------------------------------------------
------------------------------------------------------------------------------
                   ___                                                        
                  /   \      - P O W E R E D   B Y -                         
                 /     \                                                     
                 |  |  |   _    _      __       _____    __    __             
                 |  |  |  | |  | |    /  \     |  _  \  |  |  /  |          
                  \  \/   | |  | |   /    \    | | | |  |  | /  /          
                 / \  \   | |__| |  /  /\  \   | |_| |  |  |/  /          
                |  |  |   |  __  | /  /__\  \  |    /   |      \           
                |  |  |   | |  | | |   __   |  |    \   |  |\   \          
                \     /   | |  | | |  |  |  |  | |\  \  |  | \   \       
                 \___/    |_|  |_| |__|  |__|  |_| \__\ |__|  \__/        
                                                                              
                      - O R C A' S   B I G   F R I E N D -                    
                                      &                                       
                       - I N T E G R A L  F E E D E R -                       
                                                                              
 v1 FN, 2020, v2 2021, v3 2022-2024                                           
------------------------------------------------------------------------------


----------------------
SHARK INTEGRAL PACKAGE
----------------------

Number of atoms                             ...     38
Number of basis functions                   ...    329
Number of shells                            ...    161
Maximum angular momentum                    ...      2
Integral batch strategy                     ... SHARK/LIBINT Hybrid
RI-J (if used) integral strategy            ... SPLIT-RIJ (Revised 2003 algorithm where possible)
Printlevel                                  ...      1
Contraction scheme used                     ... SEGMENTED contraction
Prescreening option                         ... SCHWARTZ
   Thresh                                   ... 2.500e-11
   Tcut                                     ... 2.500e-12
   Tpresel                                  ... 2.500e-12 
Coulomb Range Separation                    ... NOT USED
Exchange Range Separation                   ... NOT USED
Multipole approximations                    ... NOT USED
Finite Nucleus Model                        ... NOT USED
CABS basis                                  ... NOT available
Auxiliary Coulomb fitting basis             ... AVAILABLE
   # of basis functions in Aux-J            ...    990
   # of shells in Aux-J                     ...    342
   Maximum angular momentum in Aux-J        ...      4
Auxiliary J/K fitting basis                 ... NOT available
Auxiliary Correlation fitting basis         ... NOT available
Auxiliary 'external' fitting basis          ... NOT available

Checking pre-screening integrals            ... done (  0.0 sec) Dimension = 161
Check shell pair data                       ... done (  0.0 sec)
Shell pair information
Shell pair cut-off parameter TPreSel        ...   2.5e-12
Total number of shell pairs                 ...     13041
Shell pairs after pre-screening             ...     11164
Total number of primitive shell pairs       ...     45725
Primitive shell pairs kept                  ...     26265
          la=0 lb=0:   3794 shell pairs
          la=1 lb=0:   4257 shell pairs
          la=1 lb=1:   1224 shell pairs
          la=2 lb=0:   1161 shell pairs
          la=2 lb=1:    639 shell pairs
          la=2 lb=2:     89 shell pairs

Calculating one electron integrals          ... done (  0.0 sec)
Calculating RI/J V-Matrix + Cholesky decomp.... done (  0.0 sec)
Calculating Nuclear repulsion               ... done (  0.0 sec) ENN=   1186.237406961577 Eh

Diagonalization of the overlap matrix:
Smallest eigenvalue                        ... 2.730e-04
Time for diagonalization                   ...    0.013 sec
Threshold for overlap eigenvalues          ... 1.000e-07
Number of eigenvalues below threshold      ... 0
Time for construction of square roots      ...    0.007 sec
Total time needed                          ...    0.021 sec

-------------------
DFT GRID GENERATION
-------------------

General Integration Accuracy     IntAcc      ... 4.388
Radial Grid Type                 RadialGrid  ... OptM3 with GC (2021)
Angular Grid (max. ang.)         AngularGrid ... 4 (Lebedev-302)
Angular grid pruning method      GridPruning ... 4 (adaptive)
Weight generation scheme         WeightScheme... mBecke (2022)
Basis function cutoff            BFCut       ... 1.0000e-11
Integration weight cutoff        WCut        ... 1.0000e-14
Partially contracted basis set               ... off
Rotationally invariant grid construction     ... off
Angular grids for H and He will be reduced by one unit

Total number of grid points                  ...   163131
Total number of batches                      ...     2566
Average number of points per batch           ...       63
Average number of grid points per atom       ...     4293
Initializing property integral containers    ... done (  0.0 sec)

SHARK setup successfully completed in   1.2 seconds

Maximum memory used throughout the entire STARTUP-calculation: 45.2 MB


           ************************************************************
           *        Program running with 6 parallel MPI-processes     *
           *              working on a common directory               *
           ************************************************************
-------------------------------------------------------------------------------
                                 ORCA GUESS
                   Start orbitals & Density for SCF / CASSCF
-------------------------------------------------------------------------------

------------
SCF SETTINGS
------------
Hamiltonian:
 Density Functional     Method          .... DFT(GTOs)
 Exchange Functional    Exchange        .... B88
   X-Alpha parameter    XAlpha          ....  0.666667
   Becke's b parameter  XBeta           ....  0.004200
 Correlation Functional Correlation     .... P86
 LDA part of GGA corr.  LDAOpt          .... PW91-LDA
 Gradients option       PostSCFGGA      .... off
   NL short-range parameter             ....  4.400000
 RI-approximation to the Coulomb term is turned on
   Number of AuxJ basis functions       .... 990


General Settings:
 Integral files         IntName         .... data/geom_opt_P_BP86/316378/316378
 Hartree-Fock type      HFTyp           .... RHF
 Total Charge           Charge          ....    0
 Multiplicity           Mult            ....    1
 Number of Electrons    NEL             ....  122
 Basis Dimension        Dim             ....  329
 Nuclear Repulsion      ENuc            ....   1186.2374069616 Eh

Convergence Acceleration:
 AO-DIIS                CNVDIIS         .... on
   Start iteration      DIISMaxIt       ....    12
   Startup error        DIISStart       ....  0.200000
   # of expansion vecs  DIISMaxEq       ....     5
   Bias factor          DIISBfac        ....   1.050
   Max. coefficient     DIISMaxC        ....  10.000
 MO-DIIS                CNVKDIIS        .... off
 Trust-Rad. Augm. Hess. CNVTRAH         .... auto
   Auto Start mean grad. ratio tolernc. ....  1.125000
   Auto Start start iteration           ....    50
   Auto Start num. interpolation iter.  ....    10
   Max. Number of Micro iterations      ....    24
   Max. Number of Macro iterations      .... Maxiter - #DIIS iter
   Number of Davidson start vectors     ....     2
   Converg. threshold    (grad. norm)   ....   1.000e-05
   Grad. Scal. Fac. for Micro threshold ....   0.100
   Minimum threshold for Micro iter.    ....   1.000e-02
   NR start threshold (gradient norm)   ....   1.000e-04
   Initial trust radius                 ....   0.400
   Minimum AH scaling param. (alpha)    ....   1.000
   Maximum AH scaling param. (alpha)    .... 1000.000
   Quad. conv. algorithm                .... NR
   White noise on init. David. guess    .... on
   Maximum white noise                  ....   0.010
   Pseudo random numbers                .... off
   Inactive MOs                         .... canonical
   Orbital update algorithm             .... Taylor
   Preconditioner                       .... Diag
   Full preconditioner red. dimension   ....   250
 SOSCF                  CNVSOSCF        .... on
   Start iteration      SOSCFMaxIt      ....   150
   Startup grad/error   SOSCFStart      ....  0.003300
   Hessian update       SOSCFHessUp     .... L-BFGS
 Level Shifting         CNVShift        .... on
   Level shift para.    LevelShift      ....    0.2500
   Turn off err/grad.   ShiftErr        ....    0.0010
 Zerner damping         CNVZerner       .... off
 Static damping         CNVDamp         .... on
   Fraction old density DampFac         ....    0.7000
   Max. Damping (<1)    DampMax         ....    0.9800
   Min. Damping (>=0)   DampMin         ....    0.0000
   Turn off err/grad.   DampErr         ....    0.1000

SCF Procedure:
 Maximum # iterations   MaxIter         ....   125
 SCF integral mode      SCFMode         .... Direct
   Integral package                     .... SHARK and LIBINT hybrid scheme
 Reset frequency        DirectResetFreq ....    20
 Integral Threshold     Thresh          ....  2.500e-11 Eh
 Primitive CutOff       TCut            ....  2.500e-12 Eh

Convergence Tolerance:
 Convergence Check Mode ConvCheckMode   .... Total+1el-Energy
 Convergence forced     ConvForced      .... 0
 Energy Change          TolE            ....  1.000e-08 Eh
 1-El. energy change                    ....  1.000e-05 Eh
 Orbital Gradient       TolG            ....  1.000e-05
 Orbital Rotation angle TolX            ....  1.000e-05
 DIIS Error             TolErr          ....  5.000e-07

------------------------------
INITIAL GUESS: MODEL POTENTIAL
------------------------------
Loading Hartree-Fock densities                     ... done
Calculating cut-offs                               ... done
Initializing the effective Hamiltonian             ... done
Setting up the integral package (SHARK)            ... done
Starting the Coulomb interaction                   ... done (   0.1 sec)
Making the grid                                    ... done (   0.2 sec)
Mapping shells                                     ... done
Starting the XC term evaluation                    ... done (   0.2 sec)
  promolecular density results
     # of electrons  =    121.985391657
     EX              =   -101.467950612
     EC              =     -4.494912215
     EX+EC           =   -105.962862827
Transforming the Hamiltonian                       ... done (   0.0 sec)
Diagonalizing the Hamiltonian                      ... done (   0.0 sec)
Back transforming the eigenvectors                 ... done (   0.0 sec)
Now organizing SCF variables                       ... done
                      ------------------
                      INITIAL GUESS DONE (   0.5 sec)
                      ------------------
             **** ENERGY FILE WAS UPDATED (data/geom_opt_P_BP86/316378/316378.en.tmp) ****
Finished Guess after   0.6 sec
Maximum memory used throughout the entire GUESS-calculation: 25.0 MB


           ************************************************************
           *        Program running with 6 parallel MPI-processes     *
           *              working on a common directory               *
           ************************************************************

-------------------------------------------------------------------------------------------
                                      ORCA LEAN-SCF
                              memory conserving SCF solver
-------------------------------------------------------------------------------------------

----------------------------------------D-I-I-S--------------------------------------------
Iteration    Energy (Eh)           Delta-E    RMSDP     MaxDP     DIISErr   Damp  Time(sec)
-------------------------------------------------------------------------------------------
               ***  Starting incremental Fock matrix formation  ***
    1    -887.8110511809975378     0.00e+00  2.28e-03  7.80e-02  1.57e-01  0.700   1.0
    2    -888.0003542957417721    -1.89e-01  1.63e-03  4.43e-02  7.42e-02  0.700   1.0
                               ***Turning on AO-DIIS***
    3    -888.0672761149633061    -6.69e-02  6.66e-04  2.44e-02  2.07e-02  0.700   0.9
    4    -888.1062779035366930    -3.90e-02  1.12e-03  4.93e-02  8.99e-03  0.000   0.9
    5    -888.1941650681908413    -8.79e-02  2.52e-04  9.34e-03  5.91e-03  0.000   1.0
                              *** Initializing SOSCF ***
---------------------------------------S-O-S-C-F--------------------------------------
Iteration    Energy (Eh)           Delta-E    RMSDP     MaxDP     MaxGrad    Time(sec)
--------------------------------------------------------------------------------------
    6    -888.1949774587058073    -8.12e-04  9.17e-05  2.01e-03  1.45e-03     1.3
               *** Restarting incremental Fock matrix formation ***
    7    -888.1950353000399900    -5.78e-05  6.43e-05  1.35e-03  2.38e-04     0.9
    8    -888.1950331896293847     2.11e-06  2.50e-05  8.53e-04  5.93e-04     0.8
    9    -888.1950406110834138    -7.42e-06  2.75e-05  1.08e-03  2.76e-04     0.7
   10    -888.1950388694669982     1.74e-06  1.55e-05  4.71e-04  2.75e-04     0.8
   11    -888.1950418410212933    -2.97e-06  6.61e-06  2.98e-04  1.63e-05     0.8
   12    -888.1950417745367758     6.65e-08  3.81e-06  1.72e-04  2.56e-05     0.7
   13    -888.1950418964777327    -1.22e-07  1.31e-06  4.08e-05  3.62e-06     0.7
   14    -888.1950419142619921    -1.78e-08  6.80e-07  2.53e-05  8.68e-06     0.7
   15    -888.1950419018519369     1.24e-08  4.71e-07  1.29e-05  4.88e-06     0.7
   16    -888.1950418799899580     2.19e-08  2.93e-07  7.66e-06  6.81e-06     0.6
   17    -888.1950418999660997    -2.00e-08  1.54e-07  8.87e-06  4.95e-07     0.7
                  *** Gradient check signals convergence ***

               *****************************************************
               *                     SUCCESS                       *
               *           SCF CONVERGED AFTER  17 CYCLES          *
               *****************************************************

             **** ENERGY FILE WAS UPDATED (data/geom_opt_P_BP86/316378/316378.en.tmp) ****

----------------
TOTAL SCF ENERGY
----------------

Total Energy       :       -888.19504189996610 Eh          -24169.01582 eV

Components:
Nuclear Repulsion  :       1186.23740696157688 Eh           32279.16088 eV
Electronic Energy  :      -2074.43244886154298 Eh          -56448.17670 eV
One Electron Energy:      -3565.97487172035153 Eh          -97035.10943 eV
Two Electron Energy:       1491.54242285880855 Eh           40586.93273 eV

Virial components:
Potential Energy   :      -1768.50441523160862 Eh          -48123.45169 eV
Kinetic Energy     :        880.30937333164240 Eh           23954.43587 eV
Virial Ratio       :          2.00895783778659

DFT components:
N(Alpha)           :       61.000020796250 electrons
N(Beta)            :       61.000020796250 electrons
N(Total)           :      122.000041592500 electrons
E(X)               :     -103.290434197663 Eh       
E(C)               :       -4.481810886030 Eh       
E(XC)              :     -107.772245083693 Eh       

---------------
SCF CONVERGENCE
---------------

  Last Energy change         ...    1.9976e-08  Tolerance :   1.0000e-08
  Last MAX-Density change    ...    8.8738e-06  Tolerance :   1.0000e-07
  Last RMS-Density change    ...    1.5396e-07  Tolerance :   5.0000e-09
  Last DIIS Error            ...    1.4500e-03  Tolerance :   5.0000e-07
  Last Orbital Gradient      ...    4.9465e-07  Tolerance :   1.0000e-05
  Last Orbital Rotation      ...    1.9379e-06  Tolerance :   1.0000e-05


----------------
ORBITAL ENERGIES
----------------

  NO   OCC          E(Eh)            E(eV) 
   0   2.0000     -76.317921     -2076.7162 
   1   2.0000      -9.929566      -270.1972 
   2   2.0000      -9.929433      -270.1936 
   3   2.0000      -9.919483      -269.9229 
   4   2.0000      -9.919302      -269.9179 
   5   2.0000      -9.918700      -269.9015 
   6   2.0000      -9.918321      -269.8912 
   7   2.0000      -9.917857      -269.8786 
   8   2.0000      -9.917298      -269.8634 
   9   2.0000      -9.905297      -269.5368 
  10   2.0000      -9.903662      -269.4923 
  11   2.0000      -9.902632      -269.4643 
  12   2.0000      -9.900924      -269.4178 
  13   2.0000      -9.900653      -269.4105 
  14   2.0000      -9.899026      -269.3662 
  15   2.0000      -6.288342      -171.1145 
  16   2.0000      -4.509982      -122.7229 
  17   2.0000      -4.509413      -122.7074 
  18   2.0000      -4.505538      -122.6019 
  19   2.0000      -0.777530       -21.1577 
  20   2.0000      -0.742374       -20.2010 
  21   2.0000      -0.724736       -19.7211 
  22   2.0000      -0.678575       -18.4650 
  23   2.0000      -0.672017       -18.2865 
  24   2.0000      -0.617410       -16.8006 
  25   2.0000      -0.614862       -16.7312 
  26   2.0000      -0.608136       -16.5482 
  27   2.0000      -0.607281       -16.5250 
  28   2.0000      -0.579517       -15.7695 
  29   2.0000      -0.543484       -14.7890 
  30   2.0000      -0.528065       -14.3694 
  31   2.0000      -0.493044       -13.4164 
  32   2.0000      -0.477141       -12.9837 
  33   2.0000      -0.445052       -12.1105 
  34   2.0000      -0.413147       -11.2423 
  35   2.0000      -0.411188       -11.1890 
  36   2.0000      -0.407384       -11.0855 
  37   2.0000      -0.400169       -10.8891 
  38   2.0000      -0.391972       -10.6661 
  39   2.0000      -0.388285       -10.5658 
  40   2.0000      -0.381842       -10.3905 
  41   2.0000      -0.378046       -10.2872 
  42   2.0000      -0.372912       -10.1475 
  43   2.0000      -0.350723        -9.5437 
  44   2.0000      -0.344187        -9.3658 
  45   2.0000      -0.339932        -9.2500 
  46   2.0000      -0.334288        -9.0964 
  47   2.0000      -0.333004        -9.0615 
  48   2.0000      -0.331454        -9.0193 
  49   2.0000      -0.319409        -8.6916 
  50   2.0000      -0.318420        -8.6647 
  51   2.0000      -0.306626        -8.3437 
  52   2.0000      -0.301223        -8.1967 
  53   2.0000      -0.295635        -8.0446 
  54   2.0000      -0.289201        -7.8696 
  55   2.0000      -0.286073        -7.7844 
  56   2.0000      -0.270506        -7.3608 
  57   2.0000      -0.264750        -7.2042 
  58   2.0000      -0.233256        -6.3472 
  59   2.0000      -0.232420        -6.3245 
  60   2.0000      -0.164804        -4.4845 
  61   0.0000      -0.054544        -1.4842 
  62   0.0000      -0.044041        -1.1984 
  63   0.0000       0.027471         0.7475 
  64   0.0000       0.032661         0.8888 
  65   0.0000       0.044862         1.2207 
  66   0.0000       0.053944         1.4679 
  67   0.0000       0.062962         1.7133 
  68   0.0000       0.068112         1.8534 
  69   0.0000       0.071624         1.9490 
  70   0.0000       0.080126         2.1803 
  71   0.0000       0.087824         2.3898 
*Only the first 10 virtual orbitals were printed.

                    ********************************
                    * MULLIKEN POPULATION ANALYSIS *
                    ********************************

-----------------------
MULLIKEN ATOMIC CHARGES
-----------------------
   0 C :    0.061073
   1 C :   -0.400265
   2 C :    0.043848
   3 C :    0.041699
   4 P :    0.205952
   5 C :   -0.100396
   6 C :    0.019522
   7 C :    0.009677
   8 C :    0.011824
   9 C :    0.008739
  10 C :    0.008158
  11 C :   -0.405274
  12 C :    0.065748
  13 C :    0.060489
  14 C :    0.044813
  15 H :    0.028768
  16 H :    0.003703
  17 H :    0.007929
  18 H :    0.017191
  19 H :    0.029083
  20 H :    0.026209
  21 H :    0.016846
  22 H :    0.033797
  23 H :    0.025896
  24 H :   -0.007331
  25 H :   -0.004256
  26 H :   -0.003969
  27 H :   -0.009553
  28 H :   -0.012827
  29 H :    0.016187
  30 H :    0.007657
  31 H :    0.024793
  32 H :    0.026383
  33 H :    0.014110
  34 H :    0.009255
  35 H :    0.027380
  36 H :    0.018802
  37 H :    0.028342
Sum of atomic charges:   -0.0000000

--------------------------------
MULLIKEN REDUCED ORBITAL CHARGES
--------------------------------
  0 C s       :     2.969573  s :     2.969573
      pz      :     0.935554  p :     2.943037
      px      :     1.009875
      py      :     0.997609
      dz2     :     0.005603  d :     0.026317
      dxz     :     0.004476
      dyz     :     0.007457
      dx2y2   :     0.005042
      dxy     :     0.003738

  1 C s       :     3.266965  s :     3.266965
      pz      :     1.026159  p :     3.088473
      px      :     1.024831
      py      :     1.037484
      dz2     :     0.011029  d :     0.044826
      dxz     :     0.007981
      dyz     :     0.009212
      dx2y2   :     0.008606
      dxy     :     0.007998

  2 C s       :     2.994096  s :     2.994096
      pz      :     1.001188  p :     2.936303
      px      :     0.984486
      py      :     0.950629
      dz2     :     0.007169  d :     0.025753
      dxz     :     0.001701
      dyz     :     0.005285
      dx2y2   :     0.007758
      dxy     :     0.003840

  3 C s       :     2.990203  s :     2.990203
      pz      :     1.002409  p :     2.941910
      px      :     0.948324
      py      :     0.991177
      dz2     :     0.006258  d :     0.026187
      dxz     :     0.004335
      dyz     :     0.003846
      dx2y2   :     0.005435
      dxy     :     0.006313

  4 P s       :     5.672967  s :     5.672967
      pz      :     3.382506  p :     8.957352
      px      :     2.768291
      py      :     2.806554
      dz2     :     0.017132  d :     0.163730
      dxz     :     0.024166
      dyz     :     0.030477
      dx2y2   :     0.039996
      dxy     :     0.051958

  5 C s       :     3.076105  s :     3.076105
      pz      :     0.996370  p :     2.988347
      px      :     0.987074
      py      :     1.004902
      dz2     :     0.008977  d :     0.035944
      dxz     :     0.011255
      dyz     :     0.006018
      dx2y2   :     0.004963
      dxy     :     0.004732

  6 C s       :     3.229527  s :     3.229527
      pz      :     0.875280  p :     2.718179
      px      :     0.913271
      py      :     0.929628
      dz2     :     0.007347  d :     0.032772
      dxz     :     0.009003
      dyz     :     0.003960
      dx2y2   :     0.006058
      dxy     :     0.006404

  7 C s       :     3.169402  s :     3.169402
      pz      :     0.907878  p :     2.788157
      px      :     0.898219
      py      :     0.982061
      dz2     :     0.006975  d :     0.032763
      dxz     :     0.011092
      dyz     :     0.004402
      dx2y2   :     0.005394
      dxy     :     0.004900

  8 C s       :     3.170158  s :     3.170158
      pz      :     0.962306  p :     2.784722
      px      :     0.861976
      py      :     0.960441
      dz2     :     0.009293  d :     0.033295
      dxz     :     0.009113
      dyz     :     0.005673
      dx2y2   :     0.004717
      dxy     :     0.004499

  9 C s       :     3.172078  s :     3.172078
      pz      :     0.859960  p :     2.786360
      px      :     0.965518
      py      :     0.960882
      dz2     :     0.007323  d :     0.032824
      dxz     :     0.009213
      dyz     :     0.004044
      dx2y2   :     0.005976
      dxy     :     0.006268

 10 C s       :     3.211424  s :     3.211424
      pz      :     0.913150  p :     2.747233
      px      :     0.865935
      py      :     0.968149
      dz2     :     0.007010  d :     0.033185
      dxz     :     0.011385
      dyz     :     0.004262
      dx2y2   :     0.005357
      dxy     :     0.005170

 11 C s       :     3.265816  s :     3.265816
      pz      :     1.030905  p :     3.094719
      px      :     1.032848
      py      :     1.030967
      dz2     :     0.010188  d :     0.044739
      dxz     :     0.010265
      dyz     :     0.008197
      dx2y2   :     0.006179
      dxy     :     0.009910

 12 C s       :     2.967508  s :     2.967508
      pz      :     0.955713  p :     2.939950
      px      :     0.986894
      py      :     0.997343
      dz2     :     0.005790  d :     0.026794
      dxz     :     0.007363
      dyz     :     0.004286
      dx2y2   :     0.001798
      dxy     :     0.007557

 13 C s       :     2.982097  s :     2.982097
      pz      :     0.990311  p :     2.931512
      px      :     0.941980
      py      :     0.999222
      dz2     :     0.008243  d :     0.025901
      dxz     :     0.004184
      dyz     :     0.001827
      dx2y2   :     0.002626
      dxy     :     0.009021

 14 C s       :     2.990911  s :     2.990911
      pz      :     1.005259  p :     2.938468
      px      :     0.997483
      py      :     0.935726
      dz2     :     0.006302  d :     0.025807
      dxz     :     0.005217
      dyz     :     0.002971
      dx2y2   :     0.003431
      dxy     :     0.007886

 15 H s       :     0.947977  s :     0.947977
      pz      :     0.004519  p :     0.023256
      px      :     0.012620
      py      :     0.006116

 16 H s       :     0.972580  s :     0.972580
      pz      :     0.005587  p :     0.023717
      px      :     0.008050
      py      :     0.010080

 17 H s       :     0.968952  s :     0.968952
      pz      :     0.006266  p :     0.023119
      px      :     0.006142
      py      :     0.010711

 18 H s       :     0.959785  s :     0.959785
      pz      :     0.007238  p :     0.023025
      px      :     0.005252
      py      :     0.010534

 19 H s       :     0.947801  s :     0.947801
      pz      :     0.005631  p :     0.023116
      px      :     0.012154
      py      :     0.005331

 20 H s       :     0.951059  s :     0.951059
      pz      :     0.012830  p :     0.022732
      px      :     0.004998
      py      :     0.004904

 21 H s       :     0.960109  s :     0.960109
      pz      :     0.006994  p :     0.023046
      px      :     0.004478
      py      :     0.011573

 22 H s       :     0.943384  s :     0.943384
      pz      :     0.012774  p :     0.022819
      px      :     0.004622
      py      :     0.005423

 23 H s       :     0.950663  s :     0.950663
      pz      :     0.006780  p :     0.023441
      px      :     0.008173
      py      :     0.008489

 24 H s       :     0.984729  s :     0.984729
      pz      :     0.011834  p :     0.022603
      px      :     0.004244
      py      :     0.006524

 25 H s       :     0.981885  s :     0.981885
      pz      :     0.008467  p :     0.022370
      px      :     0.009033
      py      :     0.004871

 26 H s       :     0.981618  s :     0.981618
      pz      :     0.004356  p :     0.022351
      px      :     0.012199
      py      :     0.005797

 27 H s       :     0.987196  s :     0.987196
      pz      :     0.011630  p :     0.022357
      px      :     0.004133
      py      :     0.006594

 28 H s       :     0.989732  s :     0.989732
      pz      :     0.008707  p :     0.023095
      px      :     0.009346
      py      :     0.005042

 29 H s       :     0.960471  s :     0.960471
      pz      :     0.007583  p :     0.023343
      px      :     0.009711
      py      :     0.006049

 30 H s       :     0.969262  s :     0.969262
      pz      :     0.004460  p :     0.023081
      px      :     0.008622
      py      :     0.009999

 31 H s       :     0.951742  s :     0.951742
      pz      :     0.005507  p :     0.023465
      px      :     0.007262
      py      :     0.010697

 32 H s       :     0.950808  s :     0.950808
      pz      :     0.012072  p :     0.022808
      px      :     0.005058
      py      :     0.005679

 33 H s       :     0.962866  s :     0.962866
      pz      :     0.005218  p :     0.023024
      px      :     0.008156
      py      :     0.009651

 34 H s       :     0.967224  s :     0.967224
      pz      :     0.005771  p :     0.023521
      px      :     0.006599
      py      :     0.011151

 35 H s       :     0.949410  s :     0.949410
      pz      :     0.007716  p :     0.023209
      px      :     0.010227
      py      :     0.005266

 36 H s       :     0.958156  s :     0.958156
      pz      :     0.005612  p :     0.023042
      px      :     0.008965
      py      :     0.008465

 37 H s       :     0.948744  s :     0.948744
      pz      :     0.012087  p :     0.022914
      px      :     0.006396
      py      :     0.004432



                     *******************************
                     * LOEWDIN POPULATION ANALYSIS *
                     *******************************

----------------------
LOEWDIN ATOMIC CHARGES
----------------------
   0 C :   -0.067366
   1 C :   -0.176846
   2 C :   -0.061841
   3 C :   -0.060843
   4 P :    0.481968
   5 C :   -0.178405
   6 C :   -0.022850
   7 C :   -0.030635
   8 C :   -0.023067
   9 C :   -0.031294
  10 C :   -0.030319
  11 C :   -0.182322
  12 C :   -0.064220
  13 C :   -0.062892
  14 C :   -0.059213
  15 H :    0.025746
  16 H :    0.020065
  17 H :    0.022974
  18 H :    0.024892
  19 H :    0.025309
  20 H :    0.024540
  21 H :    0.027494
  22 H :    0.026621
  23 H :    0.019355
  24 H :    0.026950
  25 H :    0.030592
  26 H :    0.030030
  27 H :    0.029070
  28 H :    0.023300
  29 H :    0.019447
  30 H :    0.023720
  31 H :    0.020457
  32 H :    0.025892
  33 H :    0.023901
  34 H :    0.020992
  35 H :    0.025080
  36 H :    0.026316
  37 H :    0.027401

-------------------------------
LOEWDIN REDUCED ORBITAL CHARGES
-------------------------------
  0 C s       :     2.843560  s :     2.843560
      pz      :     1.016251  p :     3.152075
      px      :     1.067240
      py      :     1.068585
      dz2     :     0.018268  d :     0.071731
      dxz     :     0.010771
      dyz     :     0.018710
      dx2y2   :     0.013781
      dxy     :     0.010201

  1 C s       :     2.902502  s :     2.902502
      pz      :     1.062932  p :     3.171123
      px      :     1.043082
      py      :     1.065109
      dz2     :     0.028261  d :     0.103221
      dxz     :     0.015603
      dyz     :     0.020536
      dx2y2   :     0.019102
      dxy     :     0.019720

  2 C s       :     2.851255  s :     2.851255
      pz      :     1.065025  p :     3.141559
      px      :     1.044395
      py      :     1.032140
      dz2     :     0.019342  d :     0.069027
      dxz     :     0.004470
      dyz     :     0.013781
      dx2y2   :     0.019181
      dxy     :     0.012254

  3 C s       :     2.845504  s :     2.845504
      pz      :     1.068814  p :     3.144719
      px      :     1.015067
      py      :     1.060838
      dz2     :     0.017727  d :     0.070619
      dxz     :     0.010538
      dyz     :     0.010157
      dx2y2   :     0.015234
      dxy     :     0.016963

  4 P s       :     5.225964  s :     5.225964
      pz      :     3.426061  p :     9.059980
      px      :     2.791039
      py      :     2.842879
      dz2     :     0.026930  d :     0.232089
      dxz     :     0.031208
      dyz     :     0.042344
      dx2y2   :     0.056590
      dxy     :     0.075016

  5 C s       :     2.909259  s :     2.909259
      pz      :     1.079604  p :     3.174669
      px      :     1.084622
      py      :     1.010443
      dz2     :     0.023914  d :     0.094476
      dxz     :     0.032159
      dyz     :     0.015633
      dx2y2   :     0.011949
      dxy     :     0.010821

  6 C s       :     2.873581  s :     2.873581
      pz      :     1.031380  p :     3.059977
      px      :     1.061002
      py      :     0.967595
      dz2     :     0.020059  d :     0.089292
      dxz     :     0.026644
      dyz     :     0.009392
      dx2y2   :     0.017419
      dxy     :     0.015779

  7 C s       :     2.864133  s :     2.864133
      pz      :     1.041016  p :     3.077608
      px      :     1.048401
      py      :     0.988191
      dz2     :     0.019862  d :     0.088894
      dxz     :     0.030586
      dyz     :     0.011603
      dx2y2   :     0.014389
      dxy     :     0.012454

  8 C s       :     2.863185  s :     2.863185
      pz      :     1.053730  p :     3.069681
      px      :     1.039110
      py      :     0.976842
      dz2     :     0.025582  d :     0.090201
      dxz     :     0.027055
      dyz     :     0.014733
      dx2y2   :     0.012216
      dxy     :     0.010615

  9 C s       :     2.864700  s :     2.864700
      pz      :     1.031419  p :     3.077584
      px      :     1.062160
      py      :     0.984005
      dz2     :     0.019869  d :     0.089010
      dxz     :     0.027194
      dyz     :     0.009468
      dx2y2   :     0.016866
      dxy     :     0.015614

 10 C s       :     2.868799  s :     2.868799
      pz      :     1.040230  p :     3.070337
      px      :     1.048856
      py      :     0.981251
      dz2     :     0.019829  d :     0.091183
      dxz     :     0.032187
      dyz     :     0.011486
      dx2y2   :     0.014340
      dxy     :     0.013340

 11 C s       :     2.901976  s :     2.901976
      pz      :     1.050736  p :     3.177325
      px      :     1.061837
      py      :     1.064753
      dz2     :     0.023929  d :     0.103020
      dxz     :     0.024917
      dyz     :     0.016771
      dx2y2   :     0.013941
      dxy     :     0.023463

 12 C s       :     2.842751  s :     2.842751
      pz      :     1.022866  p :     3.148619
      px      :     1.060106
      py      :     1.065648
      dz2     :     0.017191  d :     0.072850
      dxz     :     0.019951
      dyz     :     0.010420
      dx2y2   :     0.004950
      dxy     :     0.020338

 13 C s       :     2.849913  s :     2.849913
      pz      :     1.049052  p :     3.143300
      px      :     1.027120
      py      :     1.067127
      dz2     :     0.020920  d :     0.069679
      dxz     :     0.013214
      dyz     :     0.004694
      dx2y2   :     0.007706
      dxy     :     0.023145

 14 C s       :     2.847746  s :     2.847746
      pz      :     1.064209  p :     3.142102
      px      :     1.063262
      py      :     1.014631
      dz2     :     0.016781  d :     0.069365
      dxz     :     0.014027
      dyz     :     0.007935
      dx2y2   :     0.009489
      dxy     :     0.021133

 15 H s       :     0.906788  s :     0.906788
      pz      :     0.014212  p :     0.067466
      px      :     0.038785
      py      :     0.014470

 16 H s       :     0.911520  s :     0.911520
      pz      :     0.018014  p :     0.068416
      px      :     0.022010
      py      :     0.028392

 17 H s       :     0.910111  s :     0.910111
      pz      :     0.020574  p :     0.066915
      px      :     0.014790
      py      :     0.031551

 18 H s       :     0.908871  s :     0.908871
      pz      :     0.019483  p :     0.066237
      px      :     0.013507
      py      :     0.033247

 19 H s       :     0.907812  s :     0.907812
      pz      :     0.013552  p :     0.066879
      px      :     0.038781
      py      :     0.014547

 20 H s       :     0.908654  s :     0.908654
      pz      :     0.039978  p :     0.066806
      px      :     0.013172
      py      :     0.013656

 21 H s       :     0.906407  s :     0.906407
      pz      :     0.018110  p :     0.066099
      px      :     0.013169
      py      :     0.034821

 22 H s       :     0.906345  s :     0.906345
      pz      :     0.039602  p :     0.067033
      px      :     0.014039
      py      :     0.013391

 23 H s       :     0.912701  s :     0.912701
      pz      :     0.017864  p :     0.067944
      px      :     0.026734
      py      :     0.023347

 24 H s       :     0.903552  s :     0.903552
      pz      :     0.037214  p :     0.069498
      px      :     0.012640
      py      :     0.019644

 25 H s       :     0.901197  s :     0.901197
      pz      :     0.025921  p :     0.068211
      px      :     0.027901
      py      :     0.014389

 26 H s       :     0.901856  s :     0.901856
      pz      :     0.013581  p :     0.068114
      px      :     0.037396
      py      :     0.017137

 27 H s       :     0.902573  s :     0.902573
      pz      :     0.035628  p :     0.068357
      px      :     0.013053
      py      :     0.019676

 28 H s       :     0.906468  s :     0.906468
      pz      :     0.027205  p :     0.070232
      px      :     0.028359
      py      :     0.014668

 29 H s       :     0.912875  s :     0.912875
      pz      :     0.024526  p :     0.067677
      px      :     0.028264
      py      :     0.014887

 30 H s       :     0.909451  s :     0.909451
      pz      :     0.013424  p :     0.066829
      px      :     0.024550
      py      :     0.028855

[...]
      dxz     :     0.023670
      dyz     :     0.016001
      dx2y2   :     0.013743
      dxy     :     0.022707

 12 C s       :     2.854755  s :     2.854755
      pz      :     1.021643  p :     3.141486
      px      :     1.057774
      py      :     1.062070
      dz2     :     0.017258  d :     0.069681
      dxz     :     0.018557
      dyz     :     0.010002
      dx2y2   :     0.005245
      dxy     :     0.018619

 13 C s       :     2.860600  s :     2.860600
      pz      :     1.049395  p :     3.142142
      px      :     1.029599
      py      :     1.063148
      dz2     :     0.020297  d :     0.068383
      dxz     :     0.012987
      dyz     :     0.004592
      dx2y2   :     0.008246
      dxy     :     0.022261

 14 C s       :     2.858149  s :     2.858149
      pz      :     1.061377  p :     3.141648
      px      :     1.056616
      py      :     1.023654
      dz2     :     0.015973  d :     0.068379
      dxz     :     0.014107
      dyz     :     0.007549
      dx2y2   :     0.009671
      dxy     :     0.021079

 15 H s       :     0.903884  s :     0.903884
      pz      :     0.012827  p :     0.066194
      px      :     0.038269
      py      :     0.015097

 16 H s       :     0.910644  s :     0.910644
      pz      :     0.017083  p :     0.066008
      px      :     0.022925
      py      :     0.026000

 17 H s       :     0.909234  s :     0.909234
      pz      :     0.019901  p :     0.064296
      px      :     0.012954
      py      :     0.031441

 18 H s       :     0.910225  s :     0.910225
      pz      :     0.019273  p :     0.064006
      px      :     0.012417
      py      :     0.032317

 19 H s       :     0.906202  s :     0.906202
      pz      :     0.012315  p :     0.065299
      px      :     0.037838
      py      :     0.015146

 20 H s       :     0.909205  s :     0.909205
      pz      :     0.038668  p :     0.064886
      px      :     0.012897
      py      :     0.013321

 21 H s       :     0.908056  s :     0.908056
      pz      :     0.017359  p :     0.063955
      px      :     0.012521
      py      :     0.034075

 22 H s       :     0.907640  s :     0.907640
      pz      :     0.038673  p :     0.064828
      px      :     0.013491
      py      :     0.012663

 23 H s       :     0.912535  s :     0.912535
      pz      :     0.017141  p :     0.065420
      px      :     0.025432
      py      :     0.022847

 24 H s       :     0.904353  s :     0.904353
      pz      :     0.035566  p :     0.067345
      px      :     0.011843
      py      :     0.019936

 25 H s       :     0.901015  s :     0.901015
      pz      :     0.023319  p :     0.065885
      px      :     0.028502
      py      :     0.014064

 26 H s       :     0.901433  s :     0.901433
      pz      :     0.013337  p :     0.065862
      px      :     0.036540
      py      :     0.015985

 27 H s       :     0.901869  s :     0.901869
      pz      :     0.034186  p :     0.065921
      px      :     0.011691
      py      :     0.020044

 28 H s       :     0.905606  s :     0.905606
      pz      :     0.024080  p :     0.069050
      px      :     0.030618
      py      :     0.014352

 29 H s       :     0.912142  s :     0.912142
      pz      :     0.022869  p :     0.065961
      px      :     0.029269
      py      :     0.013823

 30 H s       :     0.907906  s :     0.907906
      pz      :     0.012595  p :     0.064303
      px      :     0.023767
      py      :     0.027941

 31 H s       :     0.911008  s :     0.911008
      pz      :     0.015841  p :     0.065502
      px      :     0.018701
      py      :     0.030959

 32 H s       :     0.907781  s :     0.907781
      pz      :     0.038623  p :     0.064949
      px      :     0.013743
      py      :     0.012583

 33 H s       :     0.911274  s :     0.911274
      pz      :     0.012263  p :     0.063878
      px      :     0.024505
      py      :     0.027110

 34 H s       :     0.910676  s :     0.910676
      pz      :     0.014660  p :     0.065396
      px      :     0.018620
      py      :     0.032117

 35 H s       :     0.905790  s :     0.905790
      pz      :     0.021537  p :     0.066062
      px      :     0.029663
      py      :     0.014862

 36 H s       :     0.909902  s :     0.909902
      pz      :     0.012309  p :     0.064018
      px      :     0.024432
      py      :     0.027278

 37 H s       :     0.906445  s :     0.906445
      pz      :     0.036579  p :     0.064621
      px      :     0.015591
      py      :     0.012450



                      *****************************
                      * MAYER POPULATION ANALYSIS *
                      *****************************

  NA   - Mulliken gross atomic population
  ZA   - Total nuclear charge
  QA   - Mulliken gross atomic charge
  VA   - Mayer's total valence
  BVA  - Mayer's bonded valence
  FA   - Mayer's free valence

  ATOM       NA         ZA         QA         VA         BVA        FA
  0 C      5.9571     6.0000     0.0429     3.8931     3.8931    -0.0000
  1 C      6.4084     6.0000    -0.4084     4.1601     4.1601    -0.0000
  2 C      5.9740     6.0000     0.0260     3.8864     3.8864    -0.0000
  3 C      5.9744     6.0000     0.0256     3.9051     3.9051    -0.0000
  4 P     14.7572    15.0000     0.2428     2.9757     2.9757    -0.0000
  5 C      6.1268     6.0000    -0.1268     3.8017     3.8017     0.0000
  6 C      5.9875     6.0000     0.0125     3.8739     3.8739    -0.0000
  7 C      5.9966     6.0000     0.0034     3.8363     3.8363    -0.0000
  8 C      5.9999     6.0000     0.0001     3.8276     3.8276    -0.0000
  9 C      5.9973     6.0000     0.0027     3.8485     3.8485    -0.0000
 10 C      6.0008     6.0000    -0.0008     3.8954     3.8954     0.0000
 11 C      6.4180     6.0000    -0.4180     4.1442     4.1442    -0.0000
 12 C      5.9544     6.0000     0.0456     3.9082     3.9082    -0.0000
 13 C      5.9612     6.0000     0.0388     3.8887     3.8887    -0.0000
 14 C      5.9678     6.0000     0.0322     3.9018     3.9018    -0.0000
 15 H      0.9600     1.0000     0.0400     1.0069     1.0069    -0.0000
 16 H      0.9914     1.0000     0.0086     1.0160     1.0160    -0.0000
 17 H      0.9836     1.0000     0.0164     0.9938     0.9938     0.0000
 18 H      0.9784     1.0000     0.0216     0.9951     0.9951    -0.0000
 19 H      0.9623     1.0000     0.0377     1.0042     1.0042    -0.0000
 20 H      0.9677     1.0000     0.0323     0.9987     0.9987     0.0000
 21 H      0.9790     1.0000     0.0210     0.9959     0.9959    -0.0000
 22 H      0.9624     1.0000     0.0376     0.9963     0.9963    -0.0000
 23 H      0.9667     1.0000     0.0333     1.0000     1.0000    -0.0000
 24 H      0.9986     1.0000     0.0014     0.9981     0.9981     0.0000
 25 H      0.9965     1.0000     0.0035     0.9788     0.9788    -0.0000
 26 H      0.9956     1.0000     0.0044     0.9786     0.9786    -0.0000
 27 H      1.0015     1.0000    -0.0015     0.9780     0.9780    -0.0000
 28 H      1.0105     1.0000    -0.0105     0.9970     0.9970     0.0000
 29 H      0.9758     1.0000     0.0242     1.0023     1.0023    -0.0000
 30 H      0.9834     1.0000     0.0166     0.9941     0.9941     0.0000
 31 H      0.9669     1.0000     0.0331     1.0010     1.0010     0.0000
 32 H      0.9670     1.0000     0.0330     1.0011     1.0011    -0.0000
 33 H      0.9797     1.0000     0.0203     0.9946     0.9946    -0.0000
 34 H      0.9820     1.0000     0.0180     1.0113     1.0113     0.0000
 35 H      0.9650     1.0000     0.0350     1.0063     1.0063    -0.0000
 36 H      0.9785     1.0000     0.0215     0.9953     0.9953    -0.0000
 37 H      0.9663     1.0000     0.0337     0.9972     0.9972     0.0000

  Mayer bond orders larger than 0.100000
B(  0-C ,  1-C ) :   1.0268 B(  0-C , 15-H ) :   0.9476 B(  0-C , 16-H ) :   0.9537 
B(  0-C , 17-H ) :   0.9457 B(  1-C ,  2-C ) :   1.0194 B(  1-C ,  3-C ) :   1.0349 
B(  1-C ,  4-P ) :   0.9296 B(  2-C , 18-H ) :   0.9502 B(  2-C , 19-H ) :   0.9581 
B(  2-C , 20-H ) :   0.9557 B(  3-C , 21-H ) :   0.9468 B(  3-C , 22-H ) :   0.9514 
B(  3-C , 23-H ) :   0.9518 B(  4-P ,  5-C ) :   0.9367 B(  4-P , 11-C ) :   0.9166 
B(  5-C ,  6-C ) :   1.3796 B(  5-C , 10-C ) :   1.3478 B(  6-C ,  7-C ) :   1.3817 
B(  6-C , 24-H ) :   0.9684 B(  7-C ,  8-C ) :   1.3828 B(  7-C , 25-H ) :   0.9767 
B(  8-C ,  9-C ) :   1.3691 B(  8-C , 26-H ) :   0.9760 B(  9-C , 10-C ) :   1.4025 
B(  9-C , 27-H ) :   0.9746 B( 10-C , 28-H ) :   0.9624 B( 11-C , 12-C ) :   1.0239 
B( 11-C , 13-C ) :   1.0238 B( 11-C , 14-C ) :   1.0341 B( 12-C , 29-H ) :   0.9540 
B( 12-C , 30-H ) :   0.9383 B( 12-C , 31-H ) :   0.9485 B( 13-C , 32-H ) :   0.9558 
B( 13-C , 33-H ) :   0.9518 B( 13-C , 34-H ) :   0.9563 B( 14-C , 35-H ) :   0.9528 
B( 14-C , 36-H ) :   0.9514 B( 14-C , 37-H ) :   0.9534 

-------
TIMINGS
-------

Total SCF time: 0 days 0 hours 0 min 6 sec 

Total time                  ....       6.030 sec
Sum of individual times     ....       5.940 sec  ( 98.5%)

SCF preparation             ....       0.124 sec  (  2.1%)
Fock matrix formation       ....       5.384 sec  ( 89.3%)
  Startup                   ....       0.021 sec  (  0.4% of F)
  Split-RI-J                ....       1.696 sec  ( 31.5% of F)
  XC integration            ....       3.573 sec  ( 66.4% of F)
    Basis function eval.    ....       1.037 sec  ( 29.0% of XC)
    Density eval.           ....       1.118 sec  ( 31.3% of XC)
    XC-Functional eval.     ....       0.108 sec  (  3.0% of XC)
    XC-Potential eval.      ....       0.656 sec  ( 18.4% of XC)
Diagonalization             ....       0.000 sec  (  0.0%)
Density matrix formation    ....       0.056 sec  (  0.9%)
Total Energy calculation    ....       0.020 sec  (  0.3%)
Population analysis         ....       0.083 sec  (  1.4%)
Orbital Transformation      ....       0.030 sec  (  0.5%)
Orbital Orthonormalization  ....       0.000 sec  (  0.0%)
DIIS solution               ....       0.039 sec  (  0.6%)
SOSCF solution              ....       0.204 sec  (  3.4%)
Finished LeanSCF after   6.1 sec

Maximum memory used throughout the entire LEANSCF-calculation: 37.8 MB


-------------------------------------------------------------------------------
                          DFT DISPERSION CORRECTION                            
                                                                               
                              DFTD3 V3.1  Rev 1                                
                          USING Becke-Johnson damping                          
-------------------------------------------------------------------------------
The BP86 functional is recognized
Active option DFTDOPT                   ...         4   

molecular C6(AA) [au] = 13626.939392 


            DFT-D V3
 parameters
 s6 scaling factor         :     1.0000 
 a1 scaling factor         :     0.3946 
 s8 scaling factor         :     3.2822 
 a2 scaling factor         :     4.8516 
 ad hoc parameters k1-k3   :    16.0000     1.3333    -4.0000 

 Edisp/kcal,au: -50.873433308767  -0.081071967811 
 E6   /kcal   : -19.130817334 
 E8   /kcal   : -31.742615974 
 % E8         :  62.395269809 

-------------------------   ----------------
Dispersion correction           -0.081071968
-------------------------   ----------------


-------------------------   --------------------
FINAL SINGLE POINT ENERGY      -888.288492629529
-------------------------   --------------------

                                *** OPTIMIZATION RUN DONE ***



           ************************************************************
           *        Program running with 6 parallel MPI-processes     *
           *              working on a common directory               *
           ************************************************************

------------------------------------------------------------------------------
                              ORCA PROPERTY CALCULATIONS
------------------------------------------------------------------------------

GBWName                                 ... data/geom_opt_P_BP86/316378/316378.gbw
Number of atoms                         ...     38
Number of basis functions               ...    329
Max core memory                         ...   1024 MB

Electric properties:
Dipole moment                           ... YES
Quadrupole moment                       ...  NO
Static polarizability (Dipole/Dipole)   ...  NO
Static polarizability (Dipole/Quad.)    ...  NO
Static polarizability (Quad./Quad.)     ...  NO
Static polarizability (Velocity)        ...  NO

Atomic electric properties:
Dipole moment                           ...  NO
Quadrupole moment                       ...  NO
Static polarizability                   ...  NO

Choice of electric origin               ... Center of mass
Position of electric origin             ...     0.595107    -0.119727    -0.267550

General magnetic properties:
Magnetizability                         ...  NO

EPR properties:
g-Tensor (aka g-matrix)                 ...  NO
Zero-Field splitting spin-orbit         ...  NO
Zero-field splitting spin-spin          ...  NO
Hyperfine couplings                     ...  NO (   0 nuclei)
Quadrupole couplings                    ...  NO (   0 nuclei)
Contact density                         ...  NO (   0 nuclei)

NMR properties:
Chemical shifts                         ...  NO (   0 nuclei)
Spin-rotation constants                 ...  NO (   0 nuclei)
Spin-spin couplings                     ...  NO (   0 nuclei,    0 pairs)

Choice of magnetic origin               ... GIAO
Position of magnetic origin             ...     0.000000     0.000000     0.000000

Properties with geometric perturbations:
SCF Hessian                             ...  NO
IR spectrum                             ...  NO
VCD spectrum                            ...  NO
X-ray spectroscopy properties:
SCF XES/XAS/RIXS spectra                ...  NO


-------------
DIPOLE MOMENT
-------------

Method             : SCF
Type of density    : Electron Density
Multiplicity       :   1
Irrep              :   0
Energy             :  -888.2074206617182881 Eh
Relativity type    : 
Basis              : AO
                                X                 Y                 Z
Electronic contribution:     12.671131663      -2.809884007      -4.516787452
Nuclear contribution   :    -12.660031139       2.710215394       4.930978371
                        -----------------------------------------
Total Dipole Moment    :      0.011100524      -0.099668612       0.414190919
                        -----------------------------------------
Magnitude (a.u.)       :      0.426158622
Magnitude (Debye)      :      1.083209133



--------------------
Rotational spectrum 
--------------------
 
Rotational constants in cm-1:             0.024384             0.014368             0.011653 
Rotational constants in MHz :           731.025966           430.727731           349.348962 

Dipole components along the rotational axes: 
x,y,z [a.u.] :     0.060375    -0.023467     0.421207 
x,y,z [Debye]:     0.153460    -0.059648     1.070623 

 

Dipole moment calculation done in   0.0 sec 

Maximum memory used throughout the entire PROP-calculation: 18.7 MB

--------------------------------
SUGGESTED CITATIONS FOR THIS RUN
--------------------------------

Below you find a list of papers that are relevant to this ORCA run
We neither can nor want to force you to cite these papers, but we appreciate if you do
You receive ORCA, which is the product of decades of hard work by many enthusiastic individuals, for free
The only thing we kindly ask in return is that you cite our papers,
We deeply appreciate it, if you show your appreciation for ORCA by not just citing the generic ORCA reference.

Please note that relegating all ORCA citations to the supporting information does *not* help us.
SI sections are not indexed - citations you put there will not count into any citation statistics
But we need these citations in order to attract the funding resources that allow us to do what we are doing

Therefore, if you are a happy ORCA user, please consider citing a few of the papers listed below in the main body of your paper

In addition to the list printed below, the program has created the file data/geom_opt_P_BP86/316378/316378.bibtex that contains the list in bibtex format
You can import this file easily into all common literature databanks and citation aid programs


List of essential papers. We consider these as the minimum necessary citations

  1. Neese,F.
     Software update: the ORCA program system, version 5.0
     WIRES Comput. Molec. Sci., 2022 12(1)e1606
     doi.org/10.1002/wcms.1606

List of papers to cite with high priority. The work reported in these papers was absolutely
necessary for this run to complete.
Our perspective: the developers of density functionals and basis sets usually get cited in chemistry papers
Good! But without the algorithms to do something with them, the functionals or basis sets would not do anything.
Hence, in our opinion, the algorithm design and method developments papers are equally worthy of getting cited

  1. Neese,F.
     An improvement of the resolution of the identity approximation for the formation of the Coulomb matrix
     J. Comp. Chem., 2003 24(14)1740-1747
     doi.org/10.1002/jcc.10318
  2. Neese,F.
     The SHARK Integral Generation and Digestion System
     J. Comp. Chem., 2022  1-16
     doi.org/10.1002/jcc.26942
  3. Grimme,S.; Antony,J.; Ehrlich,S.; Krieg,H.
     A consistent and accurate ab initio parametrization of density functional dispersion correction (DFT-D) for the 94 elements H-Pu
     J. Chem. Phys., 2010 132 154104-XXXX
     doi.org/10.1063/1.3382344
  4. Grimme,S.; Ehrlich,S.; Goerigk,L.
     Effect of the damping function in dispersion corrected density functional theory
     J. Comput. Chem., 2011 32(7)1456-1465
     doi.org/10.1002/jcc.21759

List of suggested additional citations. These are papers that are important in the 'surrounding' of 
of this run, or papers that preceded the highly important papers. If you like your results we are grateful for a citation.

  1. Neese,F.
     The ORCA program system
     WIRES Comput. Molec. Sci., 2012 2(1)73-78
     doi.org/10.1002/wcms.81
  2. Neese,F.
     Software update: the ORCA program system, version 4.0
     WIRES Comput. Molec. Sci., 2018 8(1)1-6
     doi.org/10.1002/wcms.1327
  3. Neese,F.; Wennmohs,F.; Becker,U.; Riplinger,C.
     The ORCA quantum chemistry program package
     J. Chem. Phys., 2020 152 Art. No. L224108
     doi.org/10.1063/5.0004608

List of optional additional citations

  1. Neese,F.
     Approximate second-order SCF convergence for spin unrestricted wavefunctions
     Chem. Phys. Lett., 2000 325(1-3)93-98
     doi.org/10.1016/s0009-2614(00)00662-x

Timings for individual modules:

Sum of individual times          ...      188.803 sec (=   3.147 min)
Startup calculation              ...       14.396 sec (=   0.240 min)   7.6 %
SCF iterations                   ...      111.857 sec (=   1.864 min)  59.2 %
Property calculations            ...        0.181 sec (=   0.003 min)   0.1 %
SCF Gradient evaluation          ...       62.175 sec (=   1.036 min)  32.9 %
Geometry relaxation              ...        0.194 sec (=   0.003 min)   0.1 %
                             ****ORCA TERMINATED NORMALLY****
TOTAL RUN TIME: 0 days 0 hours 3 minutes 11 seconds 233 msec
