
                                 *****************
                                 * O   R   C   A *
                                 *****************

                                            #,                                       
                                            ###                                      
                                            ####                                     
                                            #####                                    
                                            ######                                   
                                           ########,                                 
                                     ,,################,,,,,                         
                               ,,#################################,,                 
                          ,,##########################################,,             
                       ,#########################################, ''#####,          
                    ,#############################################,,   '####,        
                  ,##################################################,,,,####,       
                ,###########''''           ''''###############################       
              ,#####''   ,,,,##########,,,,          '''####'''          '####       
            ,##' ,,,,###########################,,,                        '##       
           ' ,,###''''                  '''############,,,                           
         ,,##''                                '''############,,,,        ,,,,,,###''
      ,#''                                            '''#######################'''  
     '                                                          ''''####''''         
             ,#######,   #######,   ,#######,      ##                                
            ,#'     '#,  ##    ##  ,#'     '#,    #''#        ,####,   ,####,        
            ##       ##  ##   ,#'  ##            #'  '#       #'       #'  '#        
            ##       ##  #######   ##           ,######,      #####,   #    #        
            '#,     ,#'  ##    ##  '#,     ,#' ,#      #,     #,   #   #,  ,#        
             '#######'   ##     ##  '#######'  #'      '#     '####' # '####'        



                #########################################################
                #                        -***-                          #
                #          Department of theory and spectroscopy        #
                #                                                       #
                #                      Frank Neese                      #
                #                                                       #
                #     Directorship, Architecture, Infrastructure        #
                #                    SHARK, DRIVERS                     #
                #        Core code/Algorithms in most modules           #
                #                                                       #
                #        Max Planck Institute fuer Kohlenforschung      #
                #                Kaiser Wilhelm Platz 1                 #
                #                 D-45470 Muelheim/Ruhr                 #
                #                      Germany                          #
                #                                                       #
                #                  All rights reserved                  #
                #                        -***-                          #
                #########################################################


                         Program Version 6.0.0  -   RELEASE   -


 With contributions from (in alphabetic order):
   Daniel Aravena         : Magnetic Suceptibility
   Michael Atanasov       : Ab Initio Ligand Field Theory (pilot matlab implementation)
   Alexander A. Auer      : GIAO ZORA, VPT2 properties, NMR spectrum
   Ute Becker             : All parallelization in ORCA, NUMFREQ, NUMCALC
   Giovanni Bistoni       : ED, misc. LED, open-shell LED, HFLD
   Martin Brehm           : Molecular dynamics
   Dmytro Bykov           : pre 5.0 version of the SCF Hessian
   Marcos Casanova-Páez   : Triplet and SCS-CIS(D). UHF-(DLPNO)-IP/EA/STEOM-CCSD. UHF-CVS-IP/STEOM-CCSD
   Vijay G. Chilkuri      : MRCI spin determinant printing, contributions to CSF-ICE
   Pauline Colinet        : FMM embedding
   Dipayan Datta          : RHF DLPNO-CCSD density
   Achintya Kumar Dutta   : EOM-CC, STEOM-CC
   Nicolas Foglia         : Exact transition moments, OPA infrastructure, MCD improvements
   Dmitry Ganyushin       : Spin-Orbit,Spin-Spin,Magnetic field MRCI
   Miquel Garcia          : C-PCM and meta-GGA Hessian, CCSD/C-PCM, Gaussian charge scheme
   Tiago L. C. Gouveia    : GS-ROHF, GS-ROCIS
   Yang Guo               : DLPNO-NEVPT2, F12-NEVPT2, CIM, IAO-localization
   Andreas Hansen         : Spin unrestricted coupled pair/coupled cluster methods
   Ingolf Harden          : AUTO-CI MPn and infrastructure 
   Benjamin Helmich-Paris : MC-RPA, TRAH-(SCF,CASSCF), AVAS, COSX integrals, SCF dyn. polar.
   Lee Huntington         : MR-EOM, pCC
   Robert Izsak           : Overlap fitted RIJCOSX, COSX-SCS-MP3, EOM
   Riya Kayal             : Wick's Theorem for AUTO-CI, AUTO-CI UHF-CCSDT
   Emily Kempfer          : AUTO-CI, RHF CISDT and CCSDT
   Christian Kollmar      : KDIIS, OOCD, Brueckner-CCSD(T), CCSD density, CASPT2, CASPT2-K, improved NEVPT2
   Axel Koslowski         : Symmetry handling
   Simone Kossmann        : Meta GGA functionals, TD-DFT gradient, OOMP2, (MP2 Hessian; deprecated post 5.0)
   Lucas Lang             : DCDCAS
   Marvin Lechner         : AUTO-CI (C++ implementation), FIC-MRCC
   Spencer Leger          : CASSCF response
   Dagmar Lenk            : GEPOL surface, SMD, ORCA-2-JSON
   Dimitrios Liakos       : Extrapolation schemes; Compound Job, initial MDCI parallelization
   Dimitrios Manganas     : Further ROCIS development; embedding schemes. LFT, Crystal Embedding
   Dimitrios Pantazis     : SARC Basis sets
   Anastasios Papadopoulos: AUTO-CI, single reference methods and gradients
   Taras Petrenko         : pre 6.0 DFT Hessian and TD-DFT gradient, (ASA, deprecated), ECA, 1-Electron XAS/XES, NRVS
   Peter Pinski           : DLPNO-MP2, DLPNO-MP2 Gradient
   Christoph Reimann      : Effective Core Potentials
   Marius Retegan         : Local ZFS, SOC
   Christoph Riplinger    : Optimizer, TS searches, QM/MM, DLPNO-CCSD(T), (RO)-DLPNO pert. Triples
   Michael Roemelt        : Original ROCIS implementation
   Masaaki Saitow         : Open-shell DLPNO-CCSD energy and density
   Barbara Sandhoefer     : DKH picture change effects
   Kantharuban Sivalingam : CASSCF convergence/infrastructure, NEVPT2 and variants, FIC-MRCI
   Bernardo de Souza      : ESD, SOC TD-DFT
   Georgi Stoychev        : AutoAux, RI-MP2 NMR, DLPNO-MP2 response, X2C
   Van Anh Tran           : RI-MP2 g-tensors
   Willem Van den Heuvel  : Paramagnetic NMR
   Zikuan Wang            : NOTCH, Electric field optimization 
   Frank Wennmohs         : Technical directorship and infrastructure
   Hang Xu                : AUTO-CI-Response properties 


 We gratefully acknowledge several colleagues who have allowed us to
 interface, adapt or use parts of their codes:
   Stefan Grimme, W. Hujo, H. Kruse, P. Pracht,  : VdW corrections, initial TS optimization,
                  C. Bannwarth, S. Ehlert,         DFT functionals, gCP, sTDA/sTD-DF
                  L. Wittmann, M. Mueller
   Ed Valeev, F. Pavosevic, A. Kumar             : LibInt (2-el integral package), F12 methods
   Garnet Chan, S. Sharma, J. Yang, R. Olivares  : DMRG
   Ulf Ekstrom                                   : XCFun DFT Library
   Mihaly Kallay                                 : mrcc  (arbitrary order and MRCC methods)
   Frank Weinhold                                : gennbo (NPA and NBO analysis)
   Simon Mueller                                 : openCOSMO-RS
   Christopher J. Cramer and Donald G. Truhlar   : smd solvation model
   Lars Goerigk                                  : TD-DFT with DH, B97 family of functionals
   V. Asgeirsson, H. Jonsson                     : NEB implementation
   FAccTs GmbH                                   : IRC, NEB, NEB-TS, DLPNO-Multilevel, CI-OPT
                                                   MM, QMMM, 2- and 3-layer-ONIOM, Crystal-QMMM,
                                                   LR-CPCM, SF, NACMEs, symmetry and pop. for TD-DFT,
                                                   nearIR, NL-DFT gradient (VV10), updates on ESD,
                                                   ML-optimized integration grids, MBIS, APM,
                                                   GOAT, DOCKER, SOLVATOR, interface openCOSMO-RS
   S Lehtola, MJT Oliveira, MAL Marques          : LibXC Library
   Liviu Ungur et al                             : ANISO software


 Your calculation uses the libint2 library for the computation of 2-el integrals
 For citations please refer to: http://libint.valeyev.net

 Your ORCA version has been built with support for libXC version: 6.2.2
 For citations please refer to: https://libxc.gitlab.io

 This ORCA versions uses:
   CBLAS   interface :  Fast vector & matrix operations
   LAPACKE interface :  Fast linear algebra routines
   Shared memory     :  Shared parallel matrices


Your calculation utilizes the atom-pairwise dispersion correction
with the Becke-Johnson damping scheme (D3BJ)


Warning: RI is on but no J-basis has been assigned. Assigning Def2/J (nothing to worry about!)
================================================================================

----- Orbital basis set information -----
Your calculation utilizes the basis: def2-SVP
   F. Weigend and R. Ahlrichs, Phys. Chem. Chem. Phys. 7, 3297 (2005).

----- AuxJ basis set information -----
Your calculation utilizes the auxiliary basis: def2/J
   F. Weigend, Phys. Chem. Chem. Phys. 8, 1057 (2006).

================================================================================
                                        WARNINGS
                       Please study these warnings very carefully!
================================================================================


WARNING: Geometry Optimization
  ===> : Switching off AutoStart
         For restart on a previous wavefunction, please use MOREAD

================================================================================
                                       INPUT FILE
================================================================================
NAME = data/geom_opt_PO_BP86/11437688/11437688.inp
|  1> ! RI BP86 def2-SVP D3BJ TIGHTSCF Opt
|  2> %pal
|  3> nprocs 6
|  4> end
|  5> 
|  6> * xyz 0 1
|  7> C      5.450703   -1.106103    1.825917
|  8> C      4.914783   -1.390827    0.631962
|  9> C      3.526433   -1.102619    0.248049
| 10> C      3.243500   -0.803808   -1.089377
| 11> C      1.931959   -0.551049   -1.501181
| 12> C      0.870078   -0.600460   -0.586981
| 13> C      1.151000   -0.919570    0.747530
| 14> C      2.464878   -1.171998    1.158110
| 15> P     -0.797860   -0.244856   -1.175824
| 16> O     -1.002964   -0.794002   -2.578575
| 17> C     -1.968918   -0.982112   -0.018858
| 18> C     -2.532156   -0.265919    1.047414
| 19> C     -3.422912   -0.886385    1.925788
| 20> C     -3.761139   -2.226582    1.748584
| 21> C     -3.212402   -2.949012    0.691706
| 22> C     -2.322730   -2.330396   -0.186716
| 23> C     -1.031123    1.543601   -1.145014
| 24> C     -2.020421    2.107546   -1.966232
| 25> C     -2.247893    3.483804   -1.966419
| 26> C     -1.487628    4.314167   -1.146336
| 27> C     -0.499305    3.769712   -0.328581
| 28> C     -0.270745    2.392139   -0.327062
| 29> H      4.890609   -0.622371    2.618962
| 30> H      6.490469   -1.343402    2.029551
| 31> H      5.537655   -1.851601   -0.131855
| 32> H      4.042609   -0.758908   -1.826354
| 33> H      1.732477   -0.319325   -2.546825
| 34> H      0.354697   -0.983766    1.484771
| 35> H      2.644796   -1.438060    2.197118
| 36> H     -2.287424    0.781243    1.205910
| 37> H     -3.857159   -0.322115    2.747545
| 38> H     -4.457248   -2.707099    2.431346
| 39> H     -3.479763   -3.992819    0.547586
| 40> H     -1.902521   -2.898312   -1.015943
| 41> H     -2.612958    1.463788   -2.615228
| 42> H     -3.015100    3.906919   -2.609954
| 43> H     -1.661949    5.387121   -1.148721
| 44> H      0.097573    4.420054    0.306296
| 45> H      0.508097    1.993380    0.317890
| 46> **                         ****END OF INPUT****
================================================================================

                       *****************************
                       * Geometry Optimization Run *
                       *****************************

Geometry optimization settings:
Update method            Update   .... BFGS
Choice of coordinates    CoordSys .... (2022) Redundant Internals
Initial Hessian          InHess   .... Almloef's Model
Max. no of cycles        MaxIter  .... 117

Convergence Tolerances:
Energy Change            TolE     ....  5.0000e-06 Eh
Max. Gradient            TolMAXG  ....  3.0000e-04 Eh/bohr
RMS Gradient             TolRMSG  ....  1.0000e-04 Eh/bohr
Max. Displacement        TolMAXD  ....  4.0000e-03 bohr
RMS Displacement         TolRMSD  ....  2.0000e-03 bohr
Strict Convergence                .... False

------------------------------------------------------------------------------
                        ORCA OPTIMIZATION COORDINATE SETUP
------------------------------------------------------------------------------

The optimization will be done in redundant internal coordinates (2022)
Making redundant internal coordinates   ...  (2022 redundants) done
Evaluating the initial hessian          ...  (Almloef) done
Evaluating the coordinates              ...  done
Calculating the B-matrix                .... done
Calculating the G-matrix                .... done
Diagonalizing the G-matrix              .... done
Small eigenvalue found = 3.666e-03
Small eigenvalue found = 4.857e-03
Small eigenvalue found = 7.347e-03
Small eigenvalue found = 2.013e-02
Small eigenvalue found = 2.399e-02
The first mode is                       ....   91
The number of degrees of freedom        ....  111

    -----------------------------------------------------------------
                    Redundant Internal Coordinates


    -----------------------------------------------------------------
         Definition                    Initial Value    Approx d2E/dq
    -----------------------------------------------------------------
      1. B(C   1,C   0)                  1.3393         0.752624   
      2. B(C   2,C   1)                  1.4690         0.467407   
      3. B(C   3,C   2)                  1.3993         0.603805   
      4. B(C   4,C   3)                  1.3977         0.607335   
      5. B(C   5,C   4)                  1.4021         0.597702   
      6. B(C   6,C   5)                  1.4006         0.600944   
      7. B(C   7,C   2)                  1.4000         0.602321   
      8. B(C   7,C   6)                  1.3995         0.603390   
      9. B(P   8,C   5)                  1.8042         0.458534   
     10. B(O   9,P   8)                  1.5203         1.165386   
     11. B(C  10,P   8)                  1.8037         0.459335   
     12. B(C  11,C  10)                  1.4025         0.596677   
     13. B(C  12,C  11)                  1.3964         0.610252   
     14. B(C  13,C  12)                  1.3935         0.616746   
     15. B(C  14,C  13)                  1.3928         0.618307   
     16. B(C  15,C  14)                  1.3949         0.613585   
     17. B(C  15,C  10)                  1.4040         0.593465   
     18. B(C  16,P   8)                  1.8039         0.459127   
     19. B(C  17,C  16)                  1.4040         0.593531   
     20. B(C  18,C  17)                  1.3949         0.613583   
     21. B(C  19,C  18)                  1.3929         0.618280   
     22. B(C  20,C  19)                  1.3935         0.616738   
     23. B(C  21,C  20)                  1.3964         0.610265   
     24. B(C  21,C  16)                  1.4026         0.596574   
     25. B(H  22,C   0)                  1.0847         0.367150   
     26. B(H  23,C   0)                  1.0858         0.365743   
     27. B(H  24,C   1)                  1.0880         0.362783   
     28. B(H  25,C   3)                  1.0880         0.362766   
     29. B(H  26,C   4)                  1.0894         0.360853   
     30. B(H  27,C   6)                  1.0871         0.363983   
     31. B(H  28,C   7)                  1.0875         0.363397   
     32. B(H  29,C  11)                  1.0870         0.364094   
     33. B(H  30,C  12)                  1.0873         0.363668   
     34. B(H  31,C  13)                  1.0870         0.364054   
     35. B(H  32,C  14)                  1.0871         0.363957   
     36. B(H  33,C  15)                  1.0894         0.360938   
     37. B(H  34,C  17)                  1.0894         0.360938   
     38. B(H  35,C  18)                  1.0871         0.363967   
     39. B(H  36,C  19)                  1.0870         0.364057   
     40. B(H  37,C  20)                  1.0873         0.363655   
     41. B(H  38,C  21)                  1.0870         0.364092   
     42. A(H  22,C   0,H  23)          117.0532         0.292442   
     43. A(C   1,C   0,H  22)          122.6795         0.365958   
     44. A(C   1,C   0,H  23)          120.2595         0.365718   
     45. A(C   2,C   1,H  24)          116.1477         0.336978   
     46. A(C   0,C   1,H  24)          119.1305         0.365209   
     47. A(C   0,C   1,C   2)          124.7111         0.427210   
     48. A(C   3,C   2,C   7)          118.5924         0.429766   
     49. A(C   1,C   2,C   7)          122.4815         0.410579   
     50. A(C   1,C   2,C   3)          118.8669         0.410758   
     51. A(C   2,C   3,C   4)          120.6601         0.430407   
     52. A(C   4,C   3,H  25)          118.8267         0.352118   
     53. A(C   2,C   3,H  25)          120.5124         0.351771   
     54. A(C   3,C   4,C   5)          120.8100         0.429622   
     55. A(C   3,C   4,H  26)          119.5423         0.351803   
     56. A(C   5,C   4,H  26)          119.6465         0.350854   
     57. A(C   4,C   5,C   6)          118.5153         0.428808   
     58. A(C   6,C   5,P   8)          122.7722         0.436211   
     59. A(C   4,C   5,P   8)          118.7121         0.435786   
     60. A(C   7,C   6,H  27)          118.5606         0.351929   
     61. A(C   5,C   6,H  27)          120.8450         0.351688   
     62. A(C   5,C   6,C   7)          120.5929         0.429537   
     63. A(C   2,C   7,H  28)          120.5132         0.351728   
     64. A(C   2,C   7,C   6)          120.8126         0.429713   
     65. A(C   6,C   7,H  28)          118.6683         0.351834   
     66. A(O   9,P   8,C  10)          110.8915         0.523843   
     67. A(C   5,P   8,C  10)          108.0770         0.443482   
     68. A(C  10,P   8,C  16)          108.0794         0.443585   
     69. A(C   5,P   8,O   9)          110.7726         0.523672   
     70. A(C   5,P   8,C  16)          108.0220         0.443445   
     71. A(O   9,P   8,C  16)          110.8814         0.523799   
     72. A(P   8,C  10,C  11)          122.6596         0.435789   
     73. A(C  11,C  10,C  15)          118.6898         0.427714   
     74. A(P   8,C  10,C  15)          118.6487         0.435365   
     75. A(C  12,C  11,H  29)          118.6818         0.352621   
     76. A(C  10,C  11,H  29)          120.8215         0.351283   
     77. A(C  10,C  11,C  12)          120.4965         0.429859   
     78. A(C  13,C  12,H  30)          119.8854         0.353184   
     79. A(C  11,C  12,H  30)          119.9711         0.352552   
     80. A(C  11,C  12,C  13)          120.1430         0.432421   
     81. A(C  14,C  13,H  31)          119.9742         0.353398   
     82. A(C  12,C  13,H  31)          120.0454         0.353247   
     83. A(C  12,C  13,C  14)          119.9796         0.433442   
     84. A(C  15,C  14,H  32)          119.9463         0.352924   
     85. A(C  13,C  14,H  32)          120.1139         0.353383   
     86. A(C  13,C  14,C  15)          119.9393         0.433042   
     87. A(C  14,C  15,H  33)          119.6151         0.352427   
     88. A(C  10,C  15,H  33)          119.6326         0.350447   
     89. A(C  10,C  15,C  14)          120.7512         0.429863   
     90. A(P   8,C  16,C  21)          122.6612         0.435739   
     91. A(P   8,C  16,C  17)          118.6446         0.435338   
     92. A(C  17,C  16,C  21)          118.6926         0.427710   
     93. A(C  18,C  17,H  34)          119.6208         0.352427   
     94. A(C  16,C  17,H  34)          119.6286         0.350453   
     95. A(C  16,C  17,C  18)          120.7495         0.429872   
     96. A(C  19,C  18,H  35)          120.1142         0.353381   
     97. A(C  17,C  18,H  35)          119.9453         0.352925   
     98. A(C  17,C  18,C  19)          119.9399         0.433038   
     99. A(C  20,C  19,H  36)          120.0440         0.353247   
    100. A(C  18,C  19,H  36)          119.9747         0.353396   
    101. A(C  18,C  19,C  20)          119.9804         0.433438   
    102. A(C  19,C  20,H  37)          119.8860         0.353181   
    103. A(C  19,C  20,C  21)          120.1426         0.432422   
    104. A(C  21,C  20,H  37)          119.9709         0.352551   
    105. A(C  20,C  21,H  38)          118.6735         0.352622   
    106. A(C  16,C  21,C  20)          120.4945         0.429848   
    107. A(C  16,C  21,H  38)          120.8319         0.351272   
    108. D(H  24,C   1,C   0,H  22)    178.2764         0.040424   
    109. D(H  24,C   1,C   0,H  23)     -0.6775         0.040424   
    110. D(C   2,C   1,C   0,H  23)   -179.4345         0.040424   
    111. D(C   2,C   1,C   0,H  22)     -0.4806         0.040424   
    112. D(C   3,C   2,C   1,C   0)    148.3219         0.014877   
    113. D(C   7,C   2,C   1,C   0)    -34.5188         0.014877   
    114. D(C   3,C   2,C   1,H  24)    -30.4686         0.014877   
    115. D(C   7,C   2,C   1,H  24)    146.6907         0.014877   
    116. D(C   4,C   3,C   2,C   1)    178.6638         0.025151   
    117. D(H  25,C   3,C   2,C   7)   -178.9419         0.025151   
    118. D(H  25,C   3,C   2,C   1)     -1.6710         0.025151   
    119. D(C   4,C   3,C   2,C   7)      1.3928         0.025151   
    120. D(C   5,C   4,C   3,H  25)    179.8678         0.025462   
    121. D(C   5,C   4,C   3,C   2)     -0.4614         0.025462   
    122. D(H  26,C   4,C   3,C   2)    179.9438         0.025462   
    123. D(H  26,C   4,C   3,H  25)      0.2729         0.025462   
    124. D(P   8,C   5,C   4,H  26)     -1.1412         0.024618   
    125. D(P   8,C   5,C   4,C   3)    179.2644         0.024618   
    126. D(C   6,C   5,C   4,H  26)    179.0884         0.024618   
    127. D(C   6,C   5,C   4,C   3)     -0.5061         0.024618   
    128. D(H  27,C   6,C   5,P   8)      1.2073         0.024900   
    129. D(H  27,C   6,C   5,C   4)   -179.0321         0.024900   
    130. D(C   7,C   6,C   5,C   4)      0.5222         0.024900   
    131. D(C   7,C   6,C   5,P   8)   -179.2384         0.024900   
    132. D(C   2,C   7,C   6,H  27)    179.9919         0.025114   
    133. D(C   2,C   7,C   6,C   5)      0.4275         0.025114   
    134. D(H  28,C   7,C   2,C   3)    177.7224         0.025020   
    135. D(H  28,C   7,C   2,C   1)      0.5557         0.025020   
    136. D(C   6,C   7,C   2,C   3)     -1.3777         0.025020   
    137. D(H  28,C   7,C   6,C   5)   -178.6889         0.025114   
    138. D(C   6,C   7,C   2,C   1)   -178.5444         0.025020   
    139. D(H  28,C   7,C   6,H  27)      0.8754         0.025114   
    140. D(C  16,P   8,C   5,C   4)    -84.8753         0.004371   
    141. D(C  10,P   8,C   5,C   6)    -21.8258         0.004371   
    142. D(C  10,P   8,C   5,C   4)    158.4140         0.004371   
    143. D(O   9,P   8,C   5,C   6)   -143.4945         0.004371   
    144. D(O   9,P   8,C   5,C   4)     36.7453         0.004371   
    145. D(C  15,C  10,P   8,O   9)     36.1365         0.004381   
    146. D(C  15,C  10,P   8,C   5)    -85.4587         0.004381   
    147. D(C  11,C  10,P   8,C  16)    -22.6378         0.004381   
    148. D(C  11,C  10,P   8,O   9)   -144.3691         0.004381   
    149. D(C  11,C  10,P   8,C   5)     94.0357         0.004381   
    150. D(H  29,C  11,C  10,C  15)   -179.6050         0.024529   
    151. D(H  29,C  11,C  10,P   8)      0.9007         0.024529   
    152. D(C  12,C  11,C  10,C  15)      0.2442         0.024529   
    153. D(C  12,C  11,C  10,P   8)   -179.2500         0.024529   
    154. D(H  30,C  12,C  11,H  29)      0.0623         0.025721   
    155. D(H  30,C  12,C  11,C  10)   -179.7902         0.025721   
    156. D(C  13,C  12,C  11,H  29)    179.8059         0.025721   
    157. D(C  13,C  12,C  11,C  10)     -0.0466         0.025721   
    158. D(H  31,C  13,C  12,H  30)     -0.0536         0.026304   
    159. D(H  31,C  13,C  12,C  11)   -179.7975         0.026304   
    160. D(C  14,C  13,C  12,H  30)    179.6046         0.026304   
    161. D(C  14,C  13,C  12,C  11)     -0.1392         0.026304   
    162. D(H  32,C  14,C  13,H  31)      0.0590         0.026446   
    163. D(H  32,C  14,C  13,C  12)   -179.5995         0.026446   
    164. D(C  15,C  14,C  13,H  31)    179.7806         0.026446   
    165. D(C  15,C  14,C  13,C  12)      0.1221         0.026446   
    166. D(C  10,C  15,C  14,C  13)      0.0808         0.026019   
    167. D(H  33,C  15,C  10,C  11)    179.3587         0.024252   
    168. D(H  33,C  15,C  10,P   8)     -1.1265         0.024252   
    169. D(C  14,C  15,C  10,C  11)     -0.2618         0.024252   
    170. D(C  14,C  15,C  10,P   8)    179.2530         0.024252   
    171. D(H  33,C  15,C  14,H  32)      0.1823         0.026019   
    172. D(H  33,C  15,C  14,C  13)   -179.5398         0.026019   
    173. D(C  10,C  15,C  14,H  32)    179.8029         0.026019   
    174. D(C  21,C  16,P   8,O   9)   -144.1276         0.004378   
    175. D(C  21,C  16,P   8,C   5)    -22.5743         0.004378   
    176. D(C  17,C  16,P   8,C  10)    -85.4019         0.004378   
    177. D(C  17,C  16,P   8,O   9)     36.3356         0.004378   
    178. D(C  17,C  16,P   8,C   5)    157.8890         0.004378   
    179. D(H  34,C  17,C  16,C  21)    179.3718         0.024258   
    180. D(H  34,C  17,C  16,P   8)     -1.0728         0.024258   
    181. D(C  18,C  17,C  16,C  21)     -0.2468         0.024258   
    182. D(C  18,C  17,C  16,P   8)    179.3086         0.024258   
    183. D(H  35,C  18,C  17,H  34)      0.1798         0.026019   
    184. D(H  35,C  18,C  17,C  16)    179.7985         0.026019   
    185. D(C  19,C  18,C  17,H  34)   -179.5405         0.026019   
    186. D(C  19,C  18,C  17,C  16)      0.0782         0.026019   
    187. D(H  36,C  19,C  18,H  35)      0.0571         0.026443   
    188. D(H  36,C  19,C  18,C  17)    179.7768         0.026443   
    189. D(C  20,C  19,C  18,H  35)   -179.6060         0.026443   
    190. D(C  20,C  19,C  18,C  17)      0.1138         0.026443   
    191. D(H  37,C  20,C  19,H  36)     -0.0521         0.026303   
    192. D(H  37,C  20,C  19,C  18)    179.6107         0.026303   
    193. D(C  21,C  20,C  19,H  36)   -179.7956         0.026303   
    194. D(C  21,C  20,C  19,C  18)     -0.1328         0.026303   
    195. D(H  38,C  21,C  20,C  19)    179.8227         0.025722   
    196. D(C  16,C  21,C  20,H  37)   -179.7835         0.025722   
    197. D(C  16,C  21,C  20,C  19)     -0.0402         0.025722   
    198. D(H  38,C  21,C  16,C  17)   -179.6325         0.024520   
    199. D(H  38,C  21,C  16,P   8)      0.8309         0.024520   
    200. D(C  20,C  21,C  16,C  17)      0.2274         0.024520   
    201. D(H  38,C  21,C  20,H  37)      0.0794         0.025722   
    202. D(C  20,C  21,C  16,P   8)   -179.3092         0.024520   
    -----------------------------------------------------------------

Number of atoms                         .... 39
Number of degrees of freedom            .... 202


         *************************************************************
         *                GEOMETRY OPTIMIZATION CYCLE   1            *
         *************************************************************
---------------------------------
CARTESIAN COORDINATES (ANGSTROEM)
---------------------------------
  C      5.450703   -1.106103    1.825917
  C      4.914783   -1.390827    0.631962
  C      3.526433   -1.102619    0.248049
  C      3.243500   -0.803808   -1.089377
  C      1.931959   -0.551049   -1.501181
  C      0.870078   -0.600460   -0.586981
  C      1.151000   -0.919570    0.747530
  C      2.464878   -1.171998    1.158110
  P     -0.797860   -0.244856   -1.175824
  O     -1.002964   -0.794002   -2.578575
  C     -1.968918   -0.982112   -0.018858
  C     -2.532156   -0.265919    1.047414
  C     -3.422912   -0.886385    1.925788
  C     -3.761139   -2.226582    1.748584
  C     -3.212402   -2.949012    0.691706
  C     -2.322730   -2.330396   -0.186716
  C     -1.031123    1.543601   -1.145014
  C     -2.020421    2.107546   -1.966232
  C     -2.247893    3.483804   -1.966419
  C     -1.487628    4.314167   -1.146336
  C     -0.499305    3.769712   -0.328581
  C     -0.270745    2.392139   -0.327062
  H      4.890609   -0.622371    2.618962
  H      6.490469   -1.343402    2.029551
  H      5.537655   -1.851601   -0.131855
  H      4.042609   -0.758908   -1.826354
  H      1.732477   -0.319325   -2.546825
  H      0.354697   -0.983766    1.484771
  H      2.644796   -1.438060    2.197118
  H     -2.287424    0.781243    1.205910
  H     -3.857159   -0.322115    2.747545
  H     -4.457248   -2.707099    2.431346
  H     -3.479763   -3.992819    0.547586
  H     -1.902521   -2.898312   -1.015943
  H     -2.612958    1.463788   -2.615228
  H     -3.015100    3.906919   -2.609954
  H     -1.661949    5.387121   -1.148721
  H      0.097573    4.420054    0.306296
  H      0.508097    1.993380    0.317890

----------------------------
CARTESIAN COORDINATES (A.U.)
----------------------------
  NO LB      ZA    FRAG     MASS         X           Y           Z
   0 C     6.0000    0    12.011   10.300336   -2.090232    3.450483
   1 C     6.0000    0    12.011    9.287594   -2.628282    1.194235
   2 C     6.0000    0    12.011    6.663993   -2.083648    0.468745
   3 C     6.0000    0    12.011    6.129327   -1.518977   -2.058624
   4 C     6.0000    0    12.011    3.650873   -1.041332   -2.836821
   5 C     6.0000    0    12.011    1.644209   -1.134705   -1.109233
   6 C     6.0000    0    12.011    2.175075   -1.737735    1.412627
   7 C     6.0000    0    12.011    4.657944   -2.214755    2.188511
   8 P    15.0000    0    30.974   -1.507737   -0.462711   -2.221985
   9 O     8.0000    0    15.999   -1.895327   -1.500446   -4.872801
  10 C     6.0000    0    12.011   -3.720716   -1.855923   -0.035636
  11 C     6.0000    0    12.011   -4.785081   -0.502514    1.979326
  12 C     6.0000    0    12.011   -6.468366   -1.675025    3.639212
  13 C     6.0000    0    12.011   -7.107523   -4.207630    3.304345
  14 C     6.0000    0    12.011   -6.070560   -5.572825    1.307135
  15 C     6.0000    0    12.011   -4.389324   -4.403810   -0.352842
  16 C     6.0000    0    12.011   -1.948540    2.916983   -2.163763
  17 C     6.0000    0    12.011   -3.818042    3.982685   -3.715640
  18 C     6.0000    0    12.011   -4.247902    6.583435   -3.715993
  19 C     6.0000    0    12.011   -2.811210    8.152594   -2.166261
  20 C     6.0000    0    12.011   -0.943550    7.123723   -0.620928
  21 C     6.0000    0    12.011   -0.511634    4.520488   -0.618058
  22 H     1.0000    0     1.008    9.241912   -1.176111    4.949121
  23 H     1.0000    0     1.008   12.265209   -2.538662    3.835296
  24 H     1.0000    0     1.008   10.464651   -3.499019   -0.249170
  25 H     1.0000    0     1.008    7.639424   -1.434128   -3.451309
  26 H     1.0000    0     1.008    3.273907   -0.603437   -4.812802
  27 H     1.0000    0     1.008    0.670280   -1.859048    2.805811
  28 H     1.0000    0     1.008    4.997940   -2.717540    4.151951
  29 H     1.0000    0     1.008   -4.322605    1.476335    2.278840
  30 H     1.0000    0     1.008   -7.288974   -0.608709    5.192108
  31 H     1.0000    0     1.008   -8.422978   -5.115676    4.594578
  32 H     1.0000    0     1.008   -6.575799   -7.545334    1.034788
  33 H     1.0000    0     1.008   -3.595244   -5.477016   -1.919854
  34 H     1.0000    0     1.008   -4.937775    2.766158   -4.942065
  35 H     1.0000    0     1.008   -5.697713    7.383007   -4.932098
  36 H     1.0000    0     1.008   -3.140628   10.180183   -2.170768
  37 H     1.0000    0     1.008    0.184386    8.352692    0.578816
  38 H     1.0000    0     1.008    0.960164    3.766942    0.600725

--------------------------------
INTERNAL COORDINATES (ANGSTROEM)
--------------------------------
 C      0   0   0     0.000000000000     0.00000000     0.00000000
 C      1   0   0     1.339330633041     0.00000000     0.00000000
 C      2   1   0     1.469002643065   124.71110284     0.00000000
 C      3   2   1     1.399302469692   118.86688862   148.32185859
 C      4   3   2     1.397715794136   120.66011498   178.66375322
 C      5   4   3     1.402067881767   120.80999588   359.53863207
 C      6   5   4     1.400595577355   118.51529844   359.49390079
 C      7   6   5     1.399489632140   120.59291335     0.52223830
 P      6   5   4     1.804219347892   118.71211243   179.26438981
 O      9   6   5     1.520308964695   110.77261487    36.74530169
 C      9   6   5     1.803744320589   108.07702737   158.41399965
 C     11   9   6     1.402535359938   122.65961325    94.03568236
 C     12  11   9     1.396411541261   120.49652103   180.74998090
 C     13  12  11     1.393530322581   120.14296910   359.95344883
 C     14  13  12     1.392841881533   119.97955608   359.86081296
 C     15  14  13     1.394929114014   119.93927820     0.12206376
 C      9   6   5     1.803867878787   108.02202841   275.12465320
 C     17   9   6     1.403974180444   118.64456074   157.88897597
 C     18  17   9     1.394929972550   120.74949796   179.30859388
 C     19  18  17     1.392853800254   119.93990429     0.07822405
 C     20  19  18     1.393533939084   119.98038749     0.11379840
 C     21  20  19     1.396405869112   120.14256735   359.86723284
 H      1   2   3     1.084722226510   122.67949934   359.51938808
 H      1   2   3     1.085767450292   120.25946833   180.56545054
 H      2   1   3     1.087979143619   119.13045498   178.75702622
 H      4   3   2     1.087991866886   120.51236293   358.32904741
 H      5   4   3     1.089431253102   119.54231829   179.94375949
 H      7   6   5     1.087080441507   120.84499328   180.96788526
 H      8   7   6     1.087518780818   118.66830283   181.31106729
 H     12  11   9     1.086997234626   120.82151030     0.90073025
 H     13  12  11     1.087315803692   119.97114044   180.20984158
 H     14  13  12     1.087027265442   120.04540708   180.20254867
 H     15  14  13     1.087099596159   120.11388594   180.40047889
 H     16  15  14     1.089367524881   119.61509789   180.46019648
 H     18  17   9     1.089366911077   119.62856151   358.92724894
 H     19  18  17     1.087092535297   119.94525553   179.79845820
 H     20  19  18     1.087025199976   119.97473172   179.77683789
 H     21  20  19     1.087325557953   119.88600025   179.61066666
 H     22  21  20     1.086998934383   118.67350247   179.82266072

---------------------------
INTERNAL COORDINATES (A.U.)
---------------------------
 C      0   0   0     0.000000000000     0.00000000     0.00000000
 C      1   0   0     2.530968099218     0.00000000     0.00000000
 C      2   1   0     2.776012685400   124.71110284     0.00000000
 C      3   2   1     2.644298446237   118.86688862   148.32185859
 C      4   3   2     2.641300063974   120.66011498   178.66375322
 C      5   4   3     2.649524317706   120.80999588   359.53863207
 C      6   5   4     2.646742065581   118.51529844   359.49390079
 C      7   6   5     2.644652132007   120.59291335     0.52223830
 P      6   5   4     3.409480453038   118.71211243   179.26438981
 O      9   6   5     2.872967582220   110.77261487    36.74530169
 C      9   6   5     3.408582781529   108.07702737   158.41399965
 C     11   9   6     2.650407723424   122.65961325    94.03568236
 C     12  11   9     2.638835383231   120.49652103   180.74998090
 C     13  12  11     2.633390668994   120.14296910   359.95344883
 C     14  13  12     2.632089703953   119.97955608   359.86081296
 C     15  14  13     2.636034001720   119.93927820     0.12206376
 C      9   6   5     3.408816272684   108.02202841   275.12465320
 C     17   9   6     2.653126700135   118.64456074   157.88897597
 C     18  17   9     2.636035624117   120.74949796   179.30859388
 C     19  18  17     2.632112227072   119.93990429     0.07822405
 C     20  19  18     2.633397503193   119.98038749     0.11379840
 C     21  20  19     2.638824664422   120.14256735   359.86723284
 H      1   2   3     2.049827939481   122.67949934   359.51938808
 H      1   2   3     2.051803126177   120.25946833   180.56545054
 H      2   1   3     2.055982620857   119.13045498   178.75702622
 H      4   3   2     2.056006664348   120.51236293   358.32904741
 H      5   4   3     2.058726710098   119.54231829   179.94375949
 H      7   6   5     2.054284319990   120.84499328   180.96788526
 H      8   7   6     2.055112661242   118.66830283   181.31106729
 H     12  11   9     2.054127081772   120.82151030     0.90073025
 H     13  12  11     2.054729090062   119.97114044   180.20984158
 H     14  13  12     2.054183831790   120.04540708   180.20254867
 H     15  14  13     2.054320517038   120.11388594   180.40047889
 H     16  15  14     2.058606281213   119.61509789   180.46019648
 H     18  17   9     2.058605121291   119.62856151   358.92724894
 H     19  18  17     2.054307173942   119.94525553   179.79845820
 H     20  19  18     2.054179928625   119.97473172   179.77683789
 H     21  20  19     2.054747522944   119.88600025   179.61066666
 H     22  21  20     2.054130293847   118.67350247   179.82266072

---------------------
BASIS SET INFORMATION
---------------------
There are 4 groups of distinct atoms

 Group   1 Type C   : 7s4p1d contracted to 3s2p1d pattern {511/31/1}
 Group   2 Type P   : 10s7p1d contracted to 4s3p1d pattern {5311/511/1}
 Group   3 Type O   : 7s4p1d contracted to 3s2p1d pattern {511/31/1}
 Group   4 Type H   : 4s1p contracted to 2s1p pattern {31/1}

Atom   0C    basis set group =>   1
Atom   1C    basis set group =>   1
Atom   2C    basis set group =>   1
Atom   3C    basis set group =>   1
Atom   4C    basis set group =>   1
Atom   5C    basis set group =>   1
Atom   6C    basis set group =>   1
Atom   7C    basis set group =>   1
Atom   8P    basis set group =>   2
Atom   9O    basis set group =>   3
Atom  10C    basis set group =>   1
Atom  11C    basis set group =>   1
Atom  12C    basis set group =>   1
Atom  13C    basis set group =>   1
Atom  14C    basis set group =>   1
Atom  15C    basis set group =>   1
Atom  16C    basis set group =>   1
Atom  17C    basis set group =>   1
Atom  18C    basis set group =>   1
Atom  19C    basis set group =>   1
Atom  20C    basis set group =>   1
Atom  21C    basis set group =>   1
Atom  22H    basis set group =>   4
Atom  23H    basis set group =>   4
Atom  24H    basis set group =>   4
Atom  25H    basis set group =>   4
Atom  26H    basis set group =>   4
Atom  27H    basis set group =>   4
Atom  28H    basis set group =>   4
Atom  29H    basis set group =>   4
Atom  30H    basis set group =>   4
Atom  31H    basis set group =>   4
Atom  32H    basis set group =>   4
Atom  33H    basis set group =>   4
Atom  34H    basis set group =>   4
Atom  35H    basis set group =>   4
Atom  36H    basis set group =>   4
Atom  37H    basis set group =>   4
Atom  38H    basis set group =>   4
---------------------------------
AUXILIARY/J BASIS SET INFORMATION
---------------------------------
There are 4 groups of distinct atoms

 Group   1 Type C   : 12s5p4d2f1g contracted to 6s4p3d1f1g pattern {711111/2111/211/2/1}
 Group   2 Type P   : 14s5p5d2f1g contracted to 8s4p3d1f1g pattern {71111111/2111/311/2/1}
 Group   3 Type O   : 12s5p4d2f1g contracted to 6s4p3d1f1g pattern {711111/2111/211/2/1}
 Group   4 Type H   : 5s2p1d contracted to 3s1p1d pattern {311/2/1}

Atom   0C    basis set group =>   1
Atom   1C    basis set group =>   1
Atom   2C    basis set group =>   1
Atom   3C    basis set group =>   1
Atom   4C    basis set group =>   1
Atom   5C    basis set group =>   1
Atom   6C    basis set group =>   1
Atom   7C    basis set group =>   1
Atom   8P    basis set group =>   2
Atom   9O    basis set group =>   3
Atom  10C    basis set group =>   1
Atom  11C    basis set group =>   1
Atom  12C    basis set group =>   1
Atom  13C    basis set group =>   1
Atom  14C    basis set group =>   1
Atom  15C    basis set group =>   1
Atom  16C    basis set group =>   1
Atom  17C    basis set group =>   1
Atom  18C    basis set group =>   1
Atom  19C    basis set group =>   1
Atom  20C    basis set group =>   1
Atom  21C    basis set group =>   1
Atom  22H    basis set group =>   4
Atom  23H    basis set group =>   4
Atom  24H    basis set group =>   4
Atom  25H    basis set group =>   4
Atom  26H    basis set group =>   4
Atom  27H    basis set group =>   4
Atom  28H    basis set group =>   4
Atom  29H    basis set group =>   4
Atom  30H    basis set group =>   4
Atom  31H    basis set group =>   4
Atom  32H    basis set group =>   4
Atom  33H    basis set group =>   4
Atom  34H    basis set group =>   4
Atom  35H    basis set group =>   4
Atom  36H    basis set group =>   4
Atom  37H    basis set group =>   4
Atom  38H    basis set group =>   4


           ************************************************************
           *        Program running with 6 parallel MPI-processes     *
           *              working on a common directory               *
           ************************************************************
------------------------------------------------------------------------------
                             ORCA STARTUP CALCULATIONS
                           -- RI-GTO INTEGRALS CHOSEN --
------------------------------------------------------------------------------
------------------------------------------------------------------------------
                   ___                                                        
                  /   \      - P O W E R E D   B Y -                         
                 /     \                                                     
                 |  |  |   _    _      __       _____    __    __             
                 |  |  |  | |  | |    /  \     |  _  \  |  |  /  |          
                  \  \/   | |  | |   /    \    | | | |  |  | /  /          
                 / \  \   | |__| |  /  /\  \   | |_| |  |  |/  /          
                |  |  |   |  __  | /  /__\  \  |    /   |      \           
                |  |  |   | |  | | |   __   |  |    \   |  |\   \          
                \     /   | |  | | |  |  |  |  | |\  \  |  | \   \       
                 \___/    |_|  |_| |__|  |__|  |_| \__\ |__|  \__/        
                                                                              
                      - O R C A' S   B I G   F R I E N D -                    
                                      &                                       
                       - I N T E G R A L  F E E D E R -                       
                                                                              
 v1 FN, 2020, v2 2021, v3 2022-2024                                           
------------------------------------------------------------------------------


----------------------
SHARK INTEGRAL PACKAGE
----------------------

Number of atoms                             ...     39
Number of basis functions                   ...    397
Number of shells                            ...    185
Maximum angular momentum                    ...      2
Integral batch strategy                     ... SHARK/LIBINT Hybrid
RI-J (if used) integral strategy            ... SPLIT-RIJ (Revised 2003 algorithm where possible)
Printlevel                                  ...      1
Contraction scheme used                     ... SEGMENTED contraction
Prescreening option                         ... SCHWARTZ
   Thresh                                   ... 2.500e-11
   Tcut                                     ... 2.500e-12
   Tpresel                                  ... 2.500e-12 
Coulomb Range Separation                    ... NOT USED
Exchange Range Separation                   ... NOT USED
Multipole approximations                    ... NOT USED
Finite Nucleus Model                        ... NOT USED
CABS basis                                  ... NOT available
Auxiliary Coulomb fitting basis             ... AVAILABLE
   # of basis functions in Aux-J            ...   1267
   # of shells in Aux-J                     ...    417
   Maximum angular momentum in Aux-J        ...      4
Auxiliary J/K fitting basis                 ... NOT available
Auxiliary Correlation fitting basis         ... NOT available
Auxiliary 'external' fitting basis          ... NOT available

Checking pre-screening integrals            ... done (  0.0 sec) Dimension = 185
Check shell pair data                       ... done (  0.0 sec)
Shell pair information
Shell pair cut-off parameter TPreSel        ...   2.5e-12
Total number of shell pairs                 ...     17205
Shell pairs after pre-screening             ...     12542
Total number of primitive shell pairs       ...     63537
Primitive shell pairs kept                  ...     29378
          la=0 lb=0:   3841 shell pairs
          la=1 lb=0:   4681 shell pairs
          la=1 lb=1:   1466 shell pairs
          la=2 lb=0:   1486 shell pairs
          la=2 lb=1:    929 shell pairs
          la=2 lb=2:    139 shell pairs

Calculating one electron integrals          ... done (  0.0 sec)
Calculating RI/J V-Matrix + Cholesky decomp.... done (  0.1 sec)
Calculating Nuclear repulsion               ... done (  0.0 sec) ENN=   1786.844653610897 Eh

Diagonalization of the overlap matrix:
Smallest eigenvalue                        ... 2.646e-04
Time for diagonalization                   ...    0.021 sec
Threshold for overlap eigenvalues          ... 1.000e-07
Number of eigenvalues below threshold      ... 0
Time for construction of square roots      ...    0.011 sec
Total time needed                          ...    0.035 sec

-------------------
DFT GRID GENERATION
-------------------

General Integration Accuracy     IntAcc      ... 4.388
Radial Grid Type                 RadialGrid  ... OptM3 with GC (2021)
Angular Grid (max. ang.)         AngularGrid ... 4 (Lebedev-302)
Angular grid pruning method      GridPruning ... 4 (adaptive)
Weight generation scheme         WeightScheme... mBecke (2022)
Basis function cutoff            BFCut       ... 1.0000e-11
Integration weight cutoff        WCut        ... 1.0000e-14
Partially contracted basis set               ... off
Rotationally invariant grid construction     ... off
Angular grids for H and He will be reduced by one unit

Total number of grid points                  ...   186978
Total number of batches                      ...     2948
Average number of points per batch           ...       63
Average number of grid points per atom       ...     4794
Initializing property integral containers    ... done (  0.0 sec)

SHARK setup successfully completed in   1.4 seconds

Maximum memory used throughout the entire STARTUP-calculation: 51.5 MB


           ************************************************************
           *        Program running with 6 parallel MPI-processes     *
           *              working on a common directory               *
           ************************************************************
-------------------------------------------------------------------------------
                                 ORCA GUESS
                   Start orbitals & Density for SCF / CASSCF
-------------------------------------------------------------------------------

------------
SCF SETTINGS
------------
Hamiltonian:
 Density Functional     Method          .... DFT(GTOs)
 Exchange Functional    Exchange        .... B88
   X-Alpha parameter    XAlpha          ....  0.666667
   Becke's b parameter  XBeta           ....  0.004200
 Correlation Functional Correlation     .... P86
 LDA part of GGA corr.  LDAOpt          .... PW91-LDA
 Gradients option       PostSCFGGA      .... off
   NL short-range parameter             ....  4.400000
 RI-approximation to the Coulomb term is turned on
   Number of AuxJ basis functions       .... 1267


General Settings:
 Integral files         IntName         .... data/geom_opt_PO_BP86/11437688/11437688
 Hartree-Fock type      HFTyp           .... RHF
 Total Charge           Charge          ....    0
 Multiplicity           Mult            ....    1
 Number of Electrons    NEL             ....  160
 Basis Dimension        Dim             ....  397
 Nuclear Repulsion      ENuc            ....   1786.8446536109 Eh

Convergence Acceleration:
 AO-DIIS                CNVDIIS         .... on
   Start iteration      DIISMaxIt       ....    12
   Startup error        DIISStart       ....  0.200000
   # of expansion vecs  DIISMaxEq       ....     5
   Bias factor          DIISBfac        ....   1.050
   Max. coefficient     DIISMaxC        ....  10.000
 MO-DIIS                CNVKDIIS        .... off
 Trust-Rad. Augm. Hess. CNVTRAH         .... auto
   Auto Start mean grad. ratio tolernc. ....  1.125000
   Auto Start start iteration           ....    50
   Auto Start num. interpolation iter.  ....    10
   Max. Number of Micro iterations      ....    24
   Max. Number of Macro iterations      .... Maxiter - #DIIS iter
   Number of Davidson start vectors     ....     2
   Converg. threshold    (grad. norm)   ....   1.000e-05
   Grad. Scal. Fac. for Micro threshold ....   0.100
   Minimum threshold for Micro iter.    ....   1.000e-02
   NR start threshold (gradient norm)   ....   1.000e-04
   Initial trust radius                 ....   0.400
   Minimum AH scaling param. (alpha)    ....   1.000
   Maximum AH scaling param. (alpha)    .... 1000.000
   Quad. conv. algorithm                .... NR
   White noise on init. David. guess    .... on
   Maximum white noise                  ....   0.010
   Pseudo random numbers                .... off
   Inactive MOs                         .... canonical
   Orbital update algorithm             .... Taylor
   Preconditioner                       .... Diag
   Full preconditioner red. dimension   ....   250
 SOSCF                  CNVSOSCF        .... on
   Start iteration      SOSCFMaxIt      ....   150
   Startup grad/error   SOSCFStart      ....  0.003300
   Hessian update       SOSCFHessUp     .... L-BFGS
 Level Shifting         CNVShift        .... on
   Level shift para.    LevelShift      ....    0.2500
   Turn off err/grad.   ShiftErr        ....    0.0010
 Zerner damping         CNVZerner       .... off
 Static damping         CNVDamp         .... on
   Fraction old density DampFac         ....    0.7000
   Max. Damping (<1)    DampMax         ....    0.9800
   Min. Damping (>=0)   DampMin         ....    0.0000
   Turn off err/grad.   DampErr         ....    0.1000

SCF Procedure:
 Maximum # iterations   MaxIter         ....   125
 SCF integral mode      SCFMode         .... Direct
   Integral package                     .... SHARK and LIBINT hybrid scheme
 Reset frequency        DirectResetFreq ....    20
 Integral Threshold     Thresh          ....  2.500e-11 Eh
 Primitive CutOff       TCut            ....  2.500e-12 Eh

Convergence Tolerance:
 Convergence Check Mode ConvCheckMode   .... Total+1el-Energy
 Convergence forced     ConvForced      .... 0
 Energy Change          TolE            ....  1.000e-08 Eh
 1-El. energy change                    ....  1.000e-05 Eh
 Orbital Gradient       TolG            ....  1.000e-05
 Orbital Rotation angle TolX            ....  1.000e-05
 DIIS Error             TolErr          ....  5.000e-07

------------------------------
INITIAL GUESS: MODEL POTENTIAL
------------------------------
Loading Hartree-Fock densities                     ... done
Calculating cut-offs                               ... done
Initializing the effective Hamiltonian             ... done
Setting up the integral package (SHARK)            ... done
Starting the Coulomb interaction                   ... done (   0.2 sec)
Making the grid                                    ... done (   0.3 sec)
Mapping shells                                     ... done
Starting the XC term evaluation                    ... done (   0.2 sec)
  promolecular density results
     # of electrons  =    159.991658386
     EX              =   -138.712657793
     EC              =     -5.914138932
     EX+EC           =   -144.626796725
Transforming the Hamiltonian                       ... done (   0.0 sec)
Diagonalizing the Hamiltonian                      ... done (   0.0 sec)
Back transforming the eigenvectors                 ... done (   0.0 sec)
Now organizing SCF variables                       ... done
                      ------------------
                      INITIAL GUESS DONE (   0.7 sec)
                      ------------------
             **** ENERGY FILE WAS UPDATED (data/geom_opt_PO_BP86/11437688/11437688.en.tmp) ****
Finished Guess after   0.8 sec
Maximum memory used throughout the entire GUESS-calculation: 29.1 MB


           ************************************************************
           *        Program running with 6 parallel MPI-processes     *
           *              working on a common directory               *
           ************************************************************

-------------------------------------------------------------------------------------------
                                      ORCA LEAN-SCF
                              memory conserving SCF solver
-------------------------------------------------------------------------------------------

----------------------------------------D-I-I-S--------------------------------------------
Iteration    Energy (Eh)           Delta-E    RMSDP     MaxDP     DIISErr   Damp  Time(sec)
-------------------------------------------------------------------------------------------
               ***  Starting incremental Fock matrix formation  ***
    1    -1187.7910565509448588     0.00e+00  3.16e-03  1.61e-01  3.34e-01  0.700   1.1
    2    -1188.0198286779993850    -2.29e-01  1.81e-03  5.97e-02  7.62e-02  0.700   1.1
                               ***Turning on AO-DIIS***
    3    -1188.0929516560411230    -7.31e-02  6.53e-04  2.09e-02  3.09e-02  0.700   1.0
    4    -1188.1436090594954749    -5.07e-02  1.16e-03  5.20e-02  1.69e-02  0.000   1.0
    5    -1188.2549867257264395    -1.11e-01  2.75e-04  1.24e-02  7.47e-03  0.000   1.0
    6    -1188.2561688237926774    -1.18e-03  9.93e-05  3.14e-03  3.84e-03  0.000   1.0
                              *** Initializing SOSCF ***
---------------------------------------S-O-S-C-F--------------------------------------
Iteration    Energy (Eh)           Delta-E    RMSDP     MaxDP     MaxGrad    Time(sec)
--------------------------------------------------------------------------------------
    7    -1188.2562378134405208    -6.90e-05  4.01e-05  1.17e-03  1.82e-03     1.0
               *** Restarting incremental Fock matrix formation ***
    8    -1188.2562507226350590    -1.29e-05  2.41e-05  8.15e-04  1.12e-04     1.0
    9    -1188.2562512068395790    -4.84e-07  1.36e-05  4.82e-04  1.03e-04     0.9
   10    -1188.2562513156192381    -1.09e-07  1.09e-05  7.07e-04  8.60e-05     0.9
   11    -1188.2562516382911326    -3.23e-07  6.68e-06  4.64e-04  5.33e-05     0.8
   12    -1188.2562517271110210    -8.88e-08  4.38e-06  1.23e-04  5.03e-05     0.8
   13    -1188.2562517858784759    -5.88e-08  2.72e-06  2.81e-04  2.67e-05     0.9
   14    -1188.2562518125121187    -2.66e-08  1.99e-06  7.44e-05  2.24e-05     0.8
   15    -1188.2562518290631033    -1.66e-08  1.23e-06  8.14e-05  1.62e-05     0.8
   16    -1188.2562518437605377    -1.47e-08  1.02e-06  6.20e-05  5.72e-06     0.8
   17    -1188.2562518463257675    -2.57e-09  4.78e-07  1.86e-05  5.19e-06     0.8
                 **** Energy Check signals convergence ****

               *****************************************************
               *                     SUCCESS                       *
               *           SCF CONVERGED AFTER  17 CYCLES          *
               *****************************************************

             **** ENERGY FILE WAS UPDATED (data/geom_opt_PO_BP86/11437688/11437688.en.tmp) ****

----------------
TOTAL SCF ENERGY
----------------

Total Energy       :      -1188.25625184632577 Eh          -32334.09645 eV

Components:
Nuclear Repulsion  :       1786.84465361089656 Eh           48622.51495 eV
Electronic Energy  :      -2975.10090545722232 Eh          -80956.61139 eV
One Electron Energy:      -5169.10111448650696 Eh         -140658.39226 eV
Two Electron Energy:       2194.00020902928463 Eh           59701.78087 eV

Virial components:
Potential Energy   :      -2365.95275904400569 Eh          -64380.84763 eV
Kinetic Energy     :       1177.69650719767969 Eh           32046.75119 eV
Virial Ratio       :          2.00896643964222

DFT components:
N(Alpha)           :       79.999904547200 electrons
N(Beta)            :       79.999904547200 electrons
N(Total)           :      159.999809094399 electrons
E(X)               :     -140.727230836403 Eh       
E(C)               :       -5.923575656139 Eh       
E(XC)              :     -146.650806492542 Eh       

---------------
SCF CONVERGENCE
---------------

  Last Energy change         ...    2.5652e-09  Tolerance :   1.0000e-08
  Last MAX-Density change    ...    1.8636e-05  Tolerance :   1.0000e-07
  Last RMS-Density change    ...    4.7830e-07  Tolerance :   5.0000e-09
  Last DIIS Error            ...    1.8152e-03  Tolerance :   5.0000e-07
  Last Orbital Gradient      ...    5.1915e-06  Tolerance :   1.0000e-05
  Last Orbital Rotation      ...    1.6081e-05  Tolerance :   1.0000e-05


----------------
ORBITAL ENERGIES
----------------

  NO   OCC          E(Eh)            E(eV) 
   0   2.0000     -76.409738     -2079.2147 
   1   2.0000     -18.703946      -508.9603 
   2   2.0000      -9.933741      -270.3108 
   3   2.0000      -9.929807      -270.2038 
   4   2.0000      -9.929482      -270.1949 
   5   2.0000      -9.929417      -270.1932 
   6   2.0000      -9.927305      -270.1357 
   7   2.0000      -9.926716      -270.1197 
   8   2.0000      -9.926700      -270.1192 
   9   2.0000      -9.926630      -270.1173 
  10   2.0000      -9.926473      -270.1131 
  11   2.0000      -9.926416      -270.1115 
  12   2.0000      -9.925644      -270.0905 
  13   2.0000      -9.925622      -270.0899 
  14   2.0000      -9.925564      -270.0883 
  15   2.0000      -9.925336      -270.0821 
  16   2.0000      -9.925265      -270.0802 
  17   2.0000      -9.924586      -270.0617 
  18   2.0000      -9.924534      -270.0603 
  19   2.0000      -9.924392      -270.0564 
  20   2.0000      -9.924304      -270.0540 
  21   2.0000      -9.919575      -269.9254 
  22   2.0000      -6.368820      -173.3044 
  23   2.0000      -4.589924      -124.8982 
  24   2.0000      -4.589902      -124.8976 
  25   2.0000      -4.589786      -124.8944 
  26   2.0000      -0.843267       -22.9465 
  27   2.0000      -0.789128       -21.4733 
  28   2.0000      -0.784023       -21.3344 
  29   2.0000      -0.782701       -21.2984 
  30   2.0000      -0.724814       -19.7232 
  31   2.0000      -0.695511       -18.9258 
  32   2.0000      -0.681576       -18.5466 
  33   2.0000      -0.679926       -18.5017 
  34   2.0000      -0.679488       -18.4898 
  35   2.0000      -0.678144       -18.4532 
  36   2.0000      -0.662703       -18.0331 
  37   2.0000      -0.592349       -16.1186 
  38   2.0000      -0.561732       -15.2855 
  39   2.0000      -0.555533       -15.1168 
  40   2.0000      -0.552627       -15.0377 
  41   2.0000      -0.549921       -14.9641 
  42   2.0000      -0.544438       -14.8149 
  43   2.0000      -0.512486       -13.9454 
  44   2.0000      -0.507145       -13.8001 
  45   2.0000      -0.478701       -13.0261 
  46   2.0000      -0.471616       -12.8333 
  47   2.0000      -0.449354       -12.2276 
  48   2.0000      -0.431880       -11.7521 
  49   2.0000      -0.419679       -11.4200 
  50   2.0000      -0.417753       -11.3676 
  51   2.0000      -0.410052       -11.1581 
  52   2.0000      -0.408868       -11.1259 
  53   2.0000      -0.402078       -10.9411 
  54   2.0000      -0.397503       -10.8166 
  55   2.0000      -0.386420       -10.5150 
  56   2.0000      -0.383890       -10.4462 
  57   2.0000      -0.383208       -10.4276 
  58   2.0000      -0.381776       -10.3886 
  59   2.0000      -0.378151       -10.2900 
  60   2.0000      -0.352830        -9.6010 
  61   2.0000      -0.344102        -9.3635 
  62   2.0000      -0.342816        -9.3285 
  63   2.0000      -0.339123        -9.2280 
  64   2.0000      -0.326844        -8.8939 
  65   2.0000      -0.314831        -8.5670 
  66   2.0000      -0.314571        -8.5599 
  67   2.0000      -0.313098        -8.5198 
  68   2.0000      -0.306734        -8.3467 
  69   2.0000      -0.305882        -8.3235 
  70   2.0000      -0.293045        -7.9741 
  71   2.0000      -0.275846        -7.5062 
  72   2.0000      -0.250065        -6.8046 
  73   2.0000      -0.244444        -6.6517 
  74   2.0000      -0.242638        -6.6025 
  75   2.0000      -0.239406        -6.5146 
  76   2.0000      -0.239369        -6.5136 
  77   2.0000      -0.223384        -6.0786 
  78   2.0000      -0.206461        -5.6181 
  79   2.0000      -0.205192        -5.5836 
  80   0.0000      -0.080771        -2.1979 
  81   0.0000      -0.065437        -1.7806 
  82   0.0000      -0.064024        -1.7422 
  83   0.0000      -0.057238        -1.5575 
  84   0.0000      -0.047018        -1.2794 
  85   0.0000      -0.046197        -1.2571 
  86   0.0000      -0.014002        -0.3810 
  87   0.0000       0.036719         0.9992 
  88   0.0000       0.044518         1.2114 
  89   0.0000       0.051103         1.3906 
  90   0.0000       0.052229         1.4212 
*Only the first 10 virtual orbitals were printed.

                    ********************************
                    * MULLIKEN POPULATION ANALYSIS *
                    ********************************

-----------------------
MULLIKEN ATOMIC CHARGES
-----------------------
   0 C :   -0.045818
   1 C :   -0.031881
   2 C :    0.090065
   3 C :   -0.026943
   4 C :    0.014871
   5 C :   -0.110918
   6 C :   -0.005410
   7 C :   -0.014653
   8 P :    0.624362
   9 O :   -0.467675
  10 C :   -0.117394
  11 C :   -0.005534
  12 C :    0.012020
  13 C :    0.015168
  14 C :    0.011155
  15 C :    0.013955
  16 C :   -0.116809
  17 C :    0.014124
  18 C :    0.010986
  19 C :    0.015264
  20 C :    0.012104
  21 C :   -0.005772
  22 H :    0.033893
  23 H :    0.039422
  24 H :    0.015333
  25 H :   -0.009215
  26 H :    0.012479
  27 H :    0.000925
  28 H :   -0.013875
  29 H :    0.002350
  30 H :   -0.002353
  31 H :    0.000973
  32 H :    0.002988
  33 H :    0.013955
  34 H :    0.013759
  35 H :    0.002937
  36 H :    0.000898
  37 H :   -0.002311
  38 H :    0.002576
Sum of atomic charges:   -0.0000000

--------------------------------
MULLIKEN REDUCED ORBITAL CHARGES
--------------------------------
  0 C s       :     3.128502  s :     3.128502
      pz      :     0.968140  p :     2.893245
      px      :     0.946077
      py      :     0.979028
      dz2     :     0.006848  d :     0.024071
      dxz     :     0.007547
      dyz     :     0.004881
      dx2y2   :     0.002803
      dxy     :     0.001992

  1 C s       :     3.155265  s :     3.155265
      pz      :     0.928663  p :     2.843801
      px      :     0.947557
      py      :     0.967581
      dz2     :     0.007292  d :     0.032815
      dxz     :     0.010917
      dyz     :     0.005377
      dx2y2   :     0.004332
      dxy     :     0.004896

  2 C s       :     3.036113  s :     3.036113
      pz      :     0.953116  p :     2.832618
      px      :     0.920863
      py      :     0.958639
      dz2     :     0.010409  d :     0.041204
      dxz     :     0.012125
      dyz     :     0.006287
      dx2y2   :     0.005787
      dxy     :     0.006596

  3 C s       :     3.238399  s :     3.238399
      pz      :     0.902211  p :     2.756518
      px      :     0.864992
      py      :     0.989316
      dz2     :     0.007655  d :     0.032026
      dxz     :     0.011834
      dyz     :     0.004179
      dx2y2   :     0.004400
      dxy     :     0.003958

  4 C s       :     3.242030  s :     3.242030
      pz      :     0.860883  p :     2.710302
      px      :     0.912797
      py      :     0.936622
      dz2     :     0.008435  d :     0.032797
      dxz     :     0.009877
      dyz     :     0.002805
      dx2y2   :     0.005420
      dxy     :     0.006260

  5 C s       :     3.067112  s :     3.067112
      pz      :     0.979129  p :     3.010372
      px      :     1.007146
      py      :     1.024097
      dz2     :     0.009280  d :     0.033433
      dxz     :     0.010242
      dyz     :     0.005919
      dx2y2   :     0.004529
      dxy     :     0.003464

  6 C s       :     3.232263  s :     3.232263
      pz      :     0.911353  p :     2.740065
      px      :     0.856998
      py      :     0.971714
      dz2     :     0.007627  d :     0.033082
      dxz     :     0.012189
      dyz     :     0.004525
      dx2y2   :     0.004391
      dxy     :     0.004350

  7 C s       :     3.231986  s :     3.231986
      pz      :     0.825841  p :     2.750752
      px      :     0.946112
      py      :     0.978799
      dz2     :     0.008300  d :     0.031916
      dxz     :     0.009671
      dyz     :     0.002751
      dx2y2   :     0.005308
      dxy     :     0.005886

  8 P s       :     5.210598  s :     5.210598
      pz      :     2.827682  p :     8.679479
      px      :     2.932864
      py      :     2.918933
      dz2     :     0.107680  d :     0.485562
      dxz     :     0.138753
      dyz     :     0.095818
      dx2y2   :     0.098476
      dxy     :     0.044834

  9 O s       :     3.823282  s :     3.823282
      pz      :     1.378966  p :     4.632721
      px      :     1.645060
      py      :     1.608695
      dz2     :     0.004288  d :     0.011672
      dxz     :     0.002865
      dyz     :     0.003476
      dx2y2   :     0.000481
      dxy     :     0.000562

 10 C s       :     3.071436  s :     3.071436
      pz      :     0.996240  p :     3.012723
      px      :     1.006108
      py      :     1.010375
      dz2     :     0.006156  d :     0.033235
      dxz     :     0.005236
      dyz     :     0.008602
      dx2y2   :     0.006282
      dxy     :     0.006959

 11 C s       :     3.227581  s :     3.227581
      pz      :     0.941434  p :     2.745011
      px      :     0.950618
      py      :     0.852960
      dz2     :     0.008207  d :     0.032942
      dxz     :     0.005780
      dyz     :     0.006893
      dx2y2   :     0.006900
      dxy     :     0.005162

 12 C s       :     3.169851  s :     3.169851
      pz      :     0.898407  p :     2.785431
      px      :     0.959692
      py      :     0.927332
      dz2     :     0.005425  d :     0.032699
      dxz     :     0.004202
      dyz     :     0.008907
      dx2y2   :     0.006828
      dxy     :     0.007335

 13 C s       :     3.169897  s :     3.169897
      pz      :     0.918221  p :     2.781848
      px      :     0.918711
      py      :     0.944916
      dz2     :     0.005760  d :     0.033087
      dxz     :     0.004825
      dyz     :     0.009072
      dx2y2   :     0.006255
      dxy     :     0.007176

 14 C s       :     3.171662  s :     3.171662
      pz      :     0.962984  p :     2.784396
      px      :     0.967613
      py      :     0.853799
      dz2     :     0.008021  d :     0.032787
      dxz     :     0.005731
      dyz     :     0.006942
      dx2y2   :     0.006707
      dxy     :     0.005386

 15 C s       :     3.238472  s :     3.238472
      pz      :     0.867117  p :     2.714871
      px      :     0.911517
      py      :     0.936237
      dz2     :     0.005606  d :     0.032702
      dxz     :     0.004231
      dyz     :     0.008755
      dx2y2   :     0.006873
      dxy     :     0.007236

 16 C s       :     3.071118  s :     3.071118
      pz      :     0.995222  p :     3.012456
      px      :     1.020455
      py      :     0.996779
      dz2     :     0.006849  d :     0.033235
      dxz     :     0.005320
      dyz     :     0.005926
      dx2y2   :     0.008767
      dxy     :     0.006373

 17 C s       :     3.238409  s :     3.238409
      pz      :     0.917935  p :     2.714763
      px      :     0.931022
      py      :     0.865806
      dz2     :     0.004320  d :     0.032704
      dxz     :     0.004099
      dyz     :     0.008194
      dx2y2   :     0.007378
      dxy     :     0.008713

 18 C s       :     3.171647  s :     3.171647
      pz      :     0.928699  p :     2.784579
      px      :     0.913341
      py      :     0.942539
      dz2     :     0.004325  d :     0.032788
      dxz     :     0.004159
      dyz     :     0.008156
      dx2y2   :     0.007768
      dxy     :     0.008381

 19 C s       :     3.169904  s :     3.169904
      pz      :     0.965714  p :     2.781746
      px      :     0.966233
      py      :     0.849800
      dz2     :     0.006747  d :     0.033086
      dxz     :     0.005340
      dyz     :     0.005636
      dx2y2   :     0.008831
      dxy     :     0.006531

 20 C s       :     3.169880  s :     3.169880
      pz      :     0.931006  p :     2.785319
      px      :     0.933222
      py      :     0.921090
      dz2     :     0.004255  d :     0.032698
      dxz     :     0.004125
      dyz     :     0.008000
      dx2y2   :     0.007426
      dxy     :     0.008893

 21 C s       :     3.227636  s :     3.227636
      pz      :     0.928791  p :     2.745192
      px      :     0.912016
      py      :     0.904384
      dz2     :     0.004233  d :     0.032944
      dxz     :     0.004233
      dyz     :     0.008124
      dx2y2   :     0.007844
      dxy     :     0.008509

 22 H s       :     0.942607  s :     0.942607
      pz      :     0.009375  p :     0.023500
      px      :     0.007263
      py      :     0.006862

 23 H s       :     0.937220  s :     0.937220
      pz      :     0.004897  p :     0.023358
      px      :     0.012870
      py      :     0.005591

 24 H s       :     0.962088  s :     0.962088
      pz      :     0.008770  p :     0.022579
      px      :     0.007195
      py      :     0.006614

 25 H s       :     0.986813  s :     0.986813
      pz      :     0.008304  p :     0.022402
      px      :     0.009125
      py      :     0.004973

 26 H s       :     0.964905  s :     0.964905
      pz      :     0.013428  p :     0.022615
      px      :     0.004216
      py      :     0.004971

 27 H s       :     0.975998  s :     0.975998
      pz      :     0.008314  p :     0.023077
      px      :     0.009812
      py      :     0.004951

 28 H s       :     0.991338  s :     0.991338
      pz      :     0.012853  p :     0.022537
      px      :     0.004070
      py      :     0.005614

 29 H s       :     0.974571  s :     0.974571
      pz      :     0.004375  p :     0.023080
      px      :     0.005073
      py      :     0.013632

 30 H s       :     0.979987  s :     0.979987
      pz      :     0.009825  p :     0.022366
      px      :     0.006074
      py      :     0.006466

 31 H s       :     0.976730  s :     0.976730
      pz      :     0.008048  p :     0.022297
      px      :     0.008508
      py      :     0.005741

 32 H s       :     0.974675  s :     0.974675
      pz      :     0.004301  p :     0.022337
      px      :     0.005019
      py      :     0.013017

 33 H s       :     0.963423  s :     0.963423
      pz      :     0.010592  p :     0.022622
      px      :     0.005822
      py      :     0.006208

 34 H s       :     0.963621  s :     0.963621
      pz      :     0.008045  p :     0.022620
      px      :     0.006829
      py      :     0.007746

 35 H s       :     0.974727  s :     0.974727
      pz      :     0.007908  p :     0.022337
      px      :     0.009238
      py      :     0.005191

 36 H s       :     0.976804  s :     0.976804
      pz      :     0.004363  p :     0.022298
      px      :     0.004491
      py      :     0.013444

 37 H s       :     0.979945  s :     0.979945
      pz      :     0.007774  p :     0.022366
      px      :     0.007299
      py      :     0.007292

 38 H s       :     0.974353  s :     0.974353
      pz      :     0.007855  p :     0.023072
      px      :     0.009759
      py      :     0.005458



                     *******************************
                     * LOEWDIN POPULATION ANALYSIS *
                     *******************************

----------------------
LOEWDIN ATOMIC CHARGES
----------------------
   0 C :   -0.042914
   1 C :   -0.023983
   2 C :   -0.021275
   3 C :   -0.018522
   4 C :   -0.005290
   5 C :   -0.188383
   6 C :   -0.028394
   7 C :   -0.018770
   8 P :    0.883272
   9 O :   -0.498173
  10 C :   -0.186113
  11 C :   -0.030206
  12 C :   -0.028091
  13 C :   -0.017371
  14 C :   -0.024627
  15 C :   -0.006632
  16 C :   -0.185978
  17 C :   -0.006640
  18 C :   -0.024672
  19 C :   -0.017381
  20 C :   -0.028028
  21 C :   -0.030214
  22 H :    0.025150
  23 H :    0.029768
  24 H :    0.034516
  25 H :    0.032385
  26 H :    0.036640
  27 H :    0.031063
  28 H :    0.030623
  29 H :    0.030407
  30 H :    0.031754
  31 H :    0.031961
  32 H :    0.033684
  33 H :    0.036341
  34 H :    0.036287
  35 H :    0.033650
  36 H :    0.031940
  37 H :    0.031782
  38 H :    0.030433

-------------------------------
LOEWDIN REDUCED ORBITAL CHARGES
-------------------------------
  0 C s       :     2.887133  s :     2.887133
      pz      :     1.056475  p :     3.089298
      px      :     1.043761
      py      :     0.989062
      dz2     :     0.019215  d :     0.066483
      dxz     :     0.022208
      dyz     :     0.011873
      dx2y2   :     0.008087
      dxy     :     0.005099

  1 C s       :     2.871267  s :     2.871267
      pz      :     1.066216  p :     3.063823
      px      :     1.025425
      py      :     0.972182
      dz2     :     0.021316  d :     0.088893
      dxz     :     0.031286
      dyz     :     0.013212
      dx2y2   :     0.011634
      dxy     :     0.011445

  2 C s       :     2.850961  s :     2.850961
      pz      :     1.068076  p :     3.060993
      px      :     1.043696
      py      :     0.949221
      dz2     :     0.030924  d :     0.109321
      dxz     :     0.035316
      dyz     :     0.013958
      dx2y2   :     0.015350
      dxy     :     0.013773

  3 C s       :     2.864190  s :     2.864190
      pz      :     1.041757  p :     3.066565
      px      :     1.047926
      py      :     0.976882
      dz2     :     0.022915  d :     0.087768
      dxz     :     0.034647
      dyz     :     0.009324
      dx2y2   :     0.012256
      dxy     :     0.008626

  4 C s       :     2.867574  s :     2.867574
      pz      :     1.048004  p :     3.048294
      px      :     1.057232
      py      :     0.943059
      dz2     :     0.023634  d :     0.089422
      dxz     :     0.029682
      dyz     :     0.005704
      dx2y2   :     0.016160
      dxy     :     0.014241

  5 C s       :     2.913062  s :     2.913062
      pz      :     1.087045  p :     3.186137
      px      :     1.085769
      py      :     1.013322
      dz2     :     0.026990  d :     0.089183
      dxz     :     0.030244
      dyz     :     0.013294
      dx2y2   :     0.011493
      dxy     :     0.007163

  6 C s       :     2.867227  s :     2.867227
      pz      :     1.051312  p :     3.070656
      px      :     1.055859
      py      :     0.963486
      dz2     :     0.022728  d :     0.090511
      dxz     :     0.035500
      dyz     :     0.010378
      dx2y2   :     0.012139
      dxy     :     0.009765

  7 C s       :     2.863458  s :     2.863458
      pz      :     1.034309  p :     3.067930
      px      :     1.053708
      py      :     0.979914
      dz2     :     0.023305  d :     0.087383
      dxz     :     0.029217
      dyz     :     0.005680
      dx2y2   :     0.015889
      dxy     :     0.013291

  8 P s       :     4.930679  s :     4.930679
      pz      :     2.791831  p :     8.508395
      px      :     2.862949
      py      :     2.853615
      dz2     :     0.153565  d :     0.677654
      dxz     :     0.190317
      dyz     :     0.131244
      dx2y2   :     0.144970
      dxy     :     0.057558

  9 O s       :     3.667021  s :     3.667021
      pz      :     1.495620  p :     4.813048
      px      :     1.670673
      py      :     1.646755
[...]
      px      :     1.036931
      py      :     1.081613
      dz2     :     0.018669  d :     0.086268
      dxz     :     0.015800
      dyz     :     0.019298
      dx2y2   :     0.018459
      dxy     :     0.014041

 17 C s       :     2.875339  s :     2.875339
      pz      :     1.012182  p :     3.052241
      px      :     0.985159
      py      :     1.054900
      dz2     :     0.013355  d :     0.086928
      dxz     :     0.010719
      dyz     :     0.025022
      dx2y2   :     0.018504
      dxy     :     0.019327

 18 C s       :     2.872957  s :     2.872957
      pz      :     1.014411  p :     3.066932
      px      :     0.993325
      py      :     1.059197
      dz2     :     0.013224  d :     0.085898
      dxz     :     0.010741
      dyz     :     0.024690
      dx2y2   :     0.018654
      dxy     :     0.018589

 19 C s       :     2.874665  s :     2.874665
      pz      :     1.024292  p :     3.060861
      px      :     0.998641
      py      :     1.037928
      dz2     :     0.018889  d :     0.085553
      dxz     :     0.015487
      dyz     :     0.019060
      dx2y2   :     0.018230
      dxy     :     0.013886

 20 C s       :     2.872856  s :     2.872856
      pz      :     1.015659  p :     3.071022
      px      :     1.002913
      py      :     1.052450
      dz2     :     0.012890  d :     0.085863
      dxz     :     0.010900
      dyz     :     0.023699
      dx2y2   :     0.018755
      dxy     :     0.019620

 21 C s       :     2.874990  s :     2.874990
      pz      :     1.014595  p :     3.073168
      px      :     0.997016
      py      :     1.061558
      dz2     :     0.012939  d :     0.087637
      dxz     :     0.010972
      dyz     :     0.024453
      dx2y2   :     0.019628
      dxy     :     0.019645

 22 H s       :     0.905839  s :     0.905839
      pz      :     0.030391  p :     0.067595
      px      :     0.022630
      py      :     0.014573

 23 H s       :     0.898406  s :     0.898406
      pz      :     0.011266  p :     0.067303
      px      :     0.040468
      py      :     0.015569

 24 H s       :     0.900409  s :     0.900409
      pz      :     0.027795  p :     0.064826
      px      :     0.023588
      py      :     0.013443

 25 H s       :     0.899484  s :     0.899484
      pz      :     0.025200  p :     0.066555
      px      :     0.027099
      py      :     0.014255

 26 H s       :     0.891131  s :     0.891131
      pz      :     0.042519  p :     0.069138
      px      :     0.013705
      py      :     0.012915

 27 H s       :     0.898678  s :     0.898678
      pz      :     0.025571  p :     0.068373
      px      :     0.028883
      py      :     0.013920

 28 H s       :     0.900830  s :     0.900830
      pz      :     0.040492  p :     0.067326
      px      :     0.012786
      py      :     0.014048

 29 H s       :     0.899055  s :     0.899055
      pz      :     0.012464  p :     0.068640
      px      :     0.016244
      py      :     0.039932

 30 H s       :     0.899447  s :     0.899447
      pz      :     0.032420  p :     0.066003
      px      :     0.015275
      py      :     0.018308

 31 H s       :     0.899181  s :     0.899181
      pz      :     0.024379  p :     0.065848
      px      :     0.024129
      py      :     0.017341

 32 H s       :     0.897955  s :     0.897955
      pz      :     0.012499  p :     0.065924
      px      :     0.016158
      py      :     0.037267

 33 H s       :     0.891892  s :     0.891892
      pz      :     0.036849  p :     0.069230
      px      :     0.015157
      py      :     0.017224

 34 H s       :     0.891833  s :     0.891833
      pz      :     0.027569  p :     0.069282
      px      :     0.017136
      py      :     0.024577

 35 H s       :     0.897983  s :     0.897983
      pz      :     0.026171  p :     0.065924
      px      :     0.023962
      py      :     0.015791

 36 H s       :     0.899172  s :     0.899172
      pz      :     0.011895  p :     0.065848
      px      :     0.013480
      py      :     0.040473

 37 H s       :     0.899365  s :     0.899365
      pz      :     0.026101  p :     0.066006
      px      :     0.018601
      py      :     0.021303

 38 H s       :     0.899167  s :     0.899167
      pz      :     0.025760  p :     0.068530
      px      :     0.026098
      py      :     0.016672



                      *****************************
                      * MAYER POPULATION ANALYSIS *
                      *****************************

  NA   - Mulliken gross atomic population
  ZA   - Total nuclear charge
  QA   - Mulliken gross atomic charge
  VA   - Mayer's total valence
  BVA  - Mayer's bonded valence
  FA   - Mayer's free valence

  ATOM       NA         ZA         QA         VA         BVA        FA
  0 C      6.0581     6.0000    -0.0581     3.9075     3.9075    -0.0000
  1 C      6.0201     6.0000    -0.0201     3.9959     3.9959    -0.0000
  2 C      5.9057     6.0000     0.0943     3.8411     3.8411    -0.0000
  3 C      6.0395     6.0000    -0.0395     3.7993     3.7993    -0.0000
  4 C      5.9825     6.0000     0.0175     3.8685     3.8685    -0.0000
  5 C      6.1242     6.0000    -0.1242     3.7512     3.7512    -0.0000
  6 C      6.0007     6.0000    -0.0007     3.8731     3.8731    -0.0000
  7 C      6.0271     6.0000    -0.0271     3.8485     3.8485    -0.0000
  8 P     14.3665    15.0000     0.6335     4.7055     4.7055    -0.0000
  9 O      8.4548     8.0000    -0.4548     2.1481     2.1481    -0.0000
 10 C      6.1296     6.0000    -0.1296     3.7768     3.7768    -0.0000
 11 C      6.0070     6.0000    -0.0070     3.8763     3.8763    -0.0000
 12 C      6.0004     6.0000    -0.0004     3.8589     3.8589    -0.0000
 13 C      5.9905     6.0000     0.0095     3.8272     3.8272    -0.0000
 14 C      5.9987     6.0000     0.0013     3.8338     3.8338    -0.0000
 15 C      5.9872     6.0000     0.0128     3.8822     3.8822    -0.0000
 16 C      6.1287     6.0000    -0.1287     3.7761     3.7761    -0.0000
 17 C      5.9877     6.0000     0.0123     3.8828     3.8828    -0.0000
 18 C      5.9988     6.0000     0.0012     3.8336     3.8336    -0.0000
 19 C      5.9905     6.0000     0.0095     3.8272     3.8272    -0.0000
 20 C      6.0004     6.0000    -0.0004     3.8598     3.8598    -0.0000
 21 C      6.0075     6.0000    -0.0075     3.8763     3.8763    -0.0000
 22 H      0.9636     1.0000     0.0364     0.9815     0.9815    -0.0000
 23 H      0.9545     1.0000     0.0455     0.9749     0.9749    -0.0000
 24 H      0.9949     1.0000     0.0051     0.9844     0.9844    -0.0000
 25 H      1.0007     1.0000    -0.0007     0.9876     0.9876    -0.0000
 26 H      0.9795     1.0000     0.0205     1.0118     1.0118    -0.0000
 27 H      0.9980     1.0000     0.0020     0.9995     0.9995    -0.0000
 28 H      1.0117     1.0000    -0.0117     0.9880     0.9880     0.0000
 29 H      0.9945     1.0000     0.0055     1.0002     1.0002     0.0000
 30 H      0.9943     1.0000     0.0057     0.9792     0.9792     0.0000
 31 H      0.9905     1.0000     0.0095     0.9789     0.9789    -0.0000
 32 H      0.9886     1.0000     0.0114     0.9799     0.9799    -0.0000
 33 H      0.9777     1.0000     0.0223     1.0119     1.0119    -0.0000
 34 H      0.9776     1.0000     0.0224     1.0122     1.0122    -0.0000
 35 H      0.9886     1.0000     0.0114     0.9799     0.9799    -0.0000
 36 H      0.9905     1.0000     0.0095     0.9789     0.9789     0.0000
 37 H      0.9941     1.0000     0.0059     0.9792     0.9792    -0.0000
 38 H      0.9946     1.0000     0.0054     0.9999     0.9999     0.0000

  Mayer bond orders larger than 0.100000
B(  0-C ,  1-C ) :   1.9050 B(  0-C , 22-H ) :   0.9376 B(  0-C , 23-H ) :   0.9399 
B(  1-C ,  2-C ) :   1.1016 B(  1-C , 24-H ) :   0.9521 B(  2-C ,  3-C ) :   1.3253 
B(  2-C ,  7-C ) :   1.3279 B(  3-C ,  4-C ) :   1.3631 B(  3-C , 25-H ) :   0.9810 
B(  4-C ,  5-C ) :   1.3721 B(  4-C , 26-H ) :   0.9715 B(  5-C ,  6-C ) :   1.3344 
B(  5-C ,  8-P ) :   0.8807 B(  6-C ,  7-C ) :   1.4134 B(  6-C , 27-H ) :   0.9616 
B(  7-C , 28-H ) :   0.9716 B(  8-P ,  9-O ) :   1.8784 B(  8-P , 10-C ) :   0.8782 
B(  8-P , 16-C ) :   0.8781 B( 10-C , 11-C ) :   1.3654 B( 10-C , 15-C ) :   1.3795 
B( 11-C , 12-C ) :   1.3894 B( 11-C , 29-H ) :   0.9643 B( 12-C , 13-C ) :   1.3814 
B( 12-C , 30-H ) :   0.9753 B( 13-C , 14-C ) :   1.3778 B( 13-C , 31-H ) :   0.9759 
B( 14-C , 15-C ) :   1.3761 B( 14-C , 32-H ) :   0.9777 B( 15-C , 33-H ) :   0.9719 
B( 16-C , 17-C ) :   1.3801 B( 16-C , 21-C ) :   1.3640 B( 17-C , 18-C ) :   1.3755 
B( 17-C , 34-H ) :   0.9719 B( 18-C , 19-C ) :   1.3781 B( 18-C , 35-H ) :   0.9778 
B( 19-C , 20-C ) :   1.3812 B( 19-C , 36-H ) :   0.9759 B( 20-C , 21-C ) :   1.3902 
B( 20-C , 37-H ) :   0.9753 B( 21-C , 38-H ) :   0.9645 

-------
TIMINGS
-------

Total SCF time: 0 days 0 hours 0 min 7 sec 

Total time                  ....       7.506 sec
Sum of individual times     ....       7.391 sec  ( 98.5%)

SCF preparation             ....       0.134 sec  (  1.8%)
Fock matrix formation       ....       6.618 sec  ( 88.2%)
  Startup                   ....       0.032 sec  (  0.5% of F)
  Split-RI-J                ....       2.386 sec  ( 36.1% of F)
  XC integration            ....       4.077 sec  ( 61.6% of F)
    Basis function eval.    ....       1.299 sec  ( 31.9% of XC)
    Density eval.           ....       1.237 sec  ( 30.3% of XC)
    XC-Functional eval.     ....       0.108 sec  (  2.6% of XC)
    XC-Potential eval.      ....       0.758 sec  ( 18.6% of XC)
Diagonalization             ....       0.000 sec  (  0.0%)
Density matrix formation    ....       0.080 sec  (  1.1%)
Total Energy calculation    ....       0.028 sec  (  0.4%)
Population analysis         ....       0.103 sec  (  1.4%)
Orbital Transformation      ....       0.047 sec  (  0.6%)
Orbital Orthonormalization  ....       0.000 sec  (  0.0%)
DIIS solution               ....       0.058 sec  (  0.8%)
SOSCF solution              ....       0.323 sec  (  4.3%)
Finished LeanSCF after   7.6 sec

Maximum memory used throughout the entire LEANSCF-calculation: 42.1 MB


-------------------------------------------------------------------------------
                          DFT DISPERSION CORRECTION                            
                                                                               
                              DFTD3 V3.1  Rev 1                                
                          USING Becke-Johnson damping                          
-------------------------------------------------------------------------------
The BP86 functional is recognized
Active option DFTDOPT                   ...         4   

molecular C6(AA) [au] = 21293.918291 


            DFT-D V3
 parameters
 s6 scaling factor         :     1.0000 
 a1 scaling factor         :     0.3946 
 s8 scaling factor         :     3.2822 
 a2 scaling factor         :     4.8516 
 ad hoc parameters k1-k3   :    16.0000     1.3333    -4.0000 

 Edisp/kcal,au: -58.333686549217  -0.092960636832 
 E6   /kcal   : -21.163486823 
 E8   /kcal   : -37.170199727 
 % E8         :  63.719956556 

-------------------------   ----------------
Dispersion correction           -0.092960637
-------------------------   ----------------


-------------------------   --------------------
FINAL SINGLE POINT ENERGY     -1188.358876424568
-------------------------   --------------------

                                *** OPTIMIZATION RUN DONE ***



           ************************************************************
           *        Program running with 6 parallel MPI-processes     *
           *              working on a common directory               *
           ************************************************************

------------------------------------------------------------------------------
                              ORCA PROPERTY CALCULATIONS
------------------------------------------------------------------------------

GBWName                                 ... data/geom_opt_PO_BP86/11437688/11437688.gbw
Number of atoms                         ...     39
Number of basis functions               ...    397
Max core memory                         ...   1024 MB

Electric properties:
Dipole moment                           ... YES
Quadrupole moment                       ...  NO
Static polarizability (Dipole/Dipole)   ...  NO
Static polarizability (Dipole/Quad.)    ...  NO
Static polarizability (Quad./Quad.)     ...  NO
Static polarizability (Velocity)        ...  NO

Atomic electric properties:
Dipole moment                           ...  NO
Quadrupole moment                       ...  NO
Static polarizability                   ...  NO

Choice of electric origin               ... Center of mass
Position of electric origin             ...    -0.330482    -0.093436    -0.496272

General magnetic properties:
Magnetizability                         ...  NO

EPR properties:
g-Tensor (aka g-matrix)                 ...  NO
Zero-Field splitting spin-orbit         ...  NO
Zero-field splitting spin-spin          ...  NO
Hyperfine couplings                     ...  NO (   0 nuclei)
Quadrupole couplings                    ...  NO (   0 nuclei)
Contact density                         ...  NO (   0 nuclei)

NMR properties:
Chemical shifts                         ...  NO (   0 nuclei)
Spin-rotation constants                 ...  NO (   0 nuclei)
Spin-spin couplings                     ...  NO (   0 nuclei,    0 pairs)

Choice of magnetic origin               ... GIAO
Position of magnetic origin             ...     0.000000     0.000000     0.000000

Properties with geometric perturbations:
SCF Hessian                             ...  NO
IR spectrum                             ...  NO
VCD spectrum                            ...  NO
X-ray spectroscopy properties:
SCF XES/XAS/RIXS spectra                ...  NO


-------------
DIPOLE MOMENT
-------------

Method             : SCF
Type of density    : Electron Density
Multiplicity       :   1
Irrep              :   0
Energy             : -1188.2659157877360485 Eh
Relativity type    : 
Basis              : AO
                                X                 Y                 Z
Electronic contribution:     -6.007755717      -0.996266424      -7.552497389
Nuclear contribution   :      6.221632584       1.535584765       8.914217615
                        -----------------------------------------
Total Dipole Moment    :      0.213876867       0.539318341       1.361720225
                        -----------------------------------------
Magnitude (a.u.)       :      1.480165383
Magnitude (Debye)      :      3.762281409



--------------------
Rotational spectrum 
--------------------
 
Rotational constants in cm-1:             0.010314             0.006597             0.005028 
Rotational constants in MHz :           309.202396           197.768258           150.721426 

Dipole components along the rotational axes: 
x,y,z [a.u.] :     0.254521    -0.010385     1.458081 
x,y,z [Debye]:     0.646940    -0.026397     3.706148 

 

Dipole moment calculation done in   0.0 sec 

Maximum memory used throughout the entire PROP-calculation: 21.6 MB

--------------------------------
SUGGESTED CITATIONS FOR THIS RUN
--------------------------------

Below you find a list of papers that are relevant to this ORCA run
We neither can nor want to force you to cite these papers, but we appreciate if you do
You receive ORCA, which is the product of decades of hard work by many enthusiastic individuals, for free
The only thing we kindly ask in return is that you cite our papers,
We deeply appreciate it, if you show your appreciation for ORCA by not just citing the generic ORCA reference.

Please note that relegating all ORCA citations to the supporting information does *not* help us.
SI sections are not indexed - citations you put there will not count into any citation statistics
But we need these citations in order to attract the funding resources that allow us to do what we are doing

Therefore, if you are a happy ORCA user, please consider citing a few of the papers listed below in the main body of your paper

In addition to the list printed below, the program has created the file data/geom_opt_PO_BP86/11437688/11437688.bibtex that contains the list in bibtex format
You can import this file easily into all common literature databanks and citation aid programs


List of essential papers. We consider these as the minimum necessary citations

  1. Neese,F.
     Software update: the ORCA program system, version 5.0
     WIRES Comput. Molec. Sci., 2022 12(1)e1606
     doi.org/10.1002/wcms.1606

List of papers to cite with high priority. The work reported in these papers was absolutely
necessary for this run to complete.
Our perspective: the developers of density functionals and basis sets usually get cited in chemistry papers
Good! But without the algorithms to do something with them, the functionals or basis sets would not do anything.
Hence, in our opinion, the algorithm design and method developments papers are equally worthy of getting cited

  1. Neese,F.
     An improvement of the resolution of the identity approximation for the formation of the Coulomb matrix
     J. Comp. Chem., 2003 24(14)1740-1747
     doi.org/10.1002/jcc.10318
  2. Neese,F.
     The SHARK Integral Generation and Digestion System
     J. Comp. Chem., 2022  1-16
     doi.org/10.1002/jcc.26942
  3. Grimme,S.; Antony,J.; Ehrlich,S.; Krieg,H.
     A consistent and accurate ab initio parametrization of density functional dispersion correction (DFT-D) for the 94 elements H-Pu
     J. Chem. Phys., 2010 132 154104-XXXX
     doi.org/10.1063/1.3382344
  4. Grimme,S.; Ehrlich,S.; Goerigk,L.
     Effect of the damping function in dispersion corrected density functional theory
     J. Comput. Chem., 2011 32(7)1456-1465
     doi.org/10.1002/jcc.21759

List of suggested additional citations. These are papers that are important in the 'surrounding' of 
of this run, or papers that preceded the highly important papers. If you like your results we are grateful for a citation.

  1. Neese,F.
     The ORCA program system
     WIRES Comput. Molec. Sci., 2012 2(1)73-78
     doi.org/10.1002/wcms.81
  2. Neese,F.
     Software update: the ORCA program system, version 4.0
     WIRES Comput. Molec. Sci., 2018 8(1)1-6
     doi.org/10.1002/wcms.1327
  3. Neese,F.; Wennmohs,F.; Becker,U.; Riplinger,C.
     The ORCA quantum chemistry program package
     J. Chem. Phys., 2020 152 Art. No. L224108
     doi.org/10.1063/5.0004608

List of optional additional citations

  1. Neese,F.
     Approximate second-order SCF convergence for spin unrestricted wavefunctions
     Chem. Phys. Lett., 2000 325(1-3)93-98
     doi.org/10.1016/s0009-2614(00)00662-x

Timings for individual modules:

Sum of individual times          ...      226.435 sec (=   3.774 min)
Startup calculation              ...       18.207 sec (=   0.303 min)   8.0 %
SCF iterations                   ...      139.113 sec (=   2.319 min)  61.4 %
Property calculations            ...        0.187 sec (=   0.003 min)   0.1 %
SCF Gradient evaluation          ...       68.703 sec (=   1.145 min)  30.3 %
Geometry relaxation              ...        0.225 sec (=   0.004 min)   0.1 %
                             ****ORCA TERMINATED NORMALLY****
TOTAL RUN TIME: 0 days 0 hours 3 minutes 48 seconds 730 msec
