
                                 *****************
                                 * O   R   C   A *
                                 *****************

                                            #,                                       
                                            ###                                      
                                            ####                                     
                                            #####                                    
                                            ######                                   
                                           ########,                                 
                                     ,,################,,,,,                         
                               ,,#################################,,                 
                          ,,##########################################,,             
                       ,#########################################, ''#####,          
                    ,#############################################,,   '####,        
                  ,##################################################,,,,####,       
                ,###########''''           ''''###############################       
              ,#####''   ,,,,##########,,,,          '''####'''          '####       
            ,##' ,,,,###########################,,,                        '##       
           ' ,,###''''                  '''############,,,                           
         ,,##''                                '''############,,,,        ,,,,,,###''
      ,#''                                            '''#######################'''  
     '                                                          ''''####''''         
             ,#######,   #######,   ,#######,      ##                                
            ,#'     '#,  ##    ##  ,#'     '#,    #''#        ,####,   ,####,        
            ##       ##  ##   ,#'  ##            #'  '#       #'       #'  '#        
            ##       ##  #######   ##           ,######,      #####,   #    #        
            '#,     ,#'  ##    ##  '#,     ,#' ,#      #,     #,   #   #,  ,#        
             '#######'   ##     ##  '#######'  #'      '#     '####' # '####'        



                #########################################################
                #                        -***-                          #
                #          Department of theory and spectroscopy        #
                #                                                       #
                #                      Frank Neese                      #
                #                                                       #
                #     Directorship, Architecture, Infrastructure        #
                #                    SHARK, DRIVERS                     #
                #        Core code/Algorithms in most modules           #
                #                                                       #
                #        Max Planck Institute fuer Kohlenforschung      #
                #                Kaiser Wilhelm Platz 1                 #
                #                 D-45470 Muelheim/Ruhr                 #
                #                      Germany                          #
                #                                                       #
                #                  All rights reserved                  #
                #                        -***-                          #
                #########################################################


                         Program Version 6.0.0  -   RELEASE   -


 With contributions from (in alphabetic order):
   Daniel Aravena         : Magnetic Suceptibility
   Michael Atanasov       : Ab Initio Ligand Field Theory (pilot matlab implementation)
   Alexander A. Auer      : GIAO ZORA, VPT2 properties, NMR spectrum
   Ute Becker             : All parallelization in ORCA, NUMFREQ, NUMCALC
   Giovanni Bistoni       : ED, misc. LED, open-shell LED, HFLD
   Martin Brehm           : Molecular dynamics
   Dmytro Bykov           : pre 5.0 version of the SCF Hessian
   Marcos Casanova-Páez   : Triplet and SCS-CIS(D). UHF-(DLPNO)-IP/EA/STEOM-CCSD. UHF-CVS-IP/STEOM-CCSD
   Vijay G. Chilkuri      : MRCI spin determinant printing, contributions to CSF-ICE
   Pauline Colinet        : FMM embedding
   Dipayan Datta          : RHF DLPNO-CCSD density
   Achintya Kumar Dutta   : EOM-CC, STEOM-CC
   Nicolas Foglia         : Exact transition moments, OPA infrastructure, MCD improvements
   Dmitry Ganyushin       : Spin-Orbit,Spin-Spin,Magnetic field MRCI
   Miquel Garcia          : C-PCM and meta-GGA Hessian, CCSD/C-PCM, Gaussian charge scheme
   Tiago L. C. Gouveia    : GS-ROHF, GS-ROCIS
   Yang Guo               : DLPNO-NEVPT2, F12-NEVPT2, CIM, IAO-localization
   Andreas Hansen         : Spin unrestricted coupled pair/coupled cluster methods
   Ingolf Harden          : AUTO-CI MPn and infrastructure 
   Benjamin Helmich-Paris : MC-RPA, TRAH-(SCF,CASSCF), AVAS, COSX integrals, SCF dyn. polar.
   Lee Huntington         : MR-EOM, pCC
   Robert Izsak           : Overlap fitted RIJCOSX, COSX-SCS-MP3, EOM
   Riya Kayal             : Wick's Theorem for AUTO-CI, AUTO-CI UHF-CCSDT
   Emily Kempfer          : AUTO-CI, RHF CISDT and CCSDT
   Christian Kollmar      : KDIIS, OOCD, Brueckner-CCSD(T), CCSD density, CASPT2, CASPT2-K, improved NEVPT2
   Axel Koslowski         : Symmetry handling
   Simone Kossmann        : Meta GGA functionals, TD-DFT gradient, OOMP2, (MP2 Hessian; deprecated post 5.0)
   Lucas Lang             : DCDCAS
   Marvin Lechner         : AUTO-CI (C++ implementation), FIC-MRCC
   Spencer Leger          : CASSCF response
   Dagmar Lenk            : GEPOL surface, SMD, ORCA-2-JSON
   Dimitrios Liakos       : Extrapolation schemes; Compound Job, initial MDCI parallelization
   Dimitrios Manganas     : Further ROCIS development; embedding schemes. LFT, Crystal Embedding
   Dimitrios Pantazis     : SARC Basis sets
   Anastasios Papadopoulos: AUTO-CI, single reference methods and gradients
   Taras Petrenko         : pre 6.0 DFT Hessian and TD-DFT gradient, (ASA, deprecated), ECA, 1-Electron XAS/XES, NRVS
   Peter Pinski           : DLPNO-MP2, DLPNO-MP2 Gradient
   Christoph Reimann      : Effective Core Potentials
   Marius Retegan         : Local ZFS, SOC
   Christoph Riplinger    : Optimizer, TS searches, QM/MM, DLPNO-CCSD(T), (RO)-DLPNO pert. Triples
   Michael Roemelt        : Original ROCIS implementation
   Masaaki Saitow         : Open-shell DLPNO-CCSD energy and density
   Barbara Sandhoefer     : DKH picture change effects
   Kantharuban Sivalingam : CASSCF convergence/infrastructure, NEVPT2 and variants, FIC-MRCI
   Bernardo de Souza      : ESD, SOC TD-DFT
   Georgi Stoychev        : AutoAux, RI-MP2 NMR, DLPNO-MP2 response, X2C
   Van Anh Tran           : RI-MP2 g-tensors
   Willem Van den Heuvel  : Paramagnetic NMR
   Zikuan Wang            : NOTCH, Electric field optimization 
   Frank Wennmohs         : Technical directorship and infrastructure
   Hang Xu                : AUTO-CI-Response properties 


 We gratefully acknowledge several colleagues who have allowed us to
 interface, adapt or use parts of their codes:
   Stefan Grimme, W. Hujo, H. Kruse, P. Pracht,  : VdW corrections, initial TS optimization,
                  C. Bannwarth, S. Ehlert,         DFT functionals, gCP, sTDA/sTD-DF
                  L. Wittmann, M. Mueller
   Ed Valeev, F. Pavosevic, A. Kumar             : LibInt (2-el integral package), F12 methods
   Garnet Chan, S. Sharma, J. Yang, R. Olivares  : DMRG
   Ulf Ekstrom                                   : XCFun DFT Library
   Mihaly Kallay                                 : mrcc  (arbitrary order and MRCC methods)
   Frank Weinhold                                : gennbo (NPA and NBO analysis)
   Simon Mueller                                 : openCOSMO-RS
   Christopher J. Cramer and Donald G. Truhlar   : smd solvation model
   Lars Goerigk                                  : TD-DFT with DH, B97 family of functionals
   V. Asgeirsson, H. Jonsson                     : NEB implementation
   FAccTs GmbH                                   : IRC, NEB, NEB-TS, DLPNO-Multilevel, CI-OPT
                                                   MM, QMMM, 2- and 3-layer-ONIOM, Crystal-QMMM,
                                                   LR-CPCM, SF, NACMEs, symmetry and pop. for TD-DFT,
                                                   nearIR, NL-DFT gradient (VV10), updates on ESD,
                                                   ML-optimized integration grids, MBIS, APM,
                                                   GOAT, DOCKER, SOLVATOR, interface openCOSMO-RS
   S Lehtola, MJT Oliveira, MAL Marques          : LibXC Library
   Liviu Ungur et al                             : ANISO software


 Your calculation uses the libint2 library for the computation of 2-el integrals
 For citations please refer to: http://libint.valeyev.net

 Your ORCA version has been built with support for libXC version: 6.2.2
 For citations please refer to: https://libxc.gitlab.io

 This ORCA versions uses:
   CBLAS   interface :  Fast vector & matrix operations
   LAPACKE interface :  Fast linear algebra routines
   Shared memory     :  Shared parallel matrices


Your calculation utilizes the atom-pairwise dispersion correction
with the Becke-Johnson damping scheme (D3BJ)


Warning: RI is on but no J-basis has been assigned. Assigning Def2/J (nothing to worry about!)
================================================================================

----- Orbital basis set information -----
Your calculation utilizes the basis: def2-SVP
   F. Weigend and R. Ahlrichs, Phys. Chem. Chem. Phys. 7, 3297 (2005).

----- AuxJ basis set information -----
Your calculation utilizes the auxiliary basis: def2/J
   F. Weigend, Phys. Chem. Chem. Phys. 8, 1057 (2006).

================================================================================
                                        WARNINGS
                       Please study these warnings very carefully!
================================================================================


WARNING: Geometry Optimization
  ===> : Switching off AutoStart
         For restart on a previous wavefunction, please use MOREAD

================================================================================
                                       INPUT FILE
================================================================================
NAME = data/geom_opt/80362/80362.inp
|  1> ! RIJONX B3LYP def2-SVP D3BJ TIGHTSCF Opt
|  2> %pal
|  3> nprocs 6
|  4> end
|  5> 
|  6> * xyz 0 1
|  7> C     -5.080952   -1.330850    0.058949
|  8> C     -3.613376   -1.616821   -0.059218
|  9> C     -2.687013   -0.894718    0.708940
| 10> C     -1.300318   -1.113791    0.593832
| 11> C     -0.864858   -2.085351   -0.317177
| 12> C     -1.778426   -2.800439   -1.096815
| 13> C     -3.145457   -2.563036   -0.973536
| 14> P     -0.190215   -0.125440    1.650084
| 15> C     -0.125782    1.500785    0.825537
| 16> C      0.439151    2.574536    1.534419
| 17> C      0.530175    3.846526    0.965314
| 18> C      0.051663    4.070709   -0.323000
| 19> C     -0.529928    3.027058   -1.047702
| 20> C     -0.602624    1.748057   -0.471830
| 21> C     -1.016811    3.251717   -2.448957
| 22> C      1.464639   -0.827374    1.349735
| 23> C      1.877902   -1.903047    2.153926
| 24> C      3.128876   -2.497591    1.975928
| 25> C      3.993906   -2.022704    0.993437
| 26> C      3.618539   -0.943422    0.189035
| 27> C      2.352073   -0.362596    0.366101
| 28> C      4.531245   -0.446565   -0.893160
| 29> H     -5.358636   -0.515882   -0.616505
| 30> H     -5.341397   -1.047004    1.084025
| 31> H     -5.674233   -2.216165   -0.192926
| 32> H     -3.056961   -0.143683    1.406582
| 33> H      0.191715   -2.303227   -0.448138
| 34> H     -1.418143   -3.543984   -1.803233
| 35> H     -3.842065   -3.123362   -1.592664
| 36> H      0.824136    2.427637    2.542115
| 37> H      0.977846    4.660854    1.528874
| 38> H      0.134421    5.064229   -0.757345
| 39> H     -1.033469    0.942731   -1.062695
| 40> H     -1.882645    2.617547   -2.666720
| 41> H     -1.331653    4.290647   -2.592795
| 42> H     -0.219834    3.022336   -3.162903
| 43> H      1.221315   -2.296176    2.928245
| 44> H      3.425536   -3.333258    2.604269
| 45> H      4.962862   -2.498207    0.860634
| 46> H      2.068176    0.460239   -0.286118
| 47> H      5.580057   -0.626504   -0.634685
| 48> H      4.307110   -0.957051   -1.834794
| 49> H      4.413451    0.632640   -1.037064
| 50> **                         ****END OF INPUT****
================================================================================

                       *****************************
                       * Geometry Optimization Run *
                       *****************************

Geometry optimization settings:
Update method            Update   .... BFGS
Choice of coordinates    CoordSys .... (2022) Redundant Internals
Initial Hessian          InHess   .... Almloef's Model
Max. no of cycles        MaxIter  .... 129

Convergence Tolerances:
Energy Change            TolE     ....  5.0000e-06 Eh
Max. Gradient            TolMAXG  ....  3.0000e-04 Eh/bohr
RMS Gradient             TolRMSG  ....  1.0000e-04 Eh/bohr
Max. Displacement        TolMAXD  ....  4.0000e-03 bohr
RMS Displacement         TolRMSD  ....  2.0000e-03 bohr
Strict Convergence                .... False

------------------------------------------------------------------------------
                        ORCA OPTIMIZATION COORDINATE SETUP
------------------------------------------------------------------------------

The optimization will be done in redundant internal coordinates (2022)
Making redundant internal coordinates   ...  (2022 redundants) done
Evaluating the initial hessian          ...  (Almloef) done
Evaluating the coordinates              ...  done
Calculating the B-matrix                .... done
Calculating the G-matrix                .... done
Diagonalizing the G-matrix              .... done
Small eigenvalue found = 3.050e-03
Small eigenvalue found = 3.224e-03
Small eigenvalue found = 5.775e-03
Small eigenvalue found = 1.472e-02
Small eigenvalue found = 1.709e-02
Small eigenvalue found = 2.345e-02
The first mode is                       ....   96
The number of degrees of freedom        ....  123

    -----------------------------------------------------------------
                    Redundant Internal Coordinates


    -----------------------------------------------------------------
         Definition                    Initial Value    Approx d2E/dq
    -----------------------------------------------------------------
      1. B(C   1,C   0)                  1.4998         0.417345   
      2. B(C   2,C   1)                  1.4034         0.594694   
      3. B(C   3,C   2)                  1.4086         0.583521   
      4. B(C   4,C   3)                  1.4012         0.599509   
      5. B(C   5,C   4)                  1.3978         0.607189   
      6. B(C   6,C   5)                  1.3930         0.618044   
      7. B(C   6,C   1)                  1.3965         0.610025   
      8. B(P   7,C   3)                  1.8234         0.427317   
      9. B(C   8,P   7)                  1.8245         0.425683   
     10. B(C   9,C   8)                  1.4052         0.590851   
     11. B(C  10,C   9)                  1.3965         0.610124   
     12. B(C  11,C  10)                  1.3925         0.619143   
     13. B(C  12,C  11)                  1.3974         0.608103   
     14. B(C  13,C  12)                  1.4045         0.592280   
     15. B(C  13,C   8)                  1.4042         0.593113   
     16. B(C  14,C  12)                  1.5003         0.416568   
     17. B(C  15,P   7)                  1.8225         0.428771   
     18. B(C  16,C  15)                  1.4052         0.590869   
     19. B(C  17,C  16)                  1.3965         0.610143   
     20. B(C  18,C  17)                  1.3925         0.619063   
     21. B(C  19,C  18)                  1.3974         0.607972   
     22. B(C  20,C  19)                  1.4045         0.592365   
     23. B(C  20,C  15)                  1.4040         0.593570   
     24. B(C  21,C  19)                  1.5003         0.416567   
     25. B(H  22,C   0)                  1.0943         0.354440   
     26. B(H  23,C   0)                  1.0951         0.353454   
     27. B(H  24,C   0)                  1.0951         0.353439   
     28. B(H  25,C   2)                  1.0898         0.360392   
     29. B(H  26,C   4)                  1.0867         0.364461   
     30. B(H  27,C   5)                  1.0871         0.364017   
     31. B(H  28,C   6)                  1.0874         0.363489   
     32. B(H  29,C   9)                  1.0887         0.361838   
     33. B(H  30,C  10)                  1.0868         0.364355   
     34. B(H  31,C  11)                  1.0875         0.363465   
     35. B(H  32,C  13)                  1.0878         0.363028   
     36. B(H  33,C  14)                  1.0951         0.353406   
     37. B(H  34,C  14)                  1.0951         0.353448   
     38. B(H  35,C  14)                  1.0943         0.354448   
     39. B(H  36,C  16)                  1.0887         0.361849   
     40. B(H  37,C  17)                  1.0868         0.364343   
     41. B(H  38,C  18)                  1.0875         0.363447   
     42. B(H  39,C  20)                  1.0877         0.363184   
     43. B(H  40,C  21)                  1.0951         0.353446   
     44. B(H  41,C  21)                  1.0943         0.354448   
     45. B(H  42,C  21)                  1.0951         0.353402   
     46. A(H  22,C   0,H  24)          108.8221         0.289269   
     47. A(C   1,C   0,H  23)          110.8480         0.329279   
     48. A(C   1,C   0,H  24)          110.9681         0.329277   
     49. A(H  22,C   0,H  23)          108.9292         0.289271   
     50. A(C   1,C   0,H  22)          109.9780         0.329431   
     51. A(H  23,C   0,H  24)          107.2178         0.289143   
     52. A(C   0,C   1,C   6)          120.5723         0.403341   
     53. A(C   0,C   1,C   2)          120.3075         0.401535   
     54. A(C   2,C   1,C   6)          119.0653         0.429574   
     55. A(C   1,C   2,C   3)          121.6716         0.426167   
     56. A(C   1,C   2,H  25)          118.7446         0.350479   
     57. A(C   3,C   2,H  25)          119.5831         0.349359   
     58. A(C   4,C   3,P   7)          124.2798         0.430529   
     59. A(C   2,C   3,P   7)          117.8851         0.428446   
     60. A(C   2,C   3,C   4)          117.8329         0.426783   
     61. A(C   3,C   4,C   5)          120.9459         0.429837   
     62. A(C   3,C   4,H  26)          121.2989         0.351624   
     63. A(C   5,C   4,H  26)          117.7534         0.352381   
     64. A(C   6,C   5,H  27)          119.9569         0.353367   
     65. A(C   4,C   5,H  27)          119.7206         0.352309   
     66. A(C   4,C   5,C   6)          120.3224         0.432194   
     67. A(C   5,C   6,H  28)          119.3709         0.353280   
     68. A(C   1,C   6,C   5)          120.1487         0.432556   
     69. A(C   1,C   6,H  28)          120.4801         0.352500   
     70. A(C   8,P   7,C  15)          103.6951         0.432177   
     71. A(C   3,P   7,C  15)          104.3933         0.432475   
     72. A(C   3,P   7,C   8)          104.0545         0.431913   
     73. A(P   7,C   8,C   9)          117.8597         0.429112   
     74. A(C   9,C   8,C  13)          117.9086         0.426917   
     75. A(P   7,C   8,C  13)          124.2316         0.429406   
     76. A(C  10,C   9,H  29)          118.4941         0.352238   
     77. A(C   8,C   9,C  10)          121.1064         0.429087   
     78. A(C   8,C   9,H  29)          120.3978         0.350333   
     79. A(C  11,C  10,H  30)          120.0449         0.353529   
     80. A(C   9,C  10,H  30)          119.8692         0.352652   
     81. A(C   9,C  10,C  11)          120.0856         0.432707   
     82. A(C  10,C  11,C  12)          120.1726         0.432449   
     83. A(C  12,C  11,H  31)          120.4560         0.352308   
     84. A(C  10,C  11,H  31)          119.3714         0.353382   
     85. A(C  13,C  12,C  14)          120.1644         0.401116   
     86. A(C  11,C  12,C  14)          120.5037         0.402984   
     87. A(C  11,C  12,C  13)          119.2757         0.429018   
     88. A(C  12,C  13,H  32)          118.1608         0.350670   
     89. A(C   8,C  13,H  32)          120.3974         0.350753   
     90. A(C   8,C  13,C  12)          121.4398         0.427102   
     91. A(H  33,C  14,H  35)          108.9473         0.289266   
     92. A(H  33,C  14,H  34)          107.2157         0.289138   
     93. A(C  12,C  14,H  34)          110.9796         0.329177   
     94. A(C  12,C  14,H  33)          110.8289         0.329171   
     95. A(C  12,C  14,H  35)          109.9744         0.329331   
     96. A(H  34,C  14,H  35)          108.8179         0.289271   
     97. A(C  16,C  15,C  20)          117.9357         0.426979   
     98. A(P   7,C  15,C  20)          124.1882         0.430023   
     99. A(P   7,C  15,C  16)          117.8761         0.429671   
    100. A(C  17,C  16,H  36)          118.5019         0.352242   
    101. A(C  15,C  16,H  36)          120.4043         0.350336   
    102. A(C  15,C  16,C  17)          121.0924         0.429092   
    103. A(C  16,C  17,C  18)          120.0809         0.432699   
    104. A(C  18,C  17,H  37)          120.0380         0.353519   
    105. A(C  16,C  17,H  37)          119.8809         0.352651   
    106. A(C  17,C  18,C  19)          120.1764         0.432422   
    107. A(C  19,C  18,H  38)          120.4472         0.352292   
    108. A(C  17,C  18,H  38)          119.3763         0.353372   
    109. A(C  18,C  19,C  20)          119.2772         0.429012   
    110. A(C  20,C  19,C  21)          120.1671         0.401126   
    111. A(C  18,C  19,C  21)          120.5015         0.402969   
    112. A(C  15,C  20,C  19)          121.4257         0.427172   
    113. A(C  19,C  20,H  39)          118.2038         0.350704   
    114. A(C  15,C  20,H  39)          120.3696         0.350824   
    115. A(H  41,C  21,H  42)          108.9422         0.289265   
    116. A(H  40,C  21,H  42)          107.2154         0.289137   
    117. A(C  19,C  21,H  42)          110.8363         0.329170   
    118. A(H  40,C  21,H  41)          108.8213         0.289271   
    119. A(C  19,C  21,H  41)          109.9733         0.329331   
    120. A(C  19,C  21,H  40)          110.9752         0.329177   
    121. D(C   6,C   1,C   0,H  23)    148.6525         0.012884   
    122. D(C   2,C   1,C   0,H  24)   -153.0908         0.012884   
    123. D(C   2,C   1,C   0,H  22)     86.4484         0.012884   
    124. D(C   6,C   1,C   0,H  22)    -90.8303         0.012884   
    125. D(C   2,C   1,C   0,H  23)    -34.0688         0.012884   
    126. D(C   3,C   2,C   1,C   0)   -178.2160         0.024358   
    127. D(H  25,C   2,C   1,C   0)      1.4836         0.024358   
    128. D(H  25,C   2,C   1,C   6)    178.8031         0.024358   
    129. D(C   3,C   2,C   1,C   6)     -0.8966         0.024358   
    130. D(P   7,C   3,C   2,H  25)      0.7106         0.023407   
    131. D(C   4,C   3,C   2,H  25)   -179.8157         0.023407   
    132. D(P   7,C   3,C   2,C   1)   -179.5922         0.023407   
    133. D(C   4,C   3,C   2,C   1)     -0.1185         0.023407   
    134. D(C   5,C   4,C   3,C   2)      0.7754         0.024775   
    135. D(C   5,C   4,C   3,P   7)   -179.7876         0.024775   
    136. D(H  26,C   4,C   3,C   2)   -179.7289         0.024775   
    137. D(H  26,C   4,C   3,P   7)     -0.2919         0.024775   
    138. D(H  27,C   5,C   4,H  26)     -0.0157         0.025449   
    139. D(C   6,C   5,C   4,C   3)     -0.4128         0.025449   
    140. D(C   6,C   5,C   4,H  26)   -179.9258         0.025449   
    141. D(H  27,C   5,C   4,C   3)    179.4974         0.025449   
    142. D(H  28,C   6,C   5,H  27)     -0.3303         0.026422   
    143. D(H  28,C   6,C   5,C   4)    179.5796         0.026422   
    144. D(C   1,C   6,C   5,H  27)    179.4573         0.026422   
    145. D(C   1,C   6,C   5,C   4)     -0.6328         0.026422   
    146. D(H  28,C   6,C   1,C   2)   -178.9475         0.025701   
    147. D(H  28,C   6,C   1,C   0)     -1.6354         0.025701   
    148. D(C   5,C   6,C   1,C   2)      1.2673         0.025701   
    149. D(C   5,C   6,C   1,C   0)    178.5794         0.025701   
    150. D(C   8,P   7,C   3,C   4)    102.7161         0.003773   
    151. D(C   8,P   7,C   3,C   2)    -77.8471         0.003773   
    152. D(C  15,P   7,C   3,C   4)     -5.7180         0.003773   
    153. D(C  15,P   7,C   3,C   2)    173.7187         0.003773   
    154. D(C  13,C   8,P   7,C  15)     96.4854         0.003755   
    155. D(C  13,C   8,P   7,C   3)    -12.4650         0.003755   
    156. D(C   9,C   8,P   7,C  15)    -83.4322         0.003755   
    157. D(C   9,C   8,P   7,C   3)    167.6174         0.003755   
    158. D(H  29,C   9,C   8,C  13)   -179.8223         0.024028   
    159. D(H  29,C   9,C   8,P   7)      0.1006         0.024028   
    160. D(C  10,C   9,C   8,C  13)     -0.3115         0.024028   
    161. D(C  10,C   9,C   8,P   7)    179.6114         0.024028   
    162. D(H  30,C  10,C   9,H  29)     -0.0105         0.025710   
    163. D(H  30,C  10,C   9,C   8)   -179.5304         0.025710   
    164. D(C  11,C  10,C   9,H  29)    179.8190         0.025710   
    165. D(C  11,C  10,C   9,C   8)      0.2991         0.025710   
    166. D(H  31,C  11,C  10,H  30)      0.2325         0.026521   
    167. D(H  31,C  11,C  10,C   9)   -179.5967         0.026521   
    168. D(C  12,C  11,C  10,C   9)      0.4617         0.026521   
    169. D(C  12,C  11,C  10,H  30)   -179.7091         0.026521   
    170. D(C  14,C  12,C  11,H  31)      1.5959         0.025530   
    171. D(C  14,C  12,C  11,C  10)   -178.4631         0.025530   
    172. D(C  13,C  12,C  11,H  31)    178.8757         0.025530   
    173. D(C  13,C  12,C  11,C  10)     -1.1833         0.025530   
    174. D(H  32,C  13,C  12,C  14)     -1.0163         0.024150   
    175. D(H  32,C  13,C  12,C  11)   -178.3056         0.024150   
    176. D(C   8,C  13,C  12,C  14)    178.4685         0.024150   
    177. D(C   8,C  13,C  12,C  11)      1.1793         0.024150   
    178. D(H  32,C  13,C   8,C   9)    179.0410         0.024222   
    179. D(H  32,C  13,C   8,P   7)     -0.8765         0.024222   
    180. D(C  12,C  13,C   8,C   9)     -0.4324         0.024222   
    181. D(C  12,C  13,C   8,P   7)    179.6501         0.024222   
    182. D(H  33,C  14,C  12,C  13)     34.5711         0.012838   
    183. D(H  33,C  14,C  12,C  11)   -148.1733         0.012838   
    184. D(H  35,C  14,C  12,C  11)     91.3017         0.012838   
    185. D(H  34,C  14,C  12,C  13)    153.5855         0.012838   
    186. D(H  34,C  14,C  12,C  11)    -29.1589         0.012838   
    187. D(C  20,C  15,P   7,C   8)    -17.3585         0.003789   
    188. D(C  20,C  15,P   7,C   3)     91.3400         0.003789   
    189. D(C  16,C  15,P   7,C   8)    162.6793         0.003789   
    190. D(C  16,C  15,P   7,C   3)    -88.6223         0.003789   
    191. D(H  36,C  16,C  15,C  20)   -179.9374         0.024029   
    192. D(H  36,C  16,C  15,P   7)      0.0272         0.024029   
    193. D(C  17,C  16,C  15,C  20)     -0.3863         0.024029   
    194. D(C  17,C  16,C  15,P   7)    179.5784         0.024029   
    195. D(H  37,C  17,C  16,H  36)      0.0079         0.025712   
    196. D(H  37,C  17,C  16,C  15)   -179.5515         0.025712   
    197. D(C  18,C  17,C  16,H  36)    179.8770         0.025712   
    198. D(C  18,C  17,C  16,C  15)      0.3175         0.025712   
    199. D(H  38,C  18,C  17,H  37)      0.2462         0.026514   
    200. D(H  38,C  18,C  17,C  16)   -179.6227         0.026514   
    201. D(C  19,C  18,C  17,H  37)   -179.6304         0.026514   
    202. D(C  19,C  18,C  17,C  16)      0.5007         0.026514   
    203. D(C  21,C  19,C  18,H  38)      1.5772         0.025519   
    204. D(C  21,C  19,C  18,C  17)   -178.5475         0.025519   
    205. D(C  20,C  19,C  18,H  38)    178.9037         0.025519   
    206. D(C  20,C  19,C  18,C  17)     -1.2210         0.025519   
    207. D(H  39,C  20,C  19,C  21)     -1.1543         0.024157   
    208. D(H  39,C  20,C  19,C  18)   -178.4899         0.024157   
    209. D(C  15,C  20,C  19,C  21)    178.4936         0.024157   
    210. D(C  15,C  20,C  19,C  18)      1.1580         0.024157   
    211. D(H  39,C  20,C  15,C  16)    179.2842         0.024261   
    212. D(H  39,C  20,C  15,P   7)     -0.6781         0.024261   
    213. D(C  19,C  20,C  15,C  16)     -0.3561         0.024261   
    214. D(C  19,C  20,C  15,P   7)    179.6816         0.024261   
    215. D(H  42,C  21,C  19,C  18)   -148.2974         0.012838   
    216. D(H  41,C  21,C  19,C  20)    -86.1227         0.012838   
    217. D(H  41,C  21,C  19,C  18)     91.1799         0.012838   
    218. D(H  40,C  21,C  19,C  20)    153.4160         0.012838   
    219. D(H  40,C  21,C  19,C  18)    -29.2813         0.012838   
    -----------------------------------------------------------------

Number of atoms                         .... 43
Number of degrees of freedom            .... 219


         *************************************************************
         *                GEOMETRY OPTIMIZATION CYCLE   1            *
         *************************************************************
---------------------------------
CARTESIAN COORDINATES (ANGSTROEM)
---------------------------------
  C     -5.080952   -1.330850    0.058949
  C     -3.613376   -1.616821   -0.059218
  C     -2.687013   -0.894718    0.708940
  C     -1.300318   -1.113791    0.593832
  C     -0.864858   -2.085351   -0.317177
  C     -1.778426   -2.800439   -1.096815
  C     -3.145457   -2.563036   -0.973536
  P     -0.190215   -0.125440    1.650084
  C     -0.125782    1.500785    0.825537
  C      0.439151    2.574536    1.534419
  C      0.530175    3.846526    0.965314
  C      0.051663    4.070709   -0.323000
  C     -0.529928    3.027058   -1.047702
  C     -0.602624    1.748057   -0.471830
  C     -1.016811    3.251717   -2.448957
  C      1.464639   -0.827374    1.349735
  C      1.877902   -1.903047    2.153926
  C      3.128876   -2.497591    1.975928
  C      3.993906   -2.022704    0.993437
  C      3.618539   -0.943422    0.189035
  C      2.352073   -0.362596    0.366101
  C      4.531245   -0.446565   -0.893160
  H     -5.358636   -0.515882   -0.616505
  H     -5.341397   -1.047004    1.084025
  H     -5.674233   -2.216165   -0.192926
  H     -3.056961   -0.143683    1.406582
  H      0.191715   -2.303227   -0.448138
  H     -1.418143   -3.543984   -1.803233
  H     -3.842065   -3.123362   -1.592664
  H      0.824136    2.427637    2.542115
  H      0.977846    4.660854    1.528874
  H      0.134421    5.064229   -0.757345
  H     -1.033469    0.942731   -1.062695
  H     -1.882645    2.617547   -2.666720
  H     -1.331653    4.290647   -2.592795
  H     -0.219834    3.022336   -3.162903
  H      1.221315   -2.296176    2.928245
  H      3.425536   -3.333258    2.604269
  H      4.962862   -2.498207    0.860634
  H      2.068176    0.460239   -0.286118
  H      5.580057   -0.626504   -0.634685
  H      4.307110   -0.957051   -1.834794
  H      4.413451    0.632640   -1.037064

----------------------------
CARTESIAN COORDINATES (A.U.)
----------------------------
  NO LB      ZA    FRAG     MASS         X           Y           Z
   0 C     6.0000    0    12.011   -9.601608   -2.514942    0.111397
   1 C     6.0000    0    12.011   -6.828291   -3.055349   -0.111906
   2 C     6.0000    0    12.011   -5.077719   -1.690772    1.339702
   3 C     6.0000    0    12.011   -2.457245   -2.104760    1.122180
   4 C     6.0000    0    12.011   -1.634345   -3.940742   -0.599378
   5 C     6.0000    0    12.011   -3.360738   -5.292063   -2.072680
   6 C     6.0000    0    12.011   -5.944052   -4.843436   -1.839716
   7 P    15.0000    0    30.974   -0.359454   -0.237047    3.118207
   8 C     6.0000    0    12.011   -0.237694    2.836073    1.560039
   9 C     6.0000    0    12.011    0.829875    4.865168    2.899632
  10 C     6.0000    0    12.011    1.001886    7.268881    1.824179
  11 C     6.0000    0    12.011    0.097629    7.692525   -0.610382
  12 C     6.0000    0    12.011   -1.001419    5.720311   -1.979870
  13 C     6.0000    0    12.011   -1.138794    3.303349   -0.891629
  14 C     6.0000    0    12.011   -1.921494    6.144855   -4.627858
  15 C     6.0000    0    12.011    2.767767   -1.563510    2.550630
  16 C     6.0000    0    12.011    3.548720   -3.596238    4.070330
  17 C     6.0000    0    12.011    5.912719   -4.719763    3.733963
  18 C     6.0000    0    12.011    7.547389   -3.822357    1.877324
  19 C     6.0000    0    12.011    6.838048   -1.782809    0.357224
  20 C     6.0000    0    12.011    4.444774   -0.685207    0.691831
  21 C     6.0000    0    12.011    8.562812   -0.843886   -1.687828
  22 H     1.0000    0     1.008  -10.126354   -0.974876   -1.165026
  23 H     1.0000    0     1.008  -10.093778   -1.978551    2.048510
  24 H     1.0000    0     1.008  -10.722746   -4.187945   -0.364577
  25 H     1.0000    0     1.008   -5.776819   -0.271522    2.658055
  26 H     1.0000    0     1.008    0.362289   -4.352468   -0.846858
  27 H     1.0000    0     1.008   -2.679902   -6.697159   -3.407617
  28 H     1.0000    0     1.008   -7.260451   -5.902299   -3.009699
  29 H     1.0000    0     1.008    1.557391    4.587569    4.803901
  30 H     1.0000    0     1.008    1.847861    8.807738    2.889153
  31 H     1.0000    0     1.008    0.254019    9.570006   -1.431175
  32 H     1.0000    0     1.008   -1.952973    1.781503   -2.008203
  33 H     1.0000    0     1.008   -3.557683    4.946447   -5.039370
  34 H     1.0000    0     1.008   -2.516459    8.108148   -4.899672
  35 H     1.0000    0     1.008   -0.415426    5.711387   -5.977020
  36 H     1.0000    0     1.008    2.307951   -4.339144    5.533581
  37 H     1.0000    0     1.008    6.473325   -6.298945    4.921355
  38 H     1.0000    0     1.008    9.378450   -4.720927    1.626363
  39 H     1.0000    0     1.008    3.908286    0.869726   -0.540685
  40 H     1.0000    0     1.008   10.544780   -1.183921   -1.199381
  41 H     1.0000    0     1.008    8.139258   -1.808564   -3.467258
  42 H     1.0000    0     1.008    8.340214    1.195516   -1.959767

--------------------------------
INTERNAL COORDINATES (ANGSTROEM)
--------------------------------
 C      0   0   0     0.000000000000     0.00000000     0.00000000
 C      1   0   0     1.499840714378     0.00000000     0.00000000
 C      2   1   0     1.403441435665   120.30747170     0.00000000
 C      3   2   1     1.408604221923   121.67162938   181.78397194
 C      4   3   2     1.401246460578   117.83290134   359.88147275
 C      5   4   3     1.397781366814   120.94587552     0.77540086
 C      6   5   4     1.392957878477   120.32242739   359.58723541
 P      4   3   2     1.823412914650   117.88505462   180.40778940
 C      8   4   3     1.824455293320   104.05447849   282.15285660
 C      9   8   4     1.405206103892   117.85970230   167.61743243
 C     10   9   8     1.396468556646   121.10640579   179.61140891
 C     11  10   9     1.392474313669   120.08560839     0.29907482
 C     12  11  10     1.397371994097   120.17256601     0.46173683
 C      9   8   4     1.404166253560   124.23161005   347.53499053
 C     13  12  11     1.500347392105   120.50371935   181.53686324
 C      8   4   3     1.822488031092   104.39330052   173.71868080
 C     16   8   4     1.405198162032   117.87608886   271.37771150
 C     17  16   8     1.396460455801   121.09238119   179.57836574
 C     18  17  16     1.392509651223   120.08093577     0.31754115
 C     19  18  17     1.397430713065   120.17637695     0.50070527
 C     16   8   4     1.403956388068   124.18821017    91.33997345
 C     20  19  18     1.500348339190   120.50150088   181.45254282
 H      1   2   3     1.094312273072   109.97799324    86.44835455
 H      1   2   3     1.095071210249   110.84797973   325.93121475
 H      1   2   3     1.095082649763   110.96809091   206.90919382
 H      3   2   1     1.089779543804   118.74459309     1.48363302
 H      5   4   3     1.086723165864   121.29889828   180.27107184
 H      6   5   4     1.087055379380   119.72061890   179.49739437
 H      7   6   5     1.087449958538   119.37086861   179.57961576
 H     10   9   8     1.088689117628   120.39775913     0.10060186
 H     11  10   9     1.086802323068   119.86924047   180.46963020
 H     12  11  10     1.087467910326   119.37138161   180.40334670
 H     14   9   8     1.087795398283   120.39739638   359.12347434
 H     15  13  12     1.095107679009   110.82886458   211.82670068
 H     15  13  12     1.095075522559   110.97959217   330.84113811
 H     15  13  12     1.094306571581   109.97441428    91.30174318
 H     17  16   8     1.088681226517   120.40427938     0.02723115
 H     18  17  16     1.086811346449   119.88092383   180.44847095
 H     19  18  17     1.087481250300   119.37629938   180.37733897
 H     21  16   8     1.087678522264   120.36955623   359.32191895
 H     22  20  19     1.095077157414   110.97516800   330.71867943
 H     22  20  19     1.094306650065   109.97329913    91.17994154
 H     22  20  19     1.095110597007   110.83633356   211.70261970

---------------------------
INTERNAL COORDINATES (A.U.)
---------------------------
 C      0   0   0     0.000000000000     0.00000000     0.00000000
 C      1   0   0     2.834288194679     0.00000000     0.00000000
 C      2   1   0     2.652119958404   120.30747170     0.00000000
 C      3   2   1     2.661876210519   121.67162938   181.78397194
 C      4   3   2     2.647972056618   117.83290134   359.88147275
 C      5   4   3     2.641423978376   120.94587552     0.77540086
 C      6   5   4     2.632308906409   120.32242739   359.58723541
 P      4   3   2     3.445751037744   117.88505462   180.40778940
 C      8   4   3     3.447720847958   104.05447849   282.15285660
 C      9   8   4     2.655454698069   117.85970230   167.61743243
 C     10   9   8     2.638943126693   121.10640579   179.61140891
 C     11  10   9     2.631395101355   120.08560839     0.29907482
 C     12  11  10     2.640650376054   120.17256601     0.46173683
 C      9   8   4     2.653489665723   124.23161005   347.53499053
 C     13  12  11     2.835245676821   120.50371935   181.53686324
 C      8   4   3     3.444003261113   104.39330052   173.71868080
 C     16   8   4     2.655439690131   117.87608886   271.37771150
 C     17  16   8     2.638927818315   121.09238119   179.57836574
 C     18  17  16     2.631461879654   120.08093577     0.31754115
 C     19  18  17     2.640761338823   120.17637695     0.50070527
 C     16   8   4     2.653093077417   124.18821017    91.33997345
 C     20  19  18     2.835247466553   120.50150088   181.45254282
 H      1   2   3     2.067950501095   109.97799324    86.44835455
 H      1   2   3     2.069384684513   110.84797973   325.93121475
 H      1   2   3     2.069406302060   110.96809091   206.90919382
 H      3   2   1     2.059384884139   118.74459309     1.48363302
 H      5   4   3     2.053609166871   121.29889828   180.27107184
 H      6   5   4     2.054236959433   119.72061890   179.49739437
 H      7   6   5     2.054982605981   119.37086861   179.57961576
 H     10   9   8     2.057324277298   120.39775913     0.10060186
 H     11  10   9     2.053758752307   119.86924047   180.46963020
 H     12  11  10     2.055016529944   119.37138161   180.40334670
 H     14   9   8     2.055635392495   120.39739638   359.12347434
 H     15  13  12     2.069453600482   110.82886458   211.82670068
 H     15  13  12     2.069392833597   110.97959217   330.84113811
 H     15  13  12     2.067939726839   109.97441428    91.30174318
 H     17  16   8     2.057309365259   120.40427938     0.02723115
 H     18  17  16     2.053775804027   119.88092383   180.44847095
 H     19  18  17     2.055041738841   119.37629938   180.37733897
 H     21  16   8     2.055414528828   120.36955623   359.32191895
 H     22  20  19     2.069395923025   110.97516800   330.71867943
 H     22  20  19     2.067939875152   109.97329913    91.17994154
 H     22  20  19     2.069459114698   110.83633356   211.70261970

---------------------
BASIS SET INFORMATION
---------------------
There are 3 groups of distinct atoms

 Group   1 Type C   : 7s4p1d contracted to 3s2p1d pattern {511/31/1}
 Group   2 Type P   : 10s7p1d contracted to 4s3p1d pattern {5311/511/1}
 Group   3 Type H   : 4s1p contracted to 2s1p pattern {31/1}

Atom   0C    basis set group =>   1
Atom   1C    basis set group =>   1
Atom   2C    basis set group =>   1
Atom   3C    basis set group =>   1
Atom   4C    basis set group =>   1
Atom   5C    basis set group =>   1
Atom   6C    basis set group =>   1
Atom   7P    basis set group =>   2
Atom   8C    basis set group =>   1
Atom   9C    basis set group =>   1
Atom  10C    basis set group =>   1
Atom  11C    basis set group =>   1
Atom  12C    basis set group =>   1
Atom  13C    basis set group =>   1
Atom  14C    basis set group =>   1
Atom  15C    basis set group =>   1
Atom  16C    basis set group =>   1
Atom  17C    basis set group =>   1
Atom  18C    basis set group =>   1
Atom  19C    basis set group =>   1
Atom  20C    basis set group =>   1
Atom  21C    basis set group =>   1
Atom  22H    basis set group =>   3
Atom  23H    basis set group =>   3
Atom  24H    basis set group =>   3
Atom  25H    basis set group =>   3
Atom  26H    basis set group =>   3
Atom  27H    basis set group =>   3
Atom  28H    basis set group =>   3
Atom  29H    basis set group =>   3
Atom  30H    basis set group =>   3
Atom  31H    basis set group =>   3
Atom  32H    basis set group =>   3
Atom  33H    basis set group =>   3
Atom  34H    basis set group =>   3
Atom  35H    basis set group =>   3
Atom  36H    basis set group =>   3
Atom  37H    basis set group =>   3
Atom  38H    basis set group =>   3
Atom  39H    basis set group =>   3
Atom  40H    basis set group =>   3
Atom  41H    basis set group =>   3
Atom  42H    basis set group =>   3
---------------------------------
AUXILIARY/J BASIS SET INFORMATION
---------------------------------
There are 3 groups of distinct atoms

 Group   1 Type C   : 12s5p4d2f1g contracted to 6s4p3d1f1g pattern {711111/2111/211/2/1}
 Group   2 Type P   : 14s5p5d2f1g contracted to 8s4p3d1f1g pattern {71111111/2111/311/2/1}
 Group   3 Type H   : 5s2p1d contracted to 3s1p1d pattern {311/2/1}

Atom   0C    basis set group =>   1
Atom   1C    basis set group =>   1
Atom   2C    basis set group =>   1
Atom   3C    basis set group =>   1
Atom   4C    basis set group =>   1
Atom   5C    basis set group =>   1
Atom   6C    basis set group =>   1
Atom   7P    basis set group =>   2
Atom   8C    basis set group =>   1
Atom   9C    basis set group =>   1
Atom  10C    basis set group =>   1
Atom  11C    basis set group =>   1
Atom  12C    basis set group =>   1
Atom  13C    basis set group =>   1
Atom  14C    basis set group =>   1
Atom  15C    basis set group =>   1
Atom  16C    basis set group =>   1
Atom  17C    basis set group =>   1
Atom  18C    basis set group =>   1
Atom  19C    basis set group =>   1
Atom  20C    basis set group =>   1
Atom  21C    basis set group =>   1
Atom  22H    basis set group =>   3
Atom  23H    basis set group =>   3
Atom  24H    basis set group =>   3
Atom  25H    basis set group =>   3
Atom  26H    basis set group =>   3
Atom  27H    basis set group =>   3
Atom  28H    basis set group =>   3
Atom  29H    basis set group =>   3
Atom  30H    basis set group =>   3
Atom  31H    basis set group =>   3
Atom  32H    basis set group =>   3
Atom  33H    basis set group =>   3
Atom  34H    basis set group =>   3
Atom  35H    basis set group =>   3
Atom  36H    basis set group =>   3
Atom  37H    basis set group =>   3
Atom  38H    basis set group =>   3
Atom  39H    basis set group =>   3
Atom  40H    basis set group =>   3
Atom  41H    basis set group =>   3
Atom  42H    basis set group =>   3


           ************************************************************
           *        Program running with 6 parallel MPI-processes     *
           *              working on a common directory               *
           ************************************************************
------------------------------------------------------------------------------
                             ORCA STARTUP CALCULATIONS
                           -- RI-GTO INTEGRALS CHOSEN --
------------------------------------------------------------------------------
------------------------------------------------------------------------------
                   ___                                                        
                  /   \      - P O W E R E D   B Y -                         
                 /     \                                                     
                 |  |  |   _    _      __       _____    __    __             
                 |  |  |  | |  | |    /  \     |  _  \  |  |  /  |          
                  \  \/   | |  | |   /    \    | | | |  |  | /  /          
                 / \  \   | |__| |  /  /\  \   | |_| |  |  |/  /          
                |  |  |   |  __  | /  /__\  \  |    /   |      \           
                |  |  |   | |  | | |   __   |  |    \   |  |\   \          
                \     /   | |  | | |  |  |  |  | |\  \  |  | \   \       
                 \___/    |_|  |_| |__|  |__|  |_| \__\ |__|  \__/        
                                                                              
                      - O R C A' S   B I G   F R I E N D -                    
                                      &                                       
                       - I N T E G R A L  F E E D E R -                       
                                                                              
 v1 FN, 2020, v2 2021, v3 2022-2024                                           
------------------------------------------------------------------------------


----------------------
SHARK INTEGRAL PACKAGE
----------------------

Number of atoms                             ...     43
Number of basis functions                   ...    417
Number of shells                            ...    197
Maximum angular momentum                    ...      2
Integral batch strategy                     ... SHARK/LIBINT Hybrid
RI-J (if used) integral strategy            ... SPLIT-RIJ (Revised 2003 algorithm where possible)
Printlevel                                  ...      1
Contraction scheme used                     ... SEGMENTED contraction
Prescreening option                         ... SCHWARTZ
   Thresh                                   ... 2.500e-11
   Tcut                                     ... 2.500e-12
   Tpresel                                  ... 2.500e-12 
Coulomb Range Separation                    ... NOT USED
Exchange Range Separation                   ... NOT USED
Multipole approximations                    ... NOT USED
Finite Nucleus Model                        ... NOT USED
CABS basis                                  ... NOT available
Auxiliary Coulomb fitting basis             ... AVAILABLE
   # of basis functions in Aux-J            ...   1311
   # of shells in Aux-J                     ...    437
   Maximum angular momentum in Aux-J        ...      4
Auxiliary J/K fitting basis                 ... NOT available
Auxiliary Correlation fitting basis         ... NOT available
Auxiliary 'external' fitting basis          ... NOT available

Checking pre-screening integrals            ... done (  0.0 sec) Dimension = 197
Check shell pair data                       ... done (  0.0 sec)
Shell pair information
Shell pair cut-off parameter TPreSel        ...   2.5e-12
Total number of shell pairs                 ...     19503
Shell pairs after pre-screening             ...     14320
Total number of primitive shell pairs       ...     70859
Primitive shell pairs kept                  ...     32999
          la=0 lb=0:   4567 shell pairs
          la=1 lb=0:   5408 shell pairs
          la=1 lb=1:   1624 shell pairs
          la=2 lb=0:   1623 shell pairs
          la=2 lb=1:    958 shell pairs
          la=2 lb=2:    140 shell pairs

Calculating one electron integrals          ... done (  0.0 sec)
Calculating RI/J V-Matrix + Cholesky decomp.... done (  0.1 sec)
Calculating Nuclear repulsion               ... done (  0.0 sec) ENN=   1801.422302701275 Eh

Diagonalization of the overlap matrix:
Smallest eigenvalue                        ... 2.526e-04
Time for diagonalization                   ...    0.024 sec
Threshold for overlap eigenvalues          ... 1.000e-07
Number of eigenvalues below threshold      ... 0
Time for construction of square roots      ...    0.013 sec
Total time needed                          ...    0.039 sec

-------------------
DFT GRID GENERATION
-------------------

General Integration Accuracy     IntAcc      ... 4.388
Radial Grid Type                 RadialGrid  ... OptM3 with GC (2021)
Angular Grid (max. ang.)         AngularGrid ... 4 (Lebedev-302)
Angular grid pruning method      GridPruning ... 4 (adaptive)
Weight generation scheme         WeightScheme... mBecke (2022)
Basis function cutoff            BFCut       ... 1.0000e-11
Integration weight cutoff        WCut        ... 1.0000e-14
Partially contracted basis set               ... off
Rotationally invariant grid construction     ... off
Angular grids for H and He will be reduced by one unit

Total number of grid points                  ...   199491
Total number of batches                      ...     3138
Average number of points per batch           ...       63
Average number of grid points per atom       ...     4639
Initializing property integral containers    ... done (  0.0 sec)

SHARK setup successfully completed in   1.5 seconds

Maximum memory used throughout the entire STARTUP-calculation: 53.8 MB


           ************************************************************
           *        Program running with 6 parallel MPI-processes     *
           *              working on a common directory               *
           ************************************************************
-------------------------------------------------------------------------------
                                 ORCA GUESS
                   Start orbitals & Density for SCF / CASSCF
-------------------------------------------------------------------------------

------------
SCF SETTINGS
------------
Hamiltonian:
 Density Functional     Method          .... DFT(GTOs)
 Exchange Functional    Exchange        .... B88
   X-Alpha parameter    XAlpha          ....  0.666667
   Becke's b parameter  XBeta           ....  0.004200
 Correlation Functional Correlation     .... LYP
 LDA part of GGA corr.  LDAOpt          .... VWN-5
 Gradients option       PostSCFGGA      .... off
 Hybrid DFT is turned on
   Fraction HF Exchange ScalHFX         ....  0.200000
   Scaling of DF-GGA-X  ScalDFX         ....  0.720000
   Scaling of DF-GGA-C  ScalDFC         ....  0.810000
   Scaling of DF-LDA-C  ScalLDAC        ....  1.000000
   Perturbative correction              ....  0.000000
   NL short-range parameter             ....  4.800000
 RI-approximation to the Coulomb term is turned on
   Number of AuxJ basis functions       .... 1311
   RIJ-ON(X) (HFX calculated with O(N)) .... on


General Settings:
 Integral files         IntName         .... data/geom_opt/80362/80362
 Hartree-Fock type      HFTyp           .... RHF
 Total Charge           Charge          ....    0
 Multiplicity           Mult            ....    1
 Number of Electrons    NEL             ....  162
 Basis Dimension        Dim             ....  417
 Nuclear Repulsion      ENuc            ....   1801.4223027013 Eh

Convergence Acceleration:
 AO-DIIS                CNVDIIS         .... on
   Start iteration      DIISMaxIt       ....    12
   Startup error        DIISStart       ....  0.200000
   # of expansion vecs  DIISMaxEq       ....     5
   Bias factor          DIISBfac        ....   1.050
   Max. coefficient     DIISMaxC        ....  10.000
 MO-DIIS                CNVKDIIS        .... off
 Trust-Rad. Augm. Hess. CNVTRAH         .... auto
   Auto Start mean grad. ratio tolernc. ....  1.125000
   Auto Start start iteration           ....    50
   Auto Start num. interpolation iter.  ....    10
   Max. Number of Micro iterations      ....    24
   Max. Number of Macro iterations      .... Maxiter - #DIIS iter
   Number of Davidson start vectors     ....     2
   Converg. threshold    (grad. norm)   ....   1.000e-05
   Grad. Scal. Fac. for Micro threshold ....   0.100
   Minimum threshold for Micro iter.    ....   1.000e-02
   NR start threshold (gradient norm)   ....   1.000e-04
   Initial trust radius                 ....   0.400
   Minimum AH scaling param. (alpha)    ....   1.000
   Maximum AH scaling param. (alpha)    .... 1000.000
   Quad. conv. algorithm                .... NR
   White noise on init. David. guess    .... on
   Maximum white noise                  ....   0.010
   Pseudo random numbers                .... off
   Inactive MOs                         .... canonical
   Orbital update algorithm             .... Taylor
   Preconditioner                       .... Diag
   Full preconditioner red. dimension   ....   250
   COSX micro iterations for RIJONX calc.... off
 SOSCF                  CNVSOSCF        .... on
   Start iteration      SOSCFMaxIt      ....   150
   Startup grad/error   SOSCFStart      ....  0.003300
   Hessian update       SOSCFHessUp     .... L-BFGS
 Level Shifting         CNVShift        .... on
   Level shift para.    LevelShift      ....    0.2500
   Turn off err/grad.   ShiftErr        ....    0.0010
 Zerner damping         CNVZerner       .... off
 Static damping         CNVDamp         .... on
   Fraction old density DampFac         ....    0.7000
   Max. Damping (<1)    DampMax         ....    0.9800
   Min. Damping (>=0)   DampMin         ....    0.0000
   Turn off err/grad.   DampErr         ....    0.1000

SCF Procedure:
 Maximum # iterations   MaxIter         ....   125
 SCF integral mode      SCFMode         .... Direct
   Integral package                     .... SHARK and LIBINT hybrid scheme
 Reset frequency        DirectResetFreq ....    20
 Integral Threshold     Thresh          ....  2.500e-11 Eh
 Primitive CutOff       TCut            ....  2.500e-12 Eh

Convergence Tolerance:
 Convergence Check Mode ConvCheckMode   .... Total+1el-Energy
 Convergence forced     ConvForced      .... 0
 Energy Change          TolE            ....  1.000e-08 Eh
 1-El. energy change                    ....  1.000e-05 Eh
 Orbital Gradient       TolG            ....  1.000e-05
 Orbital Rotation angle TolX            ....  1.000e-05
 DIIS Error             TolErr          ....  5.000e-07

------------------------------
INITIAL GUESS: MODEL POTENTIAL
------------------------------
Loading Hartree-Fock densities                     ... done
Calculating cut-offs                               ... done
Initializing the effective Hamiltonian             ... done
Setting up the integral package (SHARK)            ... done
Starting the Coulomb interaction                   ... done (   0.2 sec)
Making the grid                                    ... done (   0.4 sec)
Mapping shells                                     ... done
Starting the XC term evaluation                    ... done (   0.2 sec)
  promolecular density results
     # of electrons  =    161.976971703
     EX              =   -136.843626490
     EC              =     -5.486609053
     EX+EC           =   -142.330235543
Transforming the Hamiltonian                       ... done (   0.0 sec)
Diagonalizing the Hamiltonian                      ... done (   0.0 sec)
Back transforming the eigenvectors                 ... done (   0.0 sec)
Now organizing SCF variables                       ... done
                      ------------------
                      INITIAL GUESS DONE (   0.8 sec)
                      ------------------
             **** ENERGY FILE WAS UPDATED (data/geom_opt/80362/80362.en.tmp) ****
Finished Guess after   1.0 sec
Maximum memory used throughout the entire GUESS-calculation: 30.6 MB


           ************************************************************
           *        Program running with 6 parallel MPI-processes     *
           *              working on a common directory               *
           ************************************************************

-------------------------------------------------------------------------------------------
                                      ORCA LEAN-SCF
                              memory conserving SCF solver
-------------------------------------------------------------------------------------------

----------------------------------------D-I-I-S--------------------------------------------
Iteration    Energy (Eh)           Delta-E    RMSDP     MaxDP     DIISErr   Damp  Time(sec)
-------------------------------------------------------------------------------------------
               ***  Starting incremental Fock matrix formation  ***
    1    -1152.4833602177102421     0.00e+00  2.28e-03  7.62e-02  1.65e-01  0.700   6.5
    2    -1152.7061901396289159    -2.23e-01  1.62e-03  5.67e-02  8.91e-02  0.700   5.9
                               ***Turning on AO-DIIS***
    3    -1152.8040079333370613    -9.78e-02  7.40e-04  3.60e-02  3.63e-02  0.700   5.5
    4    -1152.8601400250711322    -5.61e-02  1.43e-03  8.04e-02  1.89e-02  0.000   5.2
    5    -1152.9796259962374734    -1.19e-01  2.10e-04  1.33e-02  5.08e-03  0.000   5.5
                              *** Initializing SOSCF ***
---------------------------------------S-O-S-C-F--------------------------------------
Iteration    Energy (Eh)           Delta-E    RMSDP     MaxDP     MaxGrad    Time(sec)
--------------------------------------------------------------------------------------
    6    -1152.9803059933835812    -6.80e-04  7.62e-05  3.72e-03  1.25e-03     4.9
               *** Restarting incremental Fock matrix formation ***
    7    -1152.9803592244804804    -5.32e-05  5.20e-05  1.54e-03  2.65e-04     6.5
    8    -1152.9803526173066075     6.61e-06  2.48e-05  7.26e-04  4.68e-04     4.2
    9    -1152.9803658065313812    -1.32e-05  1.34e-05  6.73e-04  7.89e-05     4.0
   10    -1152.9803653719325212     4.35e-07  6.81e-06  2.05e-04  7.03e-05     3.7
   11    -1152.9803664730673063    -1.10e-06  3.17e-06  2.11e-04  2.31e-05     3.4
   12    -1152.9803664216790366     5.14e-08  2.01e-06  1.17e-04  3.72e-05     3.2
   13    -1152.9803664994785777    -7.78e-08  3.75e-07  3.18e-05  1.86e-06     3.0
                  *** Gradient check signals convergence ***

               *****************************************************
               *                     SUCCESS                       *
               *           SCF CONVERGED AFTER  13 CYCLES          *
               *****************************************************

             **** ENERGY FILE WAS UPDATED (data/geom_opt/80362/80362.en.tmp) ****

----------------
TOTAL SCF ENERGY
----------------

Total Energy       :      -1152.98036649947858 Eh          -31374.19081 eV

Components:
Nuclear Repulsion  :       1801.42230270127516 Eh           49019.19294 eV
Electronic Energy  :      -2954.40266920075373 Eh          -80393.38375 eV
One Electron Energy:      -5148.95905217752897 Eh         -140110.29888 eV
Two Electron Energy:       2194.55638297677524 Eh           59716.91513 eV

Virial components:
Potential Energy   :      -2296.28203008889705 Eh          -62485.01072 eV
Kinetic Energy     :       1143.30166358941847 Eh           31110.81991 eV
Virial Ratio       :          2.00846557231420

DFT components:
N(Alpha)           :       81.000143090054 electrons
N(Beta)            :       81.000143090054 electrons
N(Total)           :      162.000286180109 electrons
E(X)               :     -110.161453316156 Eh       
E(C)               :       -6.472783520526 Eh       
E(XC)              :     -116.634236836682 Eh       

---------------
SCF CONVERGENCE
---------------

  Last Energy change         ...    7.7800e-08  Tolerance :   1.0000e-08
  Last MAX-Density change    ...    3.1769e-05  Tolerance :   1.0000e-07
  Last RMS-Density change    ...    3.7450e-07  Tolerance :   5.0000e-09
  Last DIIS Error            ...    1.2481e-03  Tolerance :   5.0000e-07
  Last Orbital Gradient      ...    1.8623e-06  Tolerance :   1.0000e-05
  Last Orbital Rotation      ...    4.4779e-06  Tolerance :   1.0000e-05


----------------
ORBITAL ENERGIES
----------------

  NO   OCC          E(Eh)            E(eV) 
   0   2.0000     -77.042679     -2096.4379 
   1   2.0000     -10.190581      -277.2998 
   2   2.0000     -10.190527      -277.2983 
   3   2.0000     -10.190493      -277.2974 
   4   2.0000     -10.187231      -277.2087 
   5   2.0000     -10.187175      -277.2071 
   6   2.0000     -10.186966      -277.2014 
   7   2.0000     -10.184840      -277.1436 
   8   2.0000     -10.184728      -277.1405 
   9   2.0000     -10.184335      -277.1298 
  10   2.0000     -10.184024      -277.1214 
  11   2.0000     -10.183856      -277.1168 
  12   2.0000     -10.183712      -277.1129 
  13   2.0000     -10.182885      -277.0904 
  14   2.0000     -10.182780      -277.0875 
  15   2.0000     -10.182507      -277.0801 
  16   2.0000     -10.182374      -277.0765 
  17   2.0000     -10.182004      -277.0664 
  18   2.0000     -10.181649      -277.0568 
  19   2.0000     -10.181645      -277.0567 
  20   2.0000     -10.181426      -277.0507 
  21   2.0000     -10.181322      -277.0478 
  22   2.0000      -6.539342      -177.9445 
  23   2.0000      -4.704801      -128.0241 
  24   2.0000      -4.704743      -128.0226 
  25   2.0000      -4.701808      -127.9427 
  26   2.0000      -0.851395       -23.1676 
  27   2.0000      -0.844652       -22.9842 
  28   2.0000      -0.844291       -22.9743 
  29   2.0000      -0.774471       -21.0744 
  30   2.0000      -0.762012       -20.7354 
  31   2.0000      -0.760434       -20.6925 
  32   2.0000      -0.748888       -20.3783 
  33   2.0000      -0.732457       -19.9312 
  34   2.0000      -0.729664       -19.8552 
  35   2.0000      -0.675752       -18.3881 
  36   2.0000      -0.674747       -18.3608 
  37   2.0000      -0.673662       -18.3313 
  38   2.0000      -0.642984       -17.4965 
  39   2.0000      -0.597857       -16.2685 
  40   2.0000      -0.593471       -16.1492 
  41   2.0000      -0.585209       -15.9243 
  42   2.0000      -0.574479       -15.6324 
  43   2.0000      -0.567562       -15.4441 
  44   2.0000      -0.534022       -14.5315 
  45   2.0000      -0.502949       -13.6859 
  46   2.0000      -0.501751       -13.6533 
  47   2.0000      -0.487048       -13.2533 
  48   2.0000      -0.462880       -12.5956 
  49   2.0000      -0.462549       -12.5866 
  50   2.0000      -0.461704       -12.5636 
  51   2.0000      -0.439255       -11.9527 
  52   2.0000      -0.437092       -11.8939 
  53   2.0000      -0.429622       -11.6906 
  54   2.0000      -0.422608       -11.4997 
  55   2.0000      -0.422312       -11.4917 
  56   2.0000      -0.421993       -11.4830 
  57   2.0000      -0.407710       -11.0944 
  58   2.0000      -0.405157       -11.0249 
  59   2.0000      -0.403177       -10.9710 
  60   2.0000      -0.402190       -10.9442 
  61   2.0000      -0.400586       -10.9005 
  62   2.0000      -0.381580       -10.3833 
  63   2.0000      -0.381004       -10.3676 
  64   2.0000      -0.379383       -10.3235 
  65   2.0000      -0.361342        -9.8326 
  66   2.0000      -0.355320        -9.6688 
  67   2.0000      -0.354207        -9.6385 
  68   2.0000      -0.351835        -9.5739 
  69   2.0000      -0.339488        -9.2379 
  70   2.0000      -0.339145        -9.2286 
  71   2.0000      -0.338622        -9.2144 
  72   2.0000      -0.319728        -8.7002 
  73   2.0000      -0.318700        -8.6723 
  74   2.0000      -0.270316        -7.3557 
  75   2.0000      -0.256939        -6.9917 
  76   2.0000      -0.254088        -6.9141 
  77   2.0000      -0.245536        -6.6814 
  78   2.0000      -0.241088        -6.5603 
  79   2.0000      -0.239489        -6.5168 
  80   2.0000      -0.202112        -5.4997 
  81   0.0000      -0.022039        -0.5997 
  82   0.0000      -0.021106        -0.5743 
  83   0.0000      -0.014075        -0.3830 
  84   0.0000      -0.002749        -0.0748 
  85   0.0000       0.000829         0.0226 
  86   0.0000       0.002103         0.0572 
  87   0.0000       0.065403         1.7797 
  88   0.0000       0.067911         1.8480 
  89   0.0000       0.070489         1.9181 
  90   0.0000       0.078636         2.1398 
  91   0.0000       0.082010         2.2316 
*Only the first 10 virtual orbitals were printed.

                    ********************************
                    * MULLIKEN POPULATION ANALYSIS *
                    ********************************

-----------------------
MULLIKEN ATOMIC CHARGES
-----------------------
   0 C :    0.090467
   1 C :   -0.039486
   2 C :   -0.015774
   3 C :   -0.126246
   4 C :    0.004137
   5 C :    0.032806
   6 C :   -0.007760
   7 P :    0.337644
   8 C :   -0.131878
   9 C :    0.017926
  10 C :    0.028585
  11 C :   -0.010774
  12 C :   -0.036475
  13 C :   -0.017820
  14 C :    0.090703
  15 C :   -0.133303
  16 C :    0.017182
  17 C :    0.028847
  18 C :   -0.009765
  19 C :   -0.035416
  20 C :   -0.010958
  21 C :    0.089746
  22 H :    0.029369
  23 H :    0.014251
  24 H :    0.008993
  25 H :   -0.034057
  26 H :   -0.010351
  27 H :   -0.026489
  28 H :   -0.037470
  29 H :   -0.022386
  30 H :   -0.023462
  31 H :   -0.037285
  32 H :   -0.020723
  33 H :    0.014294
  34 H :    0.008430
  35 H :    0.029002
  36 H :   -0.021885
  37 H :   -0.023158
  38 H :   -0.036497
  39 H :   -0.026145
  40 H :    0.008720
  41 H :    0.029111
  42 H :    0.015352
Sum of atomic charges:   -0.0000000

--------------------------------
MULLIKEN REDUCED ORBITAL CHARGES
--------------------------------
  0 C s       :     2.921313  s :     2.921313
      pz      :     0.998884  p :     2.959441
      px      :     0.962529
      py      :     0.998029
      dz2     :     0.006268  d :     0.028779
      dxz     :     0.004192
      dyz     :     0.005385
      dx2y2   :     0.006028
      dxy     :     0.006905

  1 C s       :     3.069586  s :     3.069586
      pz      :     0.970505  p :     2.926158
      px      :     0.981368
      py      :     0.974285
      dz2     :     0.007749  d :     0.043742
      dxz     :     0.009980
      dyz     :     0.005647
      dx2y2   :     0.009957
      dxy     :     0.010409

  2 C s       :     3.273682  s :     3.273682
      pz      :     0.917585  p :     2.708040
      px      :     0.897702
      py      :     0.892753
      dz2     :     0.004382  d :     0.034051
      dxz     :     0.008458
      dyz     :     0.004414
      dx2y2   :     0.008075
      dxy     :     0.008723

  3 C s       :     3.075443  s :     3.075443
      pz      :     0.980818  p :     3.014018
      px      :     1.012984
      py      :     1.020216
      dz2     :     0.006760  d :     0.036785
      dxz     :     0.008487
      dyz     :     0.004953
      dx2y2   :     0.007864
      dxy     :     0.008721

  4 C s       :     3.223358  s :     3.223358
      pz      :     0.945034  p :     2.737503
      px      :     0.823480
      py      :     0.968989
      dz2     :     0.007004  d :     0.035002
      dxz     :     0.006641
      dyz     :     0.005584
      dx2y2   :     0.008693
      dxy     :     0.007080

  5 C s       :     3.158588  s :     3.158588
      pz      :     0.918454  p :     2.773175
      px      :     0.945661
      py      :     0.909060
      dz2     :     0.004588  d :     0.035432
      dxz     :     0.008885
      dyz     :     0.004587
      dx2y2   :     0.008450
      dxy     :     0.008923

  6 C s       :     3.215568  s :     3.215568
      pz      :     0.929086  p :     2.757497
      px      :     0.873140
      py      :     0.955271
      dz2     :     0.005020  d :     0.034695
      dxz     :     0.008852
      dyz     :     0.004520
      dx2y2   :     0.007615
      dxy     :     0.008688

  7 P s       :     5.638250  s :     5.638250
      pz      :     3.305428  p :     8.843845
      px      :     2.790245
      py      :     2.748171
      dz2     :     0.018834  d :     0.180261
      dxz     :     0.030132
      dyz     :     0.040276
      dx2y2   :     0.045648
      dxy     :     0.045370

  8 C s       :     3.080783  s :     3.080783
      pz      :     0.989954  p :     3.014278
      px      :     1.016797
      py      :     1.007526
      dz2     :     0.009280  d :     0.036817
      dxz     :     0.005932
      dyz     :     0.011193
      dx2y2   :     0.005930
      dxy     :     0.004482

  9 C s       :     3.210608  s :     3.210608
      pz      :     0.856399  p :     2.736598
      px      :     0.964296
      py      :     0.915903
      dz2     :     0.007996  d :     0.034869
      dxz     :     0.003859
      dyz     :     0.009602
      dx2y2   :     0.006632
      dxy     :     0.006780

 10 C s       :     3.159163  s :     3.159163
      pz      :     0.931209  p :     2.776829
      px      :     0.958805
      py      :     0.886814
      dz2     :     0.008430  d :     0.035422
      dxz     :     0.005478
      dyz     :     0.011189
      dx2y2   :     0.004703
      dxy     :     0.005623

 11 C s       :     3.216693  s :     3.216693
      pz      :     0.922639  p :     2.759388
      px      :     0.985870
      py      :     0.850878
      dz2     :     0.008680  d :     0.034692
      dxz     :     0.005778
      dyz     :     0.010393
      dx2y2   :     0.005762
      dxy     :     0.004079

 12 C s       :     3.068819  s :     3.068819
      pz      :     0.975768  p :     2.924031
      px      :     0.973302
      py      :     0.974961
      dz2     :     0.010379  d :     0.043625
      dxz     :     0.006631
      dyz     :     0.012326
      dx2y2   :     0.006838
      dxy     :     0.007452

 13 C s       :     3.288568  s :     3.288568
      pz      :     0.893167  p :     2.695025
      px      :     0.965449
      py      :     0.836408
      dz2     :     0.007916  d :     0.034226
      dxz     :     0.005162
      dyz     :     0.011204
      dx2y2   :     0.004643
      dxy     :     0.005302

 14 C s       :     2.921119  s :     2.921119
      pz      :     0.974827  p :     2.959406
      px      :     0.993220
      py      :     0.991359
      dz2     :     0.007670  d :     0.028771
      dxz     :     0.007943
      dyz     :     0.003133
      dx2y2   :     0.004538
      dxy     :     0.005487

 15 C s       :     3.080839  s :     3.080839
      pz      :     0.994956  p :     3.015621
      px      :     1.004349
      py      :     1.016316
      dz2     :     0.007757  d :     0.036842
      dxz     :     0.008244
      dyz     :     0.006621
      dx2y2   :     0.007054
      dxy     :     0.007166

 16 C s       :     3.212389  s :     3.212389
      pz      :     0.913303  p :     2.735518
      px      :     0.874495
      py      :     0.947719
      dz2     :     0.004969  d :     0.034912
      dxz     :     0.008160
      dyz     :     0.005565
      dx2y2   :     0.007985
      dxy     :     0.008232

 17 C s       :     3.159347  s :     3.159347
      pz      :     0.927240  p :     2.776437
      px      :     0.955969
      py      :     0.893229
      dz2     :     0.005725  d :     0.035369
      dxz     :     0.008173
      dyz     :     0.005848
      dx2y2   :     0.007891
      dxy     :     0.007732

 18 C s       :     3.216461  s :     3.216461
      pz      :     0.971512  p :     2.758592
      px      :     0.835431
      py      :     0.951649
      dz2     :     0.007493  d :     0.034712
      dxz     :     0.006378
      dyz     :     0.006351
      dx2y2   :     0.006984
      dxy     :     0.007506

 19 C s       :     3.068837  s :     3.068837
      pz      :     0.972815  p :     2.922989
      px      :     0.981151
      py      :     0.969023
      dz2     :     0.008262  d :     0.043591
      dxz     :     0.009113
      dyz     :     0.007114
      dx2y2   :     0.010129
      dxy     :     0.008974

 20 C s       :     3.288494  s :     3.288494
      pz      :     0.904156  p :     2.688213
      px      :     0.896830
      py      :     0.887227
      dz2     :     0.005482  d :     0.034252
      dxz     :     0.007800
      dyz     :     0.005808
      dx2y2   :     0.007811
      dxy     :     0.007350

 21 C s       :     2.921452  s :     2.921452
      pz      :     0.989343  p :     2.960042
      px      :     0.977448
      py      :     0.993251
      dz2     :     0.007144  d :     0.028760
      dxz     :     0.005354
      dyz     :     0.005171
      dx2y2   :     0.008578
      dxy     :     0.002514

 22 H s       :     0.946553  s :     0.946553
      pz      :     0.008668  p :     0.024078
      px      :     0.005149
      py      :     0.010261

 23 H s       :     0.962196  s :     0.962196
      pz      :     0.013099  p :     0.023553
      px      :     0.004747
      py      :     0.005707

 24 H s       :     0.967529  s :     0.967529
      pz      :     0.005595  p :     0.023478
      px      :     0.006978
      py      :     0.010905

 25 H s       :     1.011023  s :     1.011023
      pz      :     0.008869  p :     0.023034
      px      :     0.004644
      py      :     0.009521

 26 H s       :     0.986643  s :     0.986643
      pz      :     0.004341  p :     0.023708
      px      :     0.014825
      py      :     0.004543

 27 H s       :     1.003532  s :     1.003532
      pz      :     0.008863  p :     0.022957
      px      :     0.004671
      py      :     0.009423

 28 H s       :     1.014503  s :     1.014503
      pz      :     0.007765  p :     0.022967
      px      :     0.008049
      py      :     0.007153

 29 H s       :     0.999273  s :     0.999273
      pz      :     0.013478  p :     0.023113
      px      :     0.005878
      py      :     0.003757

 30 H s       :     1.000453  s :     1.000453
      pz      :     0.006709  p :     0.023010
      px      :     0.006411
      py      :     0.009890

 31 H s       :     1.014336  s :     1.014336
      pz      :     0.005396  p :     0.022949
      px      :     0.004590
      py      :     0.012964

 32 H s       :     0.997084  s :     0.997084
      pz      :     0.006831  p :     0.023640
      px      :     0.006448
      py      :     0.010360

 33 H s       :     0.962158  s :     0.962158
      pz      :     0.004608  p :     0.023547
      px      :     0.010865
      py      :     0.008074

 34 H s       :     0.968105  s :     0.968105
      pz      :     0.004359  p :     0.023464
      px      :     0.005898
      py      :     0.013208

 35 H s       :     0.946914  s :     0.946914
      pz      :     0.008577  p :     0.024084
      px      :     0.009774
      py      :     0.005733

 36 H s       :     0.998776  s :     0.998776
      pz      :     0.009831  p :     0.023109
      px      :     0.007958
      py      :     0.005321

 37 H s       :     1.000146  s :     1.000146
      pz      :     0.007835  p :     0.023012
      px      :     0.004483
      py      :     0.010694

 38 H s       :     1.013557  s :     1.013557
      pz      :     0.004181  p :     0.022940
      px      :     0.012659
      py      :     0.006100

 39 H s       :     1.002517  s :     1.002517
      pz      :     0.008022  p :     0.023627
      px      :     0.004655
      py      :     0.010950

 40 H s       :     0.967813  s :     0.967813
      pz      :     0.004965  p :     0.023466
      px      :     0.013244
      py      :     0.005258

 41 H s       :     0.946805  s :     0.946805
      pz      :     0.011660  p :     0.024084
      px      :     0.005334
      py      :     0.007090

 42 H s       :     0.961098  s :     0.961098
      pz      :     0.004730  p :     0.023549
      px      :     0.004858
      py      :     0.013961



                     *******************************
                     * LOEWDIN POPULATION ANALYSIS *
                     *******************************

----------------------
LOEWDIN ATOMIC CHARGES
----------------------
   0 C :   -0.041840
   1 C :   -0.024993
   2 C :   -0.031451
   3 C :   -0.173486
   4 C :   -0.038405
   5 C :   -0.022590
   6 C :   -0.029820
   7 P :    0.519611
   8 C :   -0.173892
   9 C :   -0.032423
  10 C :   -0.022745
  11 C :   -0.028987
  12 C :   -0.025194
  13 C :   -0.035034
  14 C :   -0.042209
  15 C :   -0.175023
  16 C :   -0.032655
  17 C :   -0.023205
  18 C :   -0.027197
  19 C :   -0.024925
  20 C :   -0.031028
  21 C :   -0.042274
  22 H :    0.035294
  23 H :    0.029962
  24 H :    0.028027
  25 H :    0.020452
  26 H :    0.025614
  27 H :    0.024634
  28 H :    0.021811
  29 H :    0.022595
  30 H :    0.025508
  31 H :    0.021919
  32 H :    0.023921
  33 H :    0.029775
[...]
      dxz     :     0.020925
      dyz     :     0.018076
      dx2y2   :     0.025952
      dxy     :     0.025081

 20 C s       :     2.865908  s :     2.865908
      pz      :     1.010547  p :     3.077871
      px      :     1.042396
      py      :     1.024928
      dz2     :     0.012450  d :     0.090891
      dxz     :     0.021027
      dyz     :     0.014264
      dx2y2   :     0.022676
      dxy     :     0.020474

 21 C s       :     2.835304  s :     2.835304
      pz      :     1.041180  p :     3.137918
      px      :     1.041362
      py      :     1.055376
      dz2     :     0.019753  d :     0.072022
      dxz     :     0.012947
      dyz     :     0.010661
      dx2y2   :     0.021939
      dxy     :     0.006721

 22 H s       :     0.899662  s :     0.899662
      pz      :     0.020644  p :     0.064034
      px      :     0.014742
      py      :     0.028649

 23 H s       :     0.905257  s :     0.905257
      pz      :     0.037138  p :     0.064075
      px      :     0.013474
      py      :     0.013462

 24 H s       :     0.907319  s :     0.907319
      pz      :     0.014511  p :     0.063942
      px      :     0.019731
      py      :     0.029700

 25 H s       :     0.911564  s :     0.911564
      pz      :     0.028161  p :     0.067556
      px      :     0.014106
      py      :     0.025289

 26 H s       :     0.901883  s :     0.901883
      pz      :     0.012778  p :     0.069898
      px      :     0.043651
      py      :     0.013469

 27 H s       :     0.907512  s :     0.907512
      pz      :     0.027023  p :     0.066371
      px      :     0.014483
      py      :     0.024864

 28 H s       :     0.910406  s :     0.910406
      pz      :     0.022945  p :     0.066750
      px      :     0.023086
      py      :     0.020719

 29 H s       :     0.908902  s :     0.908902
      pz      :     0.039058  p :     0.067499
      px      :     0.016884
      py      :     0.011558

 30 H s       :     0.906920  s :     0.906920
      pz      :     0.018587  p :     0.066359
      px      :     0.018548
      py      :     0.029224

 31 H s       :     0.910433  s :     0.910433
      pz      :     0.017217  p :     0.066748
      px      :     0.013831
      py      :     0.035699

 32 H s       :     0.903901  s :     0.903901
      pz      :     0.018613  p :     0.070050
      px      :     0.019329
      py      :     0.032108

 33 H s       :     0.905104  s :     0.905104
      pz      :     0.013006  p :     0.064094
      px      :     0.029539
      py      :     0.021549

 34 H s       :     0.907650  s :     0.907650
      pz      :     0.012969  p :     0.063951
      px      :     0.014127
      py      :     0.036854

 35 H s       :     0.900043  s :     0.900043
      pz      :     0.024012  p :     0.064020
      px      :     0.026228
      py      :     0.013780

 36 H s       :     0.908963  s :     0.908963
      pz      :     0.027433  p :     0.067504
      px      :     0.023784
      py      :     0.016287

 37 H s       :     0.906883  s :     0.906883
      pz      :     0.020700  p :     0.066356
      px      :     0.013580
      py      :     0.032076

 38 H s       :     0.910356  s :     0.910356
      pz      :     0.013469  p :     0.066738
      px      :     0.035556
      py      :     0.017713

 39 H s       :     0.904125  s :     0.904125
      pz      :     0.021236  p :     0.070023
      px      :     0.014423
      py      :     0.034364

 40 H s       :     0.907543  s :     0.907543
      pz      :     0.013147  p :     0.063954
      px      :     0.037653
      py      :     0.013154

 41 H s       :     0.900128  s :     0.900128
      pz      :     0.034586  p :     0.064020
      px      :     0.013218
      py      :     0.016216

 42 H s       :     0.904940  s :     0.904940
      pz      :     0.012354  p :     0.064105
      px      :     0.012042
      py      :     0.039709



                      *****************************
                      * MAYER POPULATION ANALYSIS *
                      *****************************

  NA   - Mulliken gross atomic population
  ZA   - Total nuclear charge
  QA   - Mulliken gross atomic charge
  VA   - Mayer's total valence
  BVA  - Mayer's bonded valence
  FA   - Mayer's free valence

  ATOM       NA         ZA         QA         VA         BVA        FA
  0 C      5.9202     6.0000     0.0798     3.9031     3.9031    -0.0000
  1 C      6.0359     6.0000    -0.0359     3.9892     3.9892    -0.0000
  2 C      6.0106     6.0000    -0.0106     3.8661     3.8661    -0.0000
  3 C      6.1557     6.0000    -0.1557     3.8109     3.8109    -0.0000
  4 C      5.9868     6.0000     0.0132     3.8670     3.8670     0.0000
  5 C      5.9688     6.0000     0.0312     3.8142     3.8142    -0.0000
  6 C      6.0087     6.0000    -0.0087     3.8382     3.8382     0.0000
  7 P     14.6410    15.0000     0.3590     2.9271     2.9271    -0.0000
  8 C      6.1567     6.0000    -0.1567     3.8099     3.8099    -0.0000
  9 C      5.9797     6.0000     0.0203     3.8569     3.8569    -0.0000
 10 C      5.9736     6.0000     0.0264     3.8370     3.8370    -0.0000
 11 C      6.0128     6.0000    -0.0128     3.8396     3.8396    -0.0000
 12 C      6.0314     6.0000    -0.0314     3.9656     3.9656    -0.0000
 13 C      6.0146     6.0000    -0.0146     3.8662     3.8662    -0.0000
 14 C      5.9198     6.0000     0.0802     3.9034     3.9034    -0.0000
 15 C      6.1559     6.0000    -0.1559     3.8086     3.8086    -0.0000
 16 C      5.9804     6.0000     0.0196     3.8577     3.8577    -0.0000
 17 C      5.9731     6.0000     0.0269     3.8374     3.8374    -0.0000
 18 C      6.0122     6.0000    -0.0122     3.8402     3.8402    -0.0000
 19 C      6.0305     6.0000    -0.0305     3.9650     3.9650    -0.0000
 20 C      6.0137     6.0000    -0.0137     3.8665     3.8665    -0.0000
 21 C      5.9206     6.0000     0.0794     3.9037     3.9037    -0.0000
 22 H      0.9702     1.0000     0.0298     0.9870     0.9870     0.0000
 23 H      0.9835     1.0000     0.0165     0.9935     0.9935     0.0000
 24 H      0.9883     1.0000     0.0117     0.9934     0.9934     0.0000
 25 H      1.0319     1.0000    -0.0319     0.9977     0.9977    -0.0000
 26 H      1.0040     1.0000    -0.0040     0.9909     0.9909     0.0000
 27 H      1.0223     1.0000    -0.0223     0.9767     0.9767     0.0000
 28 H      1.0335     1.0000    -0.0335     0.9849     0.9849     0.0000
 29 H      1.0195     1.0000    -0.0195     0.9899     0.9899    -0.0000
 30 H      1.0197     1.0000    -0.0197     0.9769     0.9769    -0.0000
 31 H      1.0338     1.0000    -0.0338     0.9850     0.9850    -0.0000
 32 H      1.0158     1.0000    -0.0158     1.0007     1.0007    -0.0000
 33 H      0.9826     1.0000     0.0174     0.9935     0.9935    -0.0000
 34 H      0.9893     1.0000     0.0107     0.9934     0.9934    -0.0000
 35 H      0.9710     1.0000     0.0290     0.9871     0.9871    -0.0000
 36 H      1.0195     1.0000    -0.0195     0.9898     0.9898    -0.0000
 37 H      1.0196     1.0000    -0.0196     0.9769     0.9769     0.0000
 38 H      1.0336     1.0000    -0.0336     0.9850     0.9850     0.0000
 39 H      1.0171     1.0000    -0.0171     1.0010     1.0010     0.0000
 40 H      0.9891     1.0000     0.0109     0.9934     0.9934    -0.0000
 41 H      0.9711     1.0000     0.0289     0.9870     0.9870    -0.0000
 42 H      0.9821     1.0000     0.0179     0.9935     0.9935    -0.0000

  Mayer bond orders larger than 0.100000
B(  0-C ,  1-C ) :   1.0625 B(  0-C , 22-H ) :   0.9516 B(  0-C , 23-H ) :   0.9583 
B(  0-C , 24-H ) :   0.9574 B(  1-C ,  2-C ) :   1.4016 B(  1-C ,  6-C ) :   1.3813 
B(  2-C ,  3-C ) :   1.3534 B(  2-C , 25-H ) :   0.9822 B(  3-C ,  4-C ) :   1.3855 
B(  3-C ,  7-P ) :   0.9285 B(  4-C ,  5-C ) :   1.3734 B(  4-C , 26-H ) :   0.9804 
B(  5-C ,  6-C ) :   1.3737 B(  5-C , 27-H ) :   0.9825 B(  6-C , 28-H ) :   0.9850 
B(  7-P ,  8-C ) :   0.9294 B(  7-P , 15-C ) :   0.9292 B(  8-C ,  9-C ) :   1.3675 
B(  8-C , 13-C ) :   1.3692 B(  9-C , 10-C ) :   1.3973 B(  9-C , 29-H ) :   0.9829 
B( 10-C , 11-C ) :   1.3667 B( 10-C , 30-H ) :   0.9833 B( 11-C , 12-C ) :   1.3907 
B( 11-C , 31-H ) :   0.9845 B( 12-C , 13-C ) :   1.3720 B( 12-C , 14-C ) :   1.0642 
B( 13-C , 32-H ) :   0.9839 B( 14-C , 33-H ) :   0.9577 B( 14-C , 34-H ) :   0.9568 
B( 14-C , 35-H ) :   0.9517 B( 15-C , 16-C ) :   1.3679 B( 15-C , 20-C ) :   1.3694 
B( 16-C , 17-C ) :   1.3966 B( 16-C , 36-H ) :   0.9829 B( 17-C , 18-C ) :   1.3676 
B( 17-C , 37-H ) :   0.9832 B( 18-C , 19-C ) :   1.3905 B( 18-C , 38-H ) :   0.9844 
B( 19-C , 20-C ) :   1.3723 B( 19-C , 21-C ) :   1.0640 B( 20-C , 39-H ) :   0.9840 
B( 21-C , 40-H ) :   0.9569 B( 21-C , 41-H ) :   0.9518 B( 21-C , 42-H ) :   0.9578 


-------
TIMINGS
-------

Total SCF time: 0 days 0 hours 0 min 23 sec 

Total time                  ....      23.156 sec
Sum of individual times     ....      23.054 sec  ( 99.6%)

SCF preparation             ....       0.142 sec  (  0.6%)
Fock matrix formation       ....      22.371 sec  ( 96.6%)
  Startup                   ....       0.026 sec  (  0.1% of F)
  Exchange formation        ....      17.727 sec  ( 79.2% of F)
  Split-RI-J                ....       1.789 sec  (  8.0% of F)
  XC integration            ....       2.750 sec  ( 12.3% of F)
    Basis function eval.    ....       0.803 sec  ( 29.2% of XC)
    Density eval.           ....       0.830 sec  ( 30.2% of XC)
    XC-Functional eval.     ....       0.060 sec  (  2.2% of XC)
    XC-Potential eval.      ....       0.643 sec  ( 23.4% of XC)
Diagonalization             ....       0.000 sec  (  0.0%)
Density matrix formation    ....       0.054 sec  (  0.2%)
Total Energy calculation    ....       0.019 sec  (  0.1%)
Population analysis         ....       0.118 sec  (  0.5%)
Orbital Transformation      ....       0.054 sec  (  0.2%)
Orbital Orthonormalization  ....       0.000 sec  (  0.0%)
DIIS solution               ....       0.064 sec  (  0.3%)
SOSCF solution              ....       0.232 sec  (  1.0%)
Finished LeanSCF after  23.2 sec

Maximum memory used throughout the entire LEANSCF-calculation: 45.9 MB


-------------------------------------------------------------------------------
                          DFT DISPERSION CORRECTION                            
                                                                               
                              DFTD3 V3.1  Rev 1                                
                          USING Becke-Johnson damping                          
-------------------------------------------------------------------------------
The B3LYP functional is recognized
Active option DFTDOPT                   ...         4   

molecular C6(AA) [au] = 23097.174201 


            DFT-D V3
 parameters
 s6 scaling factor         :     1.0000 
 a1 scaling factor         :     0.3981 
 s8 scaling factor         :     1.9889 
 a2 scaling factor         :     4.4211 
 ad hoc parameters k1-k3   :    16.0000     1.3333    -4.0000 

 Edisp/kcal,au: -64.414253535677  -0.102650636089 
 E6   /kcal   : -29.603093773 
 E8   /kcal   : -34.811159763 
 % E8         :  54.042634746 

-------------------------   ----------------
Dispersion correction           -0.102650636
-------------------------   ----------------


-------------------------   --------------------
FINAL SINGLE POINT ENERGY     -1153.086331499431
-------------------------   --------------------

                                *** OPTIMIZATION RUN DONE ***



           ************************************************************
           *        Program running with 6 parallel MPI-processes     *
           *              working on a common directory               *
           ************************************************************

------------------------------------------------------------------------------
                              ORCA PROPERTY CALCULATIONS
------------------------------------------------------------------------------

GBWName                                 ... data/geom_opt/80362/80362.gbw
Number of atoms                         ...     43
Number of basis functions               ...    417
Max core memory                         ...   1024 MB

Electric properties:
Dipole moment                           ... YES
Quadrupole moment                       ...  NO
Static polarizability (Dipole/Dipole)   ...  NO
Static polarizability (Dipole/Quad.)    ...  NO
Static polarizability (Quad./Quad.)     ...  NO
Static polarizability (Velocity)        ...  NO

Atomic electric properties:
Dipole moment                           ...  NO
Quadrupole moment                       ...  NO
Static polarizability                   ...  NO

Choice of electric origin               ... Center of mass
Position of electric origin             ...     0.045013    -0.112330     0.609088

General magnetic properties:
Magnetizability                         ...  NO

EPR properties:
g-Tensor (aka g-matrix)                 ...  NO
Zero-Field splitting spin-orbit         ...  NO
Zero-field splitting spin-spin          ...  NO
Hyperfine couplings                     ...  NO (   0 nuclei)
Quadrupole couplings                    ...  NO (   0 nuclei)
Contact density                         ...  NO (   0 nuclei)

NMR properties:
Chemical shifts                         ...  NO (   0 nuclei)
Spin-rotation constants                 ...  NO (   0 nuclei)
Spin-spin couplings                     ...  NO (   0 nuclei,    0 pairs)

Choice of magnetic origin               ... GIAO
Position of magnetic origin             ...     0.000000     0.000000     0.000000

Properties with geometric perturbations:
SCF Hessian                             ...  NO
IR spectrum                             ...  NO
VCD spectrum                            ...  NO
X-ray spectroscopy properties:
SCF XES/XAS/RIXS spectra                ...  NO


-------------
DIPOLE MOMENT
-------------

Method             : SCF
Type of density    : Electron Density
Multiplicity       :   1
Irrep              :   0
Energy             : -1152.9836808633417604 Eh
Relativity type    : 
Basis              : AO
                                X                 Y                 Z
Electronic contribution:      1.272975925      -2.508208270      12.385996412
Nuclear contribution   :     -1.226153881       2.584160055     -13.146014623
                        -----------------------------------------
Total Dipole Moment    :      0.046822044       0.075951785      -0.760018211
                        -----------------------------------------
Magnitude (a.u.)       :      0.765237648
Magnitude (Debye)      :      1.945079523



--------------------
Rotational spectrum 
--------------------
 
Rotational constants in cm-1:             0.009520             0.007497             0.005199 
Rotational constants in MHz :           285.413587           224.759499           155.857051 

Dipole components along the rotational axes: 
x,y,z [a.u.] :     0.074378     0.210695    -0.731891 
x,y,z [Debye]:     0.189055     0.535544    -1.860319 

 

Dipole moment calculation done in   0.0 sec 

Maximum memory used throughout the entire PROP-calculation: 23.7 MB

--------------------------------
SUGGESTED CITATIONS FOR THIS RUN
--------------------------------

Below you find a list of papers that are relevant to this ORCA run
We neither can nor want to force you to cite these papers, but we appreciate if you do
You receive ORCA, which is the product of decades of hard work by many enthusiastic individuals, for free
The only thing we kindly ask in return is that you cite our papers,
We deeply appreciate it, if you show your appreciation for ORCA by not just citing the generic ORCA reference.

Please note that relegating all ORCA citations to the supporting information does *not* help us.
SI sections are not indexed - citations you put there will not count into any citation statistics
But we need these citations in order to attract the funding resources that allow us to do what we are doing

Therefore, if you are a happy ORCA user, please consider citing a few of the papers listed below in the main body of your paper

In addition to the list printed below, the program has created the file data/geom_opt/80362/80362.bibtex that contains the list in bibtex format
You can import this file easily into all common literature databanks and citation aid programs


List of essential papers. We consider these as the minimum necessary citations

  1. Neese,F.
     Software update: the ORCA program system, version 5.0
     WIRES Comput. Molec. Sci., 2022 12(1)e1606
     doi.org/10.1002/wcms.1606

List of papers to cite with high priority. The work reported in these papers was absolutely
necessary for this run to complete.
Our perspective: the developers of density functionals and basis sets usually get cited in chemistry papers
Good! But without the algorithms to do something with them, the functionals or basis sets would not do anything.
Hence, in our opinion, the algorithm design and method developments papers are equally worthy of getting cited

  1. Neese,F.
     An improvement of the resolution of the identity approximation for the formation of the Coulomb matrix
     J. Comp. Chem., 2003 24(14)1740-1747
     doi.org/10.1002/jcc.10318
  2. Neese,F.
     The SHARK Integral Generation and Digestion System
     J. Comp. Chem., 2022  1-16
     doi.org/10.1002/jcc.26942
  3. Grimme,S.; Antony,J.; Ehrlich,S.; Krieg,H.
     A consistent and accurate ab initio parametrization of density functional dispersion correction (DFT-D) for the 94 elements H-Pu
     J. Chem. Phys., 2010 132 154104-XXXX
     doi.org/10.1063/1.3382344
  4. Grimme,S.; Ehrlich,S.; Goerigk,L.
     Effect of the damping function in dispersion corrected density functional theory
     J. Comput. Chem., 2011 32(7)1456-1465
     doi.org/10.1002/jcc.21759

List of suggested additional citations. These are papers that are important in the 'surrounding' of 
of this run, or papers that preceded the highly important papers. If you like your results we are grateful for a citation.

  1. Neese,F.
     The ORCA program system
     WIRES Comput. Molec. Sci., 2012 2(1)73-78
     doi.org/10.1002/wcms.81
  2. Neese,F.
     Software update: the ORCA program system, version 4.0
     WIRES Comput. Molec. Sci., 2018 8(1)1-6
     doi.org/10.1002/wcms.1327
  3. Neese,F.; Wennmohs,F.; Becker,U.; Riplinger,C.
     The ORCA quantum chemistry program package
     J. Chem. Phys., 2020 152 Art. No. L224108
     doi.org/10.1063/5.0004608

List of optional additional citations

  1. Neese,F.
     Approximate second-order SCF convergence for spin unrestricted wavefunctions
     Chem. Phys. Lett., 2000 325(1-3)93-98
     doi.org/10.1016/s0009-2614(00)00662-x

Timings for individual modules:

Sum of individual times          ...      506.128 sec (=   8.435 min)
Startup calculation              ...       12.855 sec (=   0.214 min)   2.5 %
SCF iterations                   ...      343.252 sec (=   5.721 min)  67.8 %
Property calculations            ...        0.184 sec (=   0.003 min)   0.0 %
SCF Gradient evaluation          ...      149.678 sec (=   2.495 min)  29.6 %
Geometry relaxation              ...        0.159 sec (=   0.003 min)   0.0 %
                             ****ORCA TERMINATED NORMALLY****
TOTAL RUN TIME: 0 days 0 hours 8 minutes 27 seconds 644 msec
