
                                 *****************
                                 * O   R   C   A *
                                 *****************

                                            #,                                       
                                            ###                                      
                                            ####                                     
                                            #####                                    
                                            ######                                   
                                           ########,                                 
                                     ,,################,,,,,                         
                               ,,#################################,,                 
                          ,,##########################################,,             
                       ,#########################################, ''#####,          
                    ,#############################################,,   '####,        
                  ,##################################################,,,,####,       
                ,###########''''           ''''###############################       
              ,#####''   ,,,,##########,,,,          '''####'''          '####       
            ,##' ,,,,###########################,,,                        '##       
           ' ,,###''''                  '''############,,,                           
         ,,##''                                '''############,,,,        ,,,,,,###''
      ,#''                                            '''#######################'''  
     '                                                          ''''####''''         
             ,#######,   #######,   ,#######,      ##                                
            ,#'     '#,  ##    ##  ,#'     '#,    #''#        ,####,   ,####,        
            ##       ##  ##   ,#'  ##            #'  '#       #'       #'  '#        
            ##       ##  #######   ##           ,######,      #####,   #    #        
            '#,     ,#'  ##    ##  '#,     ,#' ,#      #,     #,   #   #,  ,#        
             '#######'   ##     ##  '#######'  #'      '#     '####' # '####'        



                #########################################################
                #                        -***-                          #
                #          Department of theory and spectroscopy        #
                #                                                       #
                #                      Frank Neese                      #
                #                                                       #
                #     Directorship, Architecture, Infrastructure        #
                #                    SHARK, DRIVERS                     #
                #        Core code/Algorithms in most modules           #
                #                                                       #
                #        Max Planck Institute fuer Kohlenforschung      #
                #                Kaiser Wilhelm Platz 1                 #
                #                 D-45470 Muelheim/Ruhr                 #
                #                      Germany                          #
                #                                                       #
                #                  All rights reserved                  #
                #                        -***-                          #
                #########################################################


                         Program Version 6.0.0  -   RELEASE   -


 With contributions from (in alphabetic order):
   Daniel Aravena         : Magnetic Suceptibility
   Michael Atanasov       : Ab Initio Ligand Field Theory (pilot matlab implementation)
   Alexander A. Auer      : GIAO ZORA, VPT2 properties, NMR spectrum
   Ute Becker             : All parallelization in ORCA, NUMFREQ, NUMCALC
   Giovanni Bistoni       : ED, misc. LED, open-shell LED, HFLD
   Martin Brehm           : Molecular dynamics
   Dmytro Bykov           : pre 5.0 version of the SCF Hessian
   Marcos Casanova-Páez   : Triplet and SCS-CIS(D). UHF-(DLPNO)-IP/EA/STEOM-CCSD. UHF-CVS-IP/STEOM-CCSD
   Vijay G. Chilkuri      : MRCI spin determinant printing, contributions to CSF-ICE
   Pauline Colinet        : FMM embedding
   Dipayan Datta          : RHF DLPNO-CCSD density
   Achintya Kumar Dutta   : EOM-CC, STEOM-CC
   Nicolas Foglia         : Exact transition moments, OPA infrastructure, MCD improvements
   Dmitry Ganyushin       : Spin-Orbit,Spin-Spin,Magnetic field MRCI
   Miquel Garcia          : C-PCM and meta-GGA Hessian, CCSD/C-PCM, Gaussian charge scheme
   Tiago L. C. Gouveia    : GS-ROHF, GS-ROCIS
   Yang Guo               : DLPNO-NEVPT2, F12-NEVPT2, CIM, IAO-localization
   Andreas Hansen         : Spin unrestricted coupled pair/coupled cluster methods
   Ingolf Harden          : AUTO-CI MPn and infrastructure 
   Benjamin Helmich-Paris : MC-RPA, TRAH-(SCF,CASSCF), AVAS, COSX integrals, SCF dyn. polar.
   Lee Huntington         : MR-EOM, pCC
   Robert Izsak           : Overlap fitted RIJCOSX, COSX-SCS-MP3, EOM
   Riya Kayal             : Wick's Theorem for AUTO-CI, AUTO-CI UHF-CCSDT
   Emily Kempfer          : AUTO-CI, RHF CISDT and CCSDT
   Christian Kollmar      : KDIIS, OOCD, Brueckner-CCSD(T), CCSD density, CASPT2, CASPT2-K, improved NEVPT2
   Axel Koslowski         : Symmetry handling
   Simone Kossmann        : Meta GGA functionals, TD-DFT gradient, OOMP2, (MP2 Hessian; deprecated post 5.0)
   Lucas Lang             : DCDCAS
   Marvin Lechner         : AUTO-CI (C++ implementation), FIC-MRCC
   Spencer Leger          : CASSCF response
   Dagmar Lenk            : GEPOL surface, SMD, ORCA-2-JSON
   Dimitrios Liakos       : Extrapolation schemes; Compound Job, initial MDCI parallelization
   Dimitrios Manganas     : Further ROCIS development; embedding schemes. LFT, Crystal Embedding
   Dimitrios Pantazis     : SARC Basis sets
   Anastasios Papadopoulos: AUTO-CI, single reference methods and gradients
   Taras Petrenko         : pre 6.0 DFT Hessian and TD-DFT gradient, (ASA, deprecated), ECA, 1-Electron XAS/XES, NRVS
   Peter Pinski           : DLPNO-MP2, DLPNO-MP2 Gradient
   Christoph Reimann      : Effective Core Potentials
   Marius Retegan         : Local ZFS, SOC
   Christoph Riplinger    : Optimizer, TS searches, QM/MM, DLPNO-CCSD(T), (RO)-DLPNO pert. Triples
   Michael Roemelt        : Original ROCIS implementation
   Masaaki Saitow         : Open-shell DLPNO-CCSD energy and density
   Barbara Sandhoefer     : DKH picture change effects
   Kantharuban Sivalingam : CASSCF convergence/infrastructure, NEVPT2 and variants, FIC-MRCI
   Bernardo de Souza      : ESD, SOC TD-DFT
   Georgi Stoychev        : AutoAux, RI-MP2 NMR, DLPNO-MP2 response, X2C
   Van Anh Tran           : RI-MP2 g-tensors
   Willem Van den Heuvel  : Paramagnetic NMR
   Zikuan Wang            : NOTCH, Electric field optimization 
   Frank Wennmohs         : Technical directorship and infrastructure
   Hang Xu                : AUTO-CI-Response properties 


 We gratefully acknowledge several colleagues who have allowed us to
 interface, adapt or use parts of their codes:
   Stefan Grimme, W. Hujo, H. Kruse, P. Pracht,  : VdW corrections, initial TS optimization,
                  C. Bannwarth, S. Ehlert,         DFT functionals, gCP, sTDA/sTD-DF
                  L. Wittmann, M. Mueller
   Ed Valeev, F. Pavosevic, A. Kumar             : LibInt (2-el integral package), F12 methods
   Garnet Chan, S. Sharma, J. Yang, R. Olivares  : DMRG
   Ulf Ekstrom                                   : XCFun DFT Library
   Mihaly Kallay                                 : mrcc  (arbitrary order and MRCC methods)
   Frank Weinhold                                : gennbo (NPA and NBO analysis)
   Simon Mueller                                 : openCOSMO-RS
   Christopher J. Cramer and Donald G. Truhlar   : smd solvation model
   Lars Goerigk                                  : TD-DFT with DH, B97 family of functionals
   V. Asgeirsson, H. Jonsson                     : NEB implementation
   FAccTs GmbH                                   : IRC, NEB, NEB-TS, DLPNO-Multilevel, CI-OPT
                                                   MM, QMMM, 2- and 3-layer-ONIOM, Crystal-QMMM,
                                                   LR-CPCM, SF, NACMEs, symmetry and pop. for TD-DFT,
                                                   nearIR, NL-DFT gradient (VV10), updates on ESD,
                                                   ML-optimized integration grids, MBIS, APM,
                                                   GOAT, DOCKER, SOLVATOR, interface openCOSMO-RS
   S Lehtola, MJT Oliveira, MAL Marques          : LibXC Library
   Liviu Ungur et al                             : ANISO software


 Your calculation uses the libint2 library for the computation of 2-el integrals
 For citations please refer to: http://libint.valeyev.net

 Your ORCA version has been built with support for libXC version: 6.2.2
 For citations please refer to: https://libxc.gitlab.io

 This ORCA versions uses:
   CBLAS   interface :  Fast vector & matrix operations
   LAPACKE interface :  Fast linear algebra routines
   Shared memory     :  Shared parallel matrices


Your calculation utilizes the atom-pairwise dispersion correction
with the Becke-Johnson damping scheme (D3BJ)


Warning: RI is on but no J-basis has been assigned. Assigning Def2/J (nothing to worry about!)
================================================================================

----- Orbital basis set information -----
Your calculation utilizes the basis: def2-SVP
   F. Weigend and R. Ahlrichs, Phys. Chem. Chem. Phys. 7, 3297 (2005).

----- AuxJ basis set information -----
Your calculation utilizes the auxiliary basis: def2/J
   F. Weigend, Phys. Chem. Chem. Phys. 8, 1057 (2006).

================================================================================
                                        WARNINGS
                       Please study these warnings very carefully!
================================================================================


WARNING: Geometry Optimization
  ===> : Switching off AutoStart
         For restart on a previous wavefunction, please use MOREAD

================================================================================
                                       INPUT FILE
================================================================================
NAME = data/geom_opt_PO_BP86/342156/342156.inp
|  1> ! RI BP86 def2-SVP D3BJ TIGHTSCF Opt
|  2> %pal
|  3> nprocs 6
|  4> end
|  5> 
|  6> * xyz 0 1
|  7> C      3.634449    0.871411    1.082069
|  8> C      3.186247    0.754588   -0.231917
|  9> C      1.873977    0.355518   -0.490414
| 10> C      0.996390    0.071411    0.564743
| 11> C      1.460751    0.190481    1.881101
| 12> C      2.772225    0.589287    2.138873
| 13> P     -0.671784   -0.441175    0.265954
| 14> O     -1.485944   -0.764960    1.493049
| 15> C     -0.603116   -1.899590   -0.812654
| 16> C     -1.761103   -2.873238   -0.631472
| 17> C     -3.014413   -2.327485   -1.159777
| 18> N     -3.981453   -1.870982   -1.609400
| 19> C     -1.522171    0.820689   -0.712978
| 20> C     -1.967393    2.027048    0.103135
| 21> C     -0.844917    2.915066    0.423243
| 22> N      0.040379    3.629750    0.648148
| 23> H      4.653623    1.191089    1.283653
| 24> H      3.859379    0.983755   -1.054328
| 25> H      1.544807    0.276379   -1.523182
| 26> H      0.792539   -0.022520    2.714407
| 27> H      3.117911    0.688051    3.164788
| 28> H      0.320112   -2.436130   -0.563353
| 29> H     -0.514600   -1.575790   -1.855965
| 30> H     -1.528386   -3.803087   -1.163293
| 31> H     -1.879945   -3.132338    0.425563
| 32> H     -2.417754    0.363861   -1.140676
| 33> H     -0.891395    1.121804   -1.556875
| 34> H     -2.705398    2.593597   -0.476682
| 35> H     -2.463019    1.703510    1.024093
| 36> **                         ****END OF INPUT****
================================================================================

                       *****************************
                       * Geometry Optimization Run *
                       *****************************

Geometry optimization settings:
Update method            Update   .... BFGS
Choice of coordinates    CoordSys .... (2022) Redundant Internals
Initial Hessian          InHess   .... Almloef's Model
Max. no of cycles        MaxIter  .... 87

Convergence Tolerances:
Energy Change            TolE     ....  5.0000e-06 Eh
Max. Gradient            TolMAXG  ....  3.0000e-04 Eh/bohr
RMS Gradient             TolRMSG  ....  1.0000e-04 Eh/bohr
Max. Displacement        TolMAXD  ....  4.0000e-03 bohr
RMS Displacement         TolRMSD  ....  2.0000e-03 bohr
Strict Convergence                .... False

------------------------------------------------------------------------------
                        ORCA OPTIMIZATION COORDINATE SETUP
------------------------------------------------------------------------------

The optimization will be done in redundant internal coordinates (2022)
Making redundant internal coordinates   ...  (2022 redundants) done
Evaluating the initial hessian          ...  (Almloef) done
Evaluating the coordinates              ...  done
Calculating the B-matrix                .... done
Calculating the G-matrix                .... done
Diagonalizing the G-matrix              .... done
Small eigenvalue found = 1.027e-02
Small eigenvalue found = 1.181e-02
Small eigenvalue found = 1.825e-02
Small eigenvalue found = 2.513e-02
The first mode is                       ....   55
The number of degrees of freedom        ....   81

    -----------------------------------------------------------------
                    Redundant Internal Coordinates


    -----------------------------------------------------------------
         Definition                    Initial Value    Approx d2E/dq
    -----------------------------------------------------------------
      1. B(C   1,C   0)                  1.3932         0.617425   
      2. B(C   2,C   1)                  1.3958         0.611727   
      3. B(C   3,C   2)                  1.4015         0.598927   
      4. B(C   4,C   3)                  1.4009         0.600204   
      5. B(C   5,C   4)                  1.3948         0.613884   
      6. B(C   5,C   0)                  1.3928         0.618430   
      7. B(P   6,C   3)                  1.7705         0.518919   
      8. B(O   7,P   6)                  1.5078         1.220197   
      9. B(C   8,P   6)                  1.8152         0.440346   
     10. B(C   9,C   8)                  1.5237         0.382280   
     11. B(C  10,C   9)                  1.4655         0.473431   
     12. B(N  11,C  10)                  1.1601         1.302392   
     13. B(C  12,P   6)                  1.8094         0.449964   
     14. B(C  13,C  12)                  1.5230         0.383289   
     15. B(C  14,C  13)                  1.4666         0.471502   
     16. B(N  15,C  14)                  1.1598         1.303667   
     17. B(H  16,C   0)                  1.0870         0.364105   
     18. B(H  17,C   1)                  1.0872         0.363835   
     19. B(H  18,C   2)                  1.0868         0.364302   
     20. B(H  19,C   4)                  1.0892         0.361209   
     21. B(H  20,C   5)                  1.0871         0.363976   
     22. B(H  21,C   8)                  1.0965         0.351566   
     23. B(H  22,C   8)                  1.0960         0.352271   
     24. B(H  23,C   9)                  1.0962         0.352017   
     25. B(H  24,C   9)                  1.0948         0.353811   
     26. B(H  25,C  12)                  1.0926         0.356730   
     27. B(H  26,C  12)                  1.0958         0.352548   
     28. B(H  27,C  13)                  1.0963         0.351895   
     29. B(H  28,C  13)                  1.0948         0.353866   
     30. A(C   5,C   0,H  16)          119.9536         0.353419   
     31. A(C   1,C   0,C   5)          119.9652         0.433543   
     32. A(C   1,C   0,H  16)          120.0790         0.353321   
     33. A(C   0,C   1,H  17)          119.7736         0.353277   
     34. A(C   2,C   1,H  17)          120.1513         0.352723   
     35. A(C   0,C   1,C   2)          120.0728         0.432695   
     36. A(C   1,C   2,H  18)          118.7873         0.352800   
     37. A(C   1,C   2,C   3)          120.4805         0.430337   
     38. A(C   3,C   2,H  18)          120.7308         0.351540   
     39. A(C   2,C   3,C   4)          118.8578         0.428870   
     40. A(C   2,C   3,P   6)          121.4399         0.445799   
     41. A(C   4,C   3,P   6)          119.7011         0.445971   
     42. A(C   5,C   4,H  19)          119.4314         0.352501   
     43. A(C   3,C   4,H  19)          119.9287         0.351160   
     44. A(C   3,C   4,C   5)          120.6385         0.430773   
     45. A(C   0,C   5,H  20)          120.0537         0.353397   
     46. A(C   0,C   5,C   4)          119.9848         0.433095   
     47. A(C   4,C   5,H  20)          119.9593         0.352956   
     48. A(O   7,P   6,C   8)          109.3583         0.524212   
     49. A(C   3,P   6,C   8)          107.2914         0.450081   
     50. A(C   8,P   6,C  12)          104.8694         0.438614   
     51. A(O   7,P   6,C  12)          109.6514         0.526345   
     52. A(C   3,P   6,O   7)          115.6948         0.540689   
     53. A(C   3,P   6,C  12)          109.4034         0.451851   
     54. A(P   6,C   8,C   9)          114.4551         0.399564   
     55. A(H  21,C   8,H  22)          107.0371         0.288750   
     56. A(C   9,C   8,H  22)          111.3064         0.324375   
     57. A(P   6,C   8,H  22)          109.3494         0.352679   
     58. A(C   9,C   8,H  21)          107.4674         0.324268   
     59. A(P   6,C   8,H  21)          106.8508         0.352559   
     60. A(C   8,C   9,C  10)          111.6603         0.379976   
     61. A(H  23,C   9,H  24)          106.9008         0.289006   
     62. A(C  10,C   9,H  24)          110.0815         0.336292   
     63. A(C   8,C   9,H  24)          110.3973         0.324607   
     64. A(C  10,C   9,H  23)          108.8174         0.336008   
     65. A(C   8,C   9,H  23)          108.8446         0.324337   
     66. L(C   9,C  10,N  11,C   8, 2) 178.0971         0.469857   
     67. L(C   9,C  10,N  11,C   8, 1) 177.9608         0.469857   
     68. A(H  25,C  12,H  26)          106.5757         0.289446   
     69. A(C  13,C  12,H  26)          111.3029         0.324557   
     70. A(P   6,C  12,H  26)          109.7412         0.354018   
     71. A(C  13,C  12,H  25)          107.5378         0.325187   
     72. A(P   6,C  12,H  25)          107.7853         0.354727   
     73. A(P   6,C  12,C  13)          113.5710         0.401272   
     74. A(H  27,C  13,H  28)          107.0311         0.288997   
     75. A(C  14,C  13,H  28)          109.9880         0.336072   
     76. A(C  12,C  13,H  28)          110.4288         0.324756   
     77. A(C  14,C  13,H  27)          108.5271         0.335760   
     78. A(C  12,C  13,H  27)          108.8281         0.324459   
     79. A(C  12,C  13,C  14)          111.8896         0.379881   
     80. L(C  13,C  14,N  15,C  12, 2) 177.3692         0.469589   
     81. L(C  13,C  14,N  15,C  12, 1) 179.7359         0.469589   
     82. D(H  17,C   1,C   0,C   5)    179.4803         0.026366   
     83. D(C   2,C   1,C   0,C   5)      0.0192         0.026366   
     84. D(H  17,C   1,C   0,H  16)      0.0289         0.026366   
     85. D(C   2,C   1,C   0,H  16)   -179.4321         0.026366   
     86. D(C   3,C   2,C   1,H  17)   -179.3553         0.025853   
     87. D(C   3,C   2,C   1,C   0)      0.1037         0.025853   
     88. D(H  18,C   2,C   1,H  17)      0.2201         0.025853   
     89. D(H  18,C   2,C   1,C   0)    179.6791         0.025853   
     90. D(P   6,C   3,C   2,H  18)      0.6094         0.024724   
     91. D(P   6,C   3,C   2,C   1)   -179.8236         0.024724   
     92. D(C   4,C   3,C   2,H  18)   -179.7885         0.024724   
     93. D(C   4,C   3,C   2,C   1)     -0.2215         0.024724   
     94. D(H  19,C   4,C   3,C   2)    179.7780         0.024835   
     95. D(C   5,C   4,C   3,P   6)    179.8296         0.024835   
     96. D(C   5,C   4,C   3,C   2)      0.2205         0.024835   
     97. D(H  19,C   4,C   3,P   6)     -0.6128         0.024835   
     98. D(H  20,C   5,C   4,H  19)     -0.1967         0.026046   
     99. D(C   0,C   5,C   4,H  19)   -179.6609         0.026046   
    100. D(H  20,C   5,C   0,H  16)     -0.0323         0.026457   
    101. D(H  20,C   5,C   0,C   1)   -179.4843         0.026457   
    102. D(C   0,C   5,C   4,C   3)     -0.1012         0.026046   
    103. D(H  20,C   5,C   4,C   3)    179.3631         0.026046   
    104. D(C   4,C   5,C   0,H  16)    179.4314         0.026457   
    105. D(C   4,C   5,C   0,C   1)     -0.0206         0.026457   
    106. D(C  12,P   6,C   3,C   2)    -57.8945         0.005211   
    107. D(C   8,P   6,C   3,C   4)   -124.2526         0.005211   
    108. D(C   8,P   6,C   3,C   2)     55.3462         0.005211   
    109. D(O   7,P   6,C   3,C   4)     -1.9058         0.005211   
    110. D(O   7,P   6,C   3,C   2)    177.6930         0.005211   
    111. D(C   9,C   8,P   6,O   7)     24.4881         0.004349   
    112. D(C   9,C   8,P   6,C   3)    150.6935         0.004349   
    113. D(H  21,C   8,P   6,C  12)    148.1318         0.004349   
    114. D(H  21,C   8,P   6,O   7)    -94.3467         0.004349   
    115. D(H  21,C   8,P   6,C   3)     31.8587         0.004349   
    116. D(C   9,C   8,P   6,C  12)    -93.0333         0.004349   
    117. D(H  24,C   9,C   8,P   6)    -51.4302         0.011640   
    118. D(H  23,C   9,C   8,H  22)     66.9133         0.011640   
    119. D(H  23,C   9,C   8,H  21)    -49.9854         0.011640   
    120. D(H  23,C   9,C   8,P   6)   -168.4719         0.011640   
    121. D(C  10,C   9,C   8,H  22)    -53.2364         0.011640   
    122. D(C  10,C   9,C   8,H  21)   -170.1351         0.011640   
    123. D(C  10,C   9,C   8,P   6)     71.3784         0.011640   
    124. D(H  25,C  12,P   6,C   8)     47.9915         0.004479   
    125. D(H  25,C  12,P   6,O   7)    -69.3299         0.004479   
    126. D(H  25,C  12,P   6,C   3)    162.7987         0.004479   
    127. D(C  13,C  12,P   6,C   8)    167.0183         0.004479   
    128. D(C  13,C  12,P   6,O   7)     49.6970         0.004479   
    129. D(C  13,C  12,P   6,C   3)    -78.1745         0.004479   
    130. D(H  27,C  13,C  12,H  26)     71.5507         0.011699   
    131. D(H  27,C  13,C  12,H  25)    -44.8318         0.011699   
    132. D(H  27,C  13,C  12,P   6)   -164.0002         0.011699   
    133. D(C  14,C  13,C  12,H  26)    -48.3699         0.011699   
    134. D(C  14,C  13,C  12,H  25)   -164.7524         0.011699   
    135. D(H  28,C  13,C  12,P   6)    -46.7924         0.011699   
    136. D(C  14,C  13,C  12,P   6)     76.0792         0.011699   
    -----------------------------------------------------------------

Number of atoms                         .... 29
Number of degrees of freedom            .... 136


         *************************************************************
         *                GEOMETRY OPTIMIZATION CYCLE   1            *
         *************************************************************
---------------------------------
CARTESIAN COORDINATES (ANGSTROEM)
---------------------------------
  C      3.634449    0.871411    1.082069
  C      3.186247    0.754588   -0.231917
  C      1.873977    0.355518   -0.490414
  C      0.996390    0.071411    0.564743
  C      1.460751    0.190481    1.881101
  C      2.772225    0.589287    2.138873
  P     -0.671784   -0.441175    0.265954
  O     -1.485944   -0.764960    1.493049
  C     -0.603116   -1.899590   -0.812654
  C     -1.761103   -2.873238   -0.631472
  C     -3.014413   -2.327485   -1.159777
  N     -3.981453   -1.870982   -1.609400
  C     -1.522171    0.820689   -0.712978
  C     -1.967393    2.027048    0.103135
  C     -0.844917    2.915066    0.423243
  N      0.040379    3.629750    0.648148
  H      4.653623    1.191089    1.283653
  H      3.859379    0.983755   -1.054328
  H      1.544807    0.276379   -1.523182
  H      0.792539   -0.022520    2.714407
  H      3.117911    0.688051    3.164788
  H      0.320112   -2.436130   -0.563353
  H     -0.514600   -1.575790   -1.855965
  H     -1.528386   -3.803087   -1.163293
  H     -1.879945   -3.132338    0.425563
  H     -2.417754    0.363861   -1.140676
  H     -0.891395    1.121804   -1.556875
  H     -2.705398    2.593597   -0.476682
  H     -2.463019    1.703510    1.024093

----------------------------
CARTESIAN COORDINATES (A.U.)
----------------------------
  NO LB      ZA    FRAG     MASS         X           Y           Z
   0 C     6.0000    0    12.011    6.868113    1.646728    2.044814
   1 C     6.0000    0    12.011    6.021134    1.425965   -0.438260
   2 C     6.0000    0    12.011    3.541303    0.671832   -0.926748
   3 C     6.0000    0    12.011    1.882904    0.134947    1.067210
   4 C     6.0000    0    12.011    2.760419    0.359957    3.554766
   5 C     6.0000    0    12.011    5.238746    1.113591    4.041884
   6 P    15.0000    0    30.974   -1.269488   -0.833700    0.502580
   7 O     8.0000    0    15.999   -2.808027   -1.445565    2.821454
   8 C     6.0000    0    12.011   -1.139724   -3.589705   -1.535694
   9 C     6.0000    0    12.011   -3.328002   -5.429633   -1.193309
  10 C     6.0000    0    12.011   -5.696415   -4.398309   -2.191661
  11 N     7.0000    0    14.007   -7.523856   -3.535644   -3.041325
  12 C     6.0000    0    12.011   -2.876486    1.550877   -1.347333
  13 C     6.0000    0    12.011   -3.717834    3.830566    0.194897
  14 C     6.0000    0    12.011   -1.596662    5.508676    0.799813
  15 N     7.0000    0    14.007    0.076305    6.859233    1.224822
  16 H     1.0000    0     1.008    8.794073    2.250832    2.425753
  17 H     1.0000    0     1.008    7.293169    1.859028   -1.992391
  18 H     1.0000    0     1.008    2.919262    0.522281   -2.878397
  19 H     1.0000    0     1.008    1.497682   -0.042557    5.129486
  20 H     1.0000    0     1.008    5.891998    1.300228    5.980583
  21 H     1.0000    0     1.008    0.604924   -4.603619   -1.064583
  22 H     1.0000    0     1.008   -0.972453   -2.977812   -3.507266
  23 H     1.0000    0     1.008   -2.888231   -7.186793   -2.198305
  24 H     1.0000    0     1.008   -3.552581   -5.919261    0.804198
  25 H     1.0000    0     1.008   -4.568893    0.687598   -2.155565
  26 H     1.0000    0     1.008   -1.684492    2.119902   -2.942067
  27 H     1.0000    0     1.008   -5.112461    4.901188   -0.900798
  28 H     1.0000    0     1.008   -4.654431    3.219167    1.935255

--------------------------------
INTERNAL COORDINATES (ANGSTROEM)
--------------------------------
 C      0   0   0     0.000000000000     0.00000000     0.00000000
 C      1   0   0     1.393230725447     0.00000000     0.00000000
 C      2   1   0     1.395754318213   120.07283833     0.00000000
 C      3   2   1     1.401510622388   120.48049727     0.10374987
 C      4   3   2     1.400930828908   118.85776053   359.77848743
 C      1   2   3     1.392788164786   119.96519343     0.00000000
 P      4   3   2     1.770543353943   121.43993860   180.17638915
 O      7   4   3     1.507798186380   115.69475666   177.69304194
 C      7   4   3     1.815236850693   107.29140217    55.34616878
 C      9   7   4     1.523729384503   114.45514990   150.69353777
 C     10   9   7     1.465516450312   111.66031817    71.37840791
 N     11  10   9     1.160052668088   177.67509638    29.48747110
 C      7   4   3     1.809355317479   109.40344403   302.10550197
 C     13   7   4     1.523011849899   113.57103323   281.82552157
 C     14  13   7     1.466627925059   111.88955249    76.07918076
 N     15  14  13     1.159786396927   178.47122524    81.13264379
 H      1   2   3     1.086989316882   120.07895764   180.56786295
 H      2   1   3     1.087190901468   119.77363716   179.46107938
 H      3   2   1     1.086842036381   118.78733507   179.67907891
 H      5   4   3     1.089162794343   119.92867913   179.77804021
 H      6   1   2     1.087085426964   120.05370650   180.51568746
 H      9   7   4     1.096529115065   106.85081975    31.85871996
 H      9   7   4     1.095983286815   109.34940449   276.33880447
 H     10   9   7     1.096179702846   108.84463551   191.52807899
 H     10   9   7     1.094796429565   110.39731597   308.56983164
 H     13   7   4     1.092559522716   107.78531093   162.79867230
 H     13   7   4     1.095769479412   109.74122731    47.11357608
 H     14  13   7     1.096274100266   108.82806589   195.99978717
 H     14  13   7     1.094753674159   110.42875737   313.20761126

---------------------------
INTERNAL COORDINATES (A.U.)
---------------------------
 C      0   0   0     0.000000000000     0.00000000     0.00000000
 C      1   0   0     2.632824512459     0.00000000     0.00000000
 C      2   1   0     2.637593411660   120.07283833     0.00000000
 C      3   2   1     2.648471250095   120.48049727     0.10374987
 C      4   3   2     2.647375599204   118.85776053   359.77848743
 C      1   2   3     2.631988194012   119.96519343     0.00000000
 P      4   3   2     3.345842047187   121.43993860   180.17638915
 O      7   4   3     2.849325637481   115.69475666   177.69304194
 C      7   4   3     3.430300516011   107.29140217    55.34616878
 C      9   7   4     2.879431238919   114.45514990   150.69353777
 C     10   9   7     2.769424735845   111.66031817    71.37840791
 N     11  10   9     2.192181843611   177.67509638    29.48747110
 C      7   4   3     3.419186028989   109.40344403   302.10550197
 C     13   7   4     2.878075295027   113.57103323   281.82552157
 C     14  13   7     2.771525118723   111.88955249    76.07918076
 N     15  14  13     2.191678664039   178.47122524    81.13264379
 H      1   2   3     2.054112119405   120.07895764   180.56786295
 H      2   1   3     2.054493059065   119.77363716   179.46107938
 H      3   2   1     2.053833799594   118.78733507   179.67907891
 H      5   4   3     2.058219396565   119.92867913   179.77804021
 H      6   1   2     2.054293741138   120.05370650   180.51568746
 H      9   7   4     2.072139725344   106.85081975    31.85871996
 H      9   7   4     2.071108259435   109.34940449   276.33880447
 H     10   9   7     2.071479431942   108.84463551   191.52807899
 H     10   9   7     2.068865424273   110.39731597   308.56983164
 H     13   7   4     2.064638282941   107.78531093   162.79867230
 H     13   7   4     2.070704221997   109.74122731    47.11357608
 H     14  13   7     2.071657817215   108.82806589   195.99978717
 H     14  13   7     2.068784628264   110.42875737   313.20761126

---------------------
BASIS SET INFORMATION
---------------------
There are 5 groups of distinct atoms

 Group   1 Type C   : 7s4p1d contracted to 3s2p1d pattern {511/31/1}
 Group   2 Type P   : 10s7p1d contracted to 4s3p1d pattern {5311/511/1}
 Group   3 Type O   : 7s4p1d contracted to 3s2p1d pattern {511/31/1}
 Group   4 Type N   : 7s4p1d contracted to 3s2p1d pattern {511/31/1}
 Group   5 Type H   : 4s1p contracted to 2s1p pattern {31/1}

Atom   0C    basis set group =>   1
Atom   1C    basis set group =>   1
Atom   2C    basis set group =>   1
Atom   3C    basis set group =>   1
Atom   4C    basis set group =>   1
Atom   5C    basis set group =>   1
Atom   6P    basis set group =>   2
Atom   7O    basis set group =>   3
Atom   8C    basis set group =>   1
Atom   9C    basis set group =>   1
Atom  10C    basis set group =>   1
Atom  11N    basis set group =>   4
Atom  12C    basis set group =>   1
Atom  13C    basis set group =>   1
Atom  14C    basis set group =>   1
Atom  15N    basis set group =>   4
Atom  16H    basis set group =>   5
Atom  17H    basis set group =>   5
Atom  18H    basis set group =>   5
Atom  19H    basis set group =>   5
Atom  20H    basis set group =>   5
Atom  21H    basis set group =>   5
Atom  22H    basis set group =>   5
Atom  23H    basis set group =>   5
Atom  24H    basis set group =>   5
Atom  25H    basis set group =>   5
Atom  26H    basis set group =>   5
Atom  27H    basis set group =>   5
Atom  28H    basis set group =>   5
---------------------------------
AUXILIARY/J BASIS SET INFORMATION
---------------------------------
There are 5 groups of distinct atoms

 Group   1 Type C   : 12s5p4d2f1g contracted to 6s4p3d1f1g pattern {711111/2111/211/2/1}
 Group   2 Type P   : 14s5p5d2f1g contracted to 8s4p3d1f1g pattern {71111111/2111/311/2/1}
 Group   3 Type O   : 12s5p4d2f1g contracted to 6s4p3d1f1g pattern {711111/2111/211/2/1}
 Group   4 Type N   : 12s5p4d2f1g contracted to 6s4p3d1f1g pattern {711111/2111/211/2/1}
 Group   5 Type H   : 5s2p1d contracted to 3s1p1d pattern {311/2/1}

Atom   0C    basis set group =>   1
Atom   1C    basis set group =>   1
Atom   2C    basis set group =>   1
Atom   3C    basis set group =>   1
Atom   4C    basis set group =>   1
Atom   5C    basis set group =>   1
Atom   6P    basis set group =>   2
Atom   7O    basis set group =>   3
Atom   8C    basis set group =>   1
Atom   9C    basis set group =>   1
Atom  10C    basis set group =>   1
Atom  11N    basis set group =>   4
Atom  12C    basis set group =>   1
Atom  13C    basis set group =>   1
Atom  14C    basis set group =>   1
Atom  15N    basis set group =>   4
Atom  16H    basis set group =>   5
Atom  17H    basis set group =>   5
Atom  18H    basis set group =>   5
Atom  19H    basis set group =>   5
Atom  20H    basis set group =>   5
Atom  21H    basis set group =>   5
Atom  22H    basis set group =>   5
Atom  23H    basis set group =>   5
Atom  24H    basis set group =>   5
Atom  25H    basis set group =>   5
Atom  26H    basis set group =>   5
Atom  27H    basis set group =>   5
Atom  28H    basis set group =>   5


           ************************************************************
           *        Program running with 6 parallel MPI-processes     *
           *              working on a common directory               *
           ************************************************************
------------------------------------------------------------------------------
                             ORCA STARTUP CALCULATIONS
                           -- RI-GTO INTEGRALS CHOSEN --
------------------------------------------------------------------------------
------------------------------------------------------------------------------
                   ___                                                        
                  /   \      - P O W E R E D   B Y -                         
                 /     \                                                     
                 |  |  |   _    _      __       _____    __    __             
                 |  |  |  | |  | |    /  \     |  _  \  |  |  /  |          
                  \  \/   | |  | |   /    \    | | | |  |  | /  /          
                 / \  \   | |__| |  /  /\  \   | |_| |  |  |/  /          
                |  |  |   |  __  | /  /__\  \  |    /   |      \           
                |  |  |   | |  | | |   __   |  |    \   |  |\   \          
                \     /   | |  | | |  |  |  |  | |\  \  |  | \   \       
                 \___/    |_|  |_| |__|  |__|  |_| \__\ |__|  \__/        
                                                                              
                      - O R C A' S   B I G   F R I E N D -                    
                                      &                                       
                       - I N T E G R A L  F E E D E R -                       
                                                                              
 v1 FN, 2020, v2 2021, v3 2022-2024                                           
------------------------------------------------------------------------------


----------------------
SHARK INTEGRAL PACKAGE
----------------------

Number of atoms                             ...     29
Number of basis functions                   ...    293
Number of shells                            ...    137
Maximum angular momentum                    ...      2
Integral batch strategy                     ... SHARK/LIBINT Hybrid
RI-J (if used) integral strategy            ... SPLIT-RIJ (Revised 2003 algorithm where possible)
Printlevel                                  ...      1
Contraction scheme used                     ... SEGMENTED contraction
Prescreening option                         ... SCHWARTZ
   Thresh                                   ... 2.500e-11
   Tcut                                     ... 2.500e-12
   Tpresel                                  ... 2.500e-12 
Coulomb Range Separation                    ... NOT USED
Exchange Range Separation                   ... NOT USED
Multipole approximations                    ... NOT USED
Finite Nucleus Model                        ... NOT USED
CABS basis                                  ... NOT available
Auxiliary Coulomb fitting basis             ... AVAILABLE
   # of basis functions in Aux-J            ...    929
   # of shells in Aux-J                     ...    307
   Maximum angular momentum in Aux-J        ...      4
Auxiliary J/K fitting basis                 ... NOT available
Auxiliary Correlation fitting basis         ... NOT available
Auxiliary 'external' fitting basis          ... NOT available

Checking pre-screening integrals            ... done (  0.0 sec) Dimension = 137
Check shell pair data                       ... done (  0.0 sec)
Shell pair information
Shell pair cut-off parameter TPreSel        ...   2.5e-12
Total number of shell pairs                 ...      9453
Shell pairs after pre-screening             ...      7877
Total number of primitive shell pairs       ...     34973
Primitive shell pairs kept                  ...     19144
          la=0 lb=0:   2404 shell pairs
          la=1 lb=0:   2935 shell pairs
          la=1 lb=1:    920 shell pairs
          la=2 lb=0:    938 shell pairs
          la=2 lb=1:    583 shell pairs
          la=2 lb=2:     97 shell pairs

Calculating one electron integrals          ... done (  0.0 sec)
Calculating RI/J V-Matrix + Cholesky decomp.... done (  0.0 sec)
Calculating Nuclear repulsion               ... done (  0.0 sec) ENN=   1166.805795731761 Eh

Diagonalization of the overlap matrix:
Smallest eigenvalue                        ... 2.896e-04
Time for diagonalization                   ...    0.010 sec
Threshold for overlap eigenvalues          ... 1.000e-07
Number of eigenvalues below threshold      ... 0
Time for construction of square roots      ...    0.008 sec
Total time needed                          ...    0.018 sec

-------------------
DFT GRID GENERATION
-------------------

General Integration Accuracy     IntAcc      ... 4.388
Radial Grid Type                 RadialGrid  ... OptM3 with GC (2021)
Angular Grid (max. ang.)         AngularGrid ... 4 (Lebedev-302)
Angular grid pruning method      GridPruning ... 4 (adaptive)
Weight generation scheme         WeightScheme... mBecke (2022)
Basis function cutoff            BFCut       ... 1.0000e-11
Integration weight cutoff        WCut        ... 1.0000e-14
Partially contracted basis set               ... off
Rotationally invariant grid construction     ... off
Angular grids for H and He will be reduced by one unit

Total number of grid points                  ...   138573
Total number of batches                      ...     2182
Average number of points per batch           ...       63
Average number of grid points per atom       ...     4778
Initializing property integral containers    ... done (  0.0 sec)

SHARK setup successfully completed in   1.0 seconds

Maximum memory used throughout the entire STARTUP-calculation: 37.8 MB


           ************************************************************
           *        Program running with 6 parallel MPI-processes     *
           *              working on a common directory               *
           ************************************************************
-------------------------------------------------------------------------------
                                 ORCA GUESS
                   Start orbitals & Density for SCF / CASSCF
-------------------------------------------------------------------------------

------------
SCF SETTINGS
------------
Hamiltonian:
 Density Functional     Method          .... DFT(GTOs)
 Exchange Functional    Exchange        .... B88
   X-Alpha parameter    XAlpha          ....  0.666667
   Becke's b parameter  XBeta           ....  0.004200
 Correlation Functional Correlation     .... P86
 LDA part of GGA corr.  LDAOpt          .... PW91-LDA
 Gradients option       PostSCFGGA      .... off
   NL short-range parameter             ....  4.400000
 RI-approximation to the Coulomb term is turned on
   Number of AuxJ basis functions       .... 929


General Settings:
 Integral files         IntName         .... data/geom_opt_PO_BP86/342156/342156
 Hartree-Fock type      HFTyp           .... RHF
 Total Charge           Charge          ....    0
 Multiplicity           Mult            ....    1
 Number of Electrons    NEL             ....  122
 Basis Dimension        Dim             ....  293
 Nuclear Repulsion      ENuc            ....   1166.8057957318 Eh

Convergence Acceleration:
 AO-DIIS                CNVDIIS         .... on
   Start iteration      DIISMaxIt       ....    12
   Startup error        DIISStart       ....  0.200000
   # of expansion vecs  DIISMaxEq       ....     5
   Bias factor          DIISBfac        ....   1.050
   Max. coefficient     DIISMaxC        ....  10.000
 MO-DIIS                CNVKDIIS        .... off
 Trust-Rad. Augm. Hess. CNVTRAH         .... auto
   Auto Start mean grad. ratio tolernc. ....  1.125000
   Auto Start start iteration           ....    50
   Auto Start num. interpolation iter.  ....    10
   Max. Number of Micro iterations      ....    24
   Max. Number of Macro iterations      .... Maxiter - #DIIS iter
   Number of Davidson start vectors     ....     2
   Converg. threshold    (grad. norm)   ....   1.000e-05
   Grad. Scal. Fac. for Micro threshold ....   0.100
   Minimum threshold for Micro iter.    ....   1.000e-02
   NR start threshold (gradient norm)   ....   1.000e-04
   Initial trust radius                 ....   0.400
   Minimum AH scaling param. (alpha)    ....   1.000
   Maximum AH scaling param. (alpha)    .... 1000.000
   Quad. conv. algorithm                .... NR
   White noise on init. David. guess    .... on
   Maximum white noise                  ....   0.010
   Pseudo random numbers                .... off
   Inactive MOs                         .... canonical
   Orbital update algorithm             .... Taylor
   Preconditioner                       .... Diag
   Full preconditioner red. dimension   ....   250
 SOSCF                  CNVSOSCF        .... on
   Start iteration      SOSCFMaxIt      ....   150
   Startup grad/error   SOSCFStart      ....  0.003300
   Hessian update       SOSCFHessUp     .... L-BFGS
 Level Shifting         CNVShift        .... on
   Level shift para.    LevelShift      ....    0.2500
   Turn off err/grad.   ShiftErr        ....    0.0010
 Zerner damping         CNVZerner       .... off
 Static damping         CNVDamp         .... on
   Fraction old density DampFac         ....    0.7000
   Max. Damping (<1)    DampMax         ....    0.9800
   Min. Damping (>=0)   DampMin         ....    0.0000
   Turn off err/grad.   DampErr         ....    0.1000

SCF Procedure:
 Maximum # iterations   MaxIter         ....   125
 SCF integral mode      SCFMode         .... Direct
   Integral package                     .... SHARK and LIBINT hybrid scheme
 Reset frequency        DirectResetFreq ....    20
 Integral Threshold     Thresh          ....  2.500e-11 Eh
 Primitive CutOff       TCut            ....  2.500e-12 Eh

Convergence Tolerance:
 Convergence Check Mode ConvCheckMode   .... Total+1el-Energy
 Convergence forced     ConvForced      .... 0
 Energy Change          TolE            ....  1.000e-08 Eh
 1-El. energy change                    ....  1.000e-05 Eh
 Orbital Gradient       TolG            ....  1.000e-05
 Orbital Rotation angle TolX            ....  1.000e-05
 DIIS Error             TolErr          ....  5.000e-07

------------------------------
INITIAL GUESS: MODEL POTENTIAL
------------------------------
Loading Hartree-Fock densities                     ... done
Calculating cut-offs                               ... done
Initializing the effective Hamiltonian             ... done
Setting up the integral package (SHARK)            ... done
Starting the Coulomb interaction                   ... done (   0.1 sec)
Making the grid                                    ... done (   0.2 sec)
Mapping shells                                     ... done
Starting the XC term evaluation                    ... done (   0.1 sec)
  promolecular density results
     # of electrons  =    121.989514602
     EX              =   -109.467309051
     EC              =     -4.528955064
     EX+EC           =   -113.996264115
Transforming the Hamiltonian                       ... done (   0.0 sec)
Diagonalizing the Hamiltonian                      ... done (   0.0 sec)
Back transforming the eigenvectors                 ... done (   0.0 sec)
Now organizing SCF variables                       ... done
                      ------------------
                      INITIAL GUESS DONE (   0.5 sec)
                      ------------------
             **** ENERGY FILE WAS UPDATED (data/geom_opt_PO_BP86/342156/342156.en.tmp) ****
Finished Guess after   0.6 sec
Maximum memory used throughout the entire GUESS-calculation: 21.1 MB


           ************************************************************
           *        Program running with 6 parallel MPI-processes     *
           *              working on a common directory               *
           ************************************************************

-------------------------------------------------------------------------------------------
                                      ORCA LEAN-SCF
                              memory conserving SCF solver
-------------------------------------------------------------------------------------------

----------------------------------------D-I-I-S--------------------------------------------
Iteration    Energy (Eh)           Delta-E    RMSDP     MaxDP     DIISErr   Damp  Time(sec)
-------------------------------------------------------------------------------------------
               ***  Starting incremental Fock matrix formation  ***
    1    -990.1511779149752783     0.00e+00  4.49e-03  1.64e-01  3.34e-01  0.700   0.7
    2    -990.3965147020828681    -2.45e-01  2.53e-03  9.46e-02  7.97e-02  0.700   0.6
                               ***Turning on AO-DIIS***
    3    -990.4582094626050548    -6.17e-02  8.41e-04  2.39e-02  4.07e-02  0.700   0.6
    4    -990.5080986001678411    -4.99e-02  1.39e-03  4.64e-02  3.24e-02  0.000   0.7
    5    -990.6229669641481905    -1.15e-01  4.07e-04  1.39e-02  8.65e-03  0.000   0.7
                              *** Initializing SOSCF ***
---------------------------------------S-O-S-C-F--------------------------------------
Iteration    Energy (Eh)           Delta-E    RMSDP     MaxDP     MaxGrad    Time(sec)
--------------------------------------------------------------------------------------
    6    -990.6242884605528616    -1.32e-03  1.24e-04  3.08e-03  2.35e-03     0.6
               *** Restarting incremental Fock matrix formation ***
    7    -990.6243612899986601    -7.28e-05  1.58e-04  6.42e-03  5.59e-04     0.6
    8    -990.6242735360185634     8.78e-05  9.07e-05  3.05e-03  2.59e-03     0.5
    9    -990.6243773678877460    -1.04e-04  5.99e-05  2.57e-03  3.91e-04     0.5
   10    -990.6243657097923005     1.17e-05  4.47e-05  1.84e-03  7.02e-04     0.6
   11    -990.6243796383248537    -1.39e-05  1.75e-05  4.86e-04  6.14e-05     0.5
   12    -990.6243789371485491     7.01e-07  1.11e-05  3.94e-04  1.28e-04     0.6
   13    -990.6243799751953247    -1.04e-06  7.84e-06  2.14e-04  6.66e-05     0.5
   14    -990.6243797267968603     2.48e-07  5.31e-06  1.55e-04  1.02e-04     0.5
   15    -990.6243800583581560    -3.32e-07  1.72e-06  7.21e-05  1.28e-05     0.5
   16    -990.6243800426375401     1.57e-08  1.14e-06  5.68e-05  4.01e-05     0.5
   17    -990.6243800588451904    -1.62e-08  1.05e-06  4.11e-05  1.18e-05     0.5
   18    -990.6243800445374745     1.43e-08  7.36e-07  3.45e-05  1.81e-05     0.5
   19    -990.6243800621302853    -1.76e-08  1.82e-07  6.01e-06  1.46e-06     0.5
                  *** Gradient check signals convergence ***

               *****************************************************
               *                     SUCCESS                       *
               *           SCF CONVERGED AFTER  19 CYCLES          *
               *****************************************************

             **** ENERGY FILE WAS UPDATED (data/geom_opt_PO_BP86/342156/342156.en.tmp) ****

----------------
TOTAL SCF ENERGY
----------------

Total Energy       :       -990.62438006213029 Eh          -26956.25981 eV

Components:
Nuclear Repulsion  :       1166.80579573176124 Eh           31750.39986 eV
Electronic Energy  :      -2157.43017579389107 Eh          -58706.65967 eV
One Electron Energy:      -3668.51932875917464 Eh          -99825.48597 eV
Two Electron Energy:       1511.08915296528335 Eh           41118.82629 eV

Virial components:
Potential Energy   :      -1973.36722304132127 Eh          -53698.05210 eV
Kinetic Energy     :        982.74284297919098 Eh           26741.79228 eV
Virial Ratio       :          2.00801993841954

DFT components:
N(Alpha)           :       61.000016564860 electrons
N(Beta)            :       61.000016564860 electrons
N(Total)           :      122.000033129720 electrons
E(X)               :     -111.019555664888 Eh       
E(C)               :       -4.539176872648 Eh       
E(XC)              :     -115.558732537536 Eh       

---------------
SCF CONVERGENCE
---------------

  Last Energy change         ...    1.7593e-08  Tolerance :   1.0000e-08
  Last MAX-Density change    ...    6.0083e-06  Tolerance :   1.0000e-07
  Last RMS-Density change    ...    1.8204e-07  Tolerance :   5.0000e-09
  Last DIIS Error            ...    2.3534e-03  Tolerance :   5.0000e-07
  Last Orbital Gradient      ...    1.4606e-06  Tolerance :   1.0000e-05
  Last Orbital Rotation      ...    6.5875e-06  Tolerance :   1.0000e-05


----------------
ORBITAL ENERGIES
----------------

  NO   OCC          E(Eh)            E(eV) 
   0   2.0000     -76.423202     -2079.5810 
   1   2.0000     -18.725101      -509.5359 
   2   2.0000     -14.015365      -381.3775 
   3   2.0000     -14.006552      -381.1377 
   4   2.0000      -9.976151      -271.4649 
   5   2.0000      -9.969161      -271.2747 
   6   2.0000      -9.958884      -270.9950 
   7   2.0000      -9.949902      -270.7506 
   8   2.0000      -9.949744      -270.7463 
   9   2.0000      -9.944693      -270.6088 
  10   2.0000      -9.942502      -270.5492 
  11   2.0000      -9.938160      -270.4311 
  12   2.0000      -9.937741      -270.4197 
  13   2.0000      -9.936796      -270.3940 
  14   2.0000      -9.936545      -270.3871 
  15   2.0000      -9.933841      -270.3135 
  16   2.0000      -6.384719      -173.7370 
  17   2.0000      -4.605854      -125.3317 
  18   2.0000      -4.605593      -125.3245 
  19   2.0000      -4.605440      -125.3204 
  20   2.0000      -0.869670       -23.6649 
  21   2.0000      -0.825476       -22.4623 
  22   2.0000      -0.816671       -22.2227 
  23   2.0000      -0.796465       -21.6729 
  24   2.0000      -0.752813       -20.4851 
  25   2.0000      -0.743574       -20.2337 
  26   2.0000      -0.703296       -19.1377 
  27   2.0000      -0.691449       -18.8153 
  28   2.0000      -0.648957       -17.6590 
  29   2.0000      -0.613211       -16.6863 
  30   2.0000      -0.572825       -15.5874 
  31   2.0000      -0.563612       -15.3367 
  32   2.0000      -0.517170       -14.0729 
  33   2.0000      -0.489460       -13.3189 
  34   2.0000      -0.477698       -12.9988 
  35   2.0000      -0.474371       -12.9083 
  36   2.0000      -0.455286       -12.3890 
  37   2.0000      -0.437697       -11.9103 
  38   2.0000      -0.430238       -11.7074 
  39   2.0000      -0.417711       -11.3665 
  40   2.0000      -0.413648       -11.2559 
  41   2.0000      -0.401368       -10.9218 
  42   2.0000      -0.394758       -10.7419 
  43   2.0000      -0.382242       -10.4013 
  44   2.0000      -0.378595       -10.3021 
  45   2.0000      -0.365066        -9.9340 
  46   2.0000      -0.357542        -9.7292 
  47   2.0000      -0.343375        -9.3437 
  48   2.0000      -0.327730        -8.9180 
  49   2.0000      -0.323496        -8.8028 
  50   2.0000      -0.312803        -8.5118 
  51   2.0000      -0.310510        -8.4494 
  52   2.0000      -0.305115        -8.3026 
  53   2.0000      -0.300930        -8.1887 
  54   2.0000      -0.299028        -8.1370 
  55   2.0000      -0.293481        -7.9860 
  56   2.0000      -0.291396        -7.9293 
  57   2.0000      -0.254421        -6.9231 
  58   2.0000      -0.251900        -6.8545 
  59   2.0000      -0.233312        -6.3487 
  60   2.0000      -0.229611        -6.2480 
  61   0.0000      -0.078097        -2.1251 
  62   0.0000      -0.061500        -1.6735 
  63   0.0000      -0.019844        -0.5400 
  64   0.0000      -0.011849        -0.3224 
  65   0.0000      -0.009345        -0.2543 
  66   0.0000      -0.003029        -0.0824 
  67   0.0000       0.002504         0.0681 
  68   0.0000       0.017126         0.4660 
  69   0.0000       0.036834         1.0023 
  70   0.0000       0.044720         1.2169 
  71   0.0000       0.052447         1.4272 
*Only the first 10 virtual orbitals were printed.

                    ********************************
                    * MULLIKEN POPULATION ANALYSIS *
                    ********************************

-----------------------
MULLIKEN ATOMIC CHARGES
-----------------------
   0 C :    0.021118
   1 C :    0.018997
   2 C :   -0.005002
   3 C :   -0.075344
   4 C :    0.007570
   5 C :    0.019046
   6 P :    0.451740
   7 O :   -0.456745
   8 C :   -0.157555
   9 C :    0.103691
  10 C :   -0.258547
  11 N :    0.026140
  12 C :   -0.135192
  13 C :    0.084136
  14 C :   -0.281295
  15 N :    0.049064
  16 H :    0.007853
  17 H :    0.004054
  18 H :   -0.006410
  19 H :    0.016579
  20 H :    0.008643
  21 H :    0.070883
  22 H :    0.058697
  23 H :    0.065443
  24 H :    0.083059
  25 H :    0.076774
  26 H :    0.050293
  27 H :    0.070347
  28 H :    0.081965
Sum of atomic charges:   -0.0000000

--------------------------------
MULLIKEN REDUCED ORBITAL CHARGES
--------------------------------
  0 C s       :     3.169280  s :     3.169280
      pz      :     0.962790  p :     2.776548
      px      :     0.866561
      py      :     0.947197
      dz2     :     0.010303  d :     0.033053
      dxz     :     0.009728
      dyz     :     0.006355
      dx2y2   :     0.003708
      dxy     :     0.002959

  1 C s       :     3.166944  s :     3.166944
      pz      :     0.896088  p :     2.781426
      px      :     0.916035
      py      :     0.969302
      dz2     :     0.007825  d :     0.032633
      dxz     :     0.011709
      dyz     :     0.004554
      dx2y2   :     0.004242
      dxy     :     0.004304

  2 C s       :     3.218535  s :     3.218535
      pz      :     0.850980  p :     2.753300
      px      :     0.930463
      py      :     0.971856
      dz2     :     0.008880  d :     0.033168
      dxz     :     0.010081
      dyz     :     0.003179
      dx2y2   :     0.005319
      dxy     :     0.005709

  3 C s       :     3.047156  s :     3.047156
      pz      :     0.981753  p :     2.994780
      px      :     0.968942
      py      :     1.044085
      dz2     :     0.009793  d :     0.033408
      dxz     :     0.009184
      dyz     :     0.006823
      dx2y2   :     0.004193
      dxy     :     0.003414

  4 C s       :     3.244196  s :     3.244196
      pz      :     0.910744  p :     2.715422
      px      :     0.872290
      py      :     0.932387
      dz2     :     0.007856  d :     0.032812
      dxz     :     0.011512
      dyz     :     0.004654
      dx2y2   :     0.004293
      dxy     :     0.004498

  5 C s       :     3.170680  s :     3.170680
      pz      :     0.858186  p :     2.777612
      px      :     0.948998
      py      :     0.970428
      dz2     :     0.008783  d :     0.032661
      dxz     :     0.010297
      dyz     :     0.003370
      dx2y2   :     0.005050
      dxy     :     0.005162

  6 P s       :     5.275667  s :     5.275667
      pz      :     2.898180  p :     8.779966
      px      :     2.929525
      py      :     2.952261
      dz2     :     0.102186  d :     0.492627
      dxz     :     0.084953
      dyz     :     0.140108
      dx2y2   :     0.090259
      dxy     :     0.075121

  7 O s       :     3.819962  s :     3.819962
      pz      :     1.453503  p :     4.624702
      px      :     1.541272
      py      :     1.629926
      dz2     :     0.003553  d :     0.012082
      dxz     :     0.003649
      dyz     :     0.002456
      dx2y2   :     0.001209
      dxy     :     0.001215

  8 C s       :     3.059047  s :     3.059047
      pz      :     1.040151  p :     3.071782
      px      :     1.021808
      py      :     1.009823
      dz2     :     0.006002  d :     0.026726
      dxz     :     0.003093
      dyz     :     0.005866
      dx2y2   :     0.005428
      dxy     :     0.006337

  9 C s       :     2.857317  s :     2.857317
      pz      :     1.057590  p :     3.003626
      px      :     0.928813
      py      :     1.017223
      dz2     :     0.006726  d :     0.035366
      dxz     :     0.006007
      dyz     :     0.006103
      dx2y2   :     0.008939
      dxy     :     0.007591

 10 C s       :     3.178059  s :     3.178059
      pz      :     0.992351  p :     3.036862
      px      :     1.076740
      py      :     0.967771
      dz2     :     0.007535  d :     0.043626
      dxz     :     0.010265
      dyz     :     0.004182
      dx2y2   :     0.011027
      dxy     :     0.010618

 11 N s       :     3.584435  s :     3.584435
      pz      :     1.090368  p :     3.359379
      px      :     1.199288
      py      :     1.069723
      dz2     :     0.004395  d :     0.030046
      dxz     :     0.007622
      dyz     :     0.002706
      dx2y2   :     0.007738
      dxy     :     0.007586

 12 C s       :     3.044545  s :     3.044545
      pz      :     1.036646  p :     3.063741
      px      :     1.028963
      py      :     0.998133
      dz2     :     0.003740  d :     0.026907
      dxz     :     0.006616
      dyz     :     0.006394
      dx2y2   :     0.003875
      dxy     :     0.006282

 13 C s       :     2.875820  s :     2.875820
      pz      :     1.029770  p :     3.004735
      px      :     1.026224
      py      :     0.948741
      dz2     :     0.005659  d :     0.035308
      dxz     :     0.007289
      dyz     :     0.006933
      dx2y2   :     0.005232
      dxy     :     0.010195

 14 C s       :     3.175579  s :     3.175579
      pz      :     0.969434  p :     3.062336
      px      :     1.063513
      py      :     1.029389
      dz2     :     0.003830  d :     0.043379
      dxz     :     0.009743
      dyz     :     0.006216
      dx2y2   :     0.014280
      dxy     :     0.009311

 15 N s       :     3.553997  s :     3.553997
      pz      :     1.058423  p :     3.366837
      px      :     1.174771
      py      :     1.133642
      dz2     :     0.003270  d :     0.030102
      dxz     :     0.005723
      dyz     :     0.003870
      dx2y2   :     0.008962
      dxy     :     0.008278

 16 H s       :     0.969851  s :     0.969851
      pz      :     0.004025  p :     0.022296
      px      :     0.012657
      py      :     0.005613

 17 H s       :     0.973493  s :     0.973493
      pz      :     0.009422  p :     0.022453
      px      :     0.007675
      py      :     0.005356

 18 H s       :     0.983768  s :     0.983768
      pz      :     0.012636  p :     0.022642
      px      :     0.004763
      py      :     0.005243

 19 H s       :     0.960604  s :     0.960604
      pz      :     0.009502  p :     0.022817
      px      :     0.008316
      py      :     0.005000

 20 H s       :     0.968991  s :     0.968991
      pz      :     0.012719  p :     0.022366
      px      :     0.004766
      py      :     0.004880

 21 H s       :     0.905819  s :     0.905819
      pz      :     0.005883  p :     0.023298
      px      :     0.010742
      py      :     0.006674

 22 H s       :     0.918489  s :     0.918489
      pz      :     0.012689  p :     0.022814
      px      :     0.004450
      py      :     0.005675

 23 H s       :     0.911880  s :     0.911880
      pz      :     0.007082  p :     0.022677
      px      :     0.004668
      py      :     0.010926

 24 H s       :     0.893936  s :     0.893936
      pz      :     0.014218  p :     0.023004
      px      :     0.003901
      py      :     0.004885

 25 H s       :     0.899065  s :     0.899065
      pz      :     0.006439  p :     0.024161
      px      :     0.011368
      py      :     0.006354

 26 H s       :     0.926925  s :     0.926925
      pz      :     0.009464  p :     0.022783
      px      :     0.008042
      py      :     0.005277

 27 H s       :     0.906947  s :     0.906947
      pz      :     0.007335  p :     0.022707
      px      :     0.008719
      py      :     0.006653

 28 H s       :     0.894982  s :     0.894982
      pz      :     0.011336  p :     0.023052
      px      :     0.006219
      py      :     0.005497



                     *******************************
                     * LOEWDIN POPULATION ANALYSIS *
                     *******************************

----------------------
LOEWDIN ATOMIC CHARGES
----------------------
   0 C :   -0.006412
   1 C :   -0.018650
   2 C :   -0.026142
   3 C :   -0.200215
   4 C :   -0.003237
   5 C :   -0.016044
   6 P :    0.868063
   7 O :   -0.497950
   8 C :   -0.179801
   9 C :   -0.053747
  10 C :   -0.036394
  11 N :   -0.074433
  12 C :   -0.178014
  13 C :   -0.055183
  14 C :   -0.045774
  15 N :   -0.069091
  16 H :    0.035382
  17 H :    0.034765
  18 H :    0.025138
  19 H :    0.038135
  20 H :    0.036534
  21 H :    0.045771
  22 H :    0.036530
  23 H :    0.062164
  24 H :    0.066024
  25 H :    0.049157
  26 H :    0.034267
  27 H :    0.064933
  28 H :    0.064228

-------------------------------
LOEWDIN REDUCED ORBITAL CHARGES
-------------------------------
  0 C s       :     2.864884  s :     2.864884
      pz      :     1.069122  p :     3.052390
      px      :     1.035492
      py      :     0.947775
      dz2     :     0.030396  d :     0.089139
      dxz     :     0.029086
      dyz     :     0.014537
      dx2y2   :     0.008798
      dxy     :     0.006321

  1 C s       :     2.863125  s :     2.863125
      pz      :     1.054604  p :     3.066987
      px      :     1.044519
      py      :     0.967863
      dz2     :     0.023684  d :     0.088538
      dxz     :     0.033144
      dyz     :     0.010109
      dx2y2   :     0.011459
      dxy     :     0.010142

  2 C s       :     2.863946  s :     2.863946
      pz      :     1.040332  p :     3.071339
      px      :     1.058575
      py      :     0.972432
      dz2     :     0.025365  d :     0.090858
      dxz     :     0.030125
      dyz     :     0.007119
      dx2y2   :     0.014504
      dxy     :     0.013745

  3 C s       :     2.905889  s :     2.905889
      pz      :     1.093182  p :     3.203767
      px      :     1.080761
      py      :     1.029824
      dz2     :     0.029261  d :     0.090559
      dxz     :     0.028599
      dyz     :     0.015143
      dx2y2   :     0.010101
      dxy     :     0.007455

  4 C s       :     2.867203  s :     2.867203
      pz      :     1.052304  p :     3.046685
      px      :     1.049987
      py      :     0.944394
      dz2     :     0.023363  d :     0.089349
      dxz     :     0.033774
      dyz     :     0.010528
      dx2y2   :     0.011294
      dxy     :     0.010392

  5 C s       :     2.863439  s :     2.863439
      pz      :     1.045408  p :     3.063974
      px      :     1.054337
      py      :     0.964229
      dz2     :     0.024754  d :     0.088631
      dxz     :     0.030347
      dyz     :     0.007296
      dx2y2   :     0.013803
      dxy     :     0.012430

  6 P s       :     4.927347  s :     4.927347
      pz      :     2.804489  p :     8.518313
      px      :     2.848722
      py      :     2.865102
      dz2     :     0.137475  d :     0.686277
      dxz     :     0.118554
      dyz     :     0.204060
      dx2y2   :     0.128045
      dxy     :     0.098142

  7 O s       :     3.656098  s :     3.656098
      pz      :     1.558618  p :     4.823019
      px      :     1.603818
      py      :     1.660583
      dz2     :     0.005325  d :     0.018833
      dxz     :     0.007031
      dyz     :     0.003261
      dx2y2   :     0.001603
      dxy     :     0.001613

  8 C s       :     2.891533  s :     2.891533
      pz      :     1.093336  p :     3.218707
      px      :     1.045568
      py      :     1.079803
      dz2     :     0.016860  d :     0.069561
      dxz     :     0.006218
      dyz     :     0.015723
      dx2y2   :     0.012691
      dxy     :     0.018069

  9 C s       :     2.828260  s :     2.828260
      pz      :     1.082550  p :     3.132636
      px      :     1.004304
      py      :     1.045782
      dz2     :     0.019143  d :     0.092851
      dxz     :     0.014434
      dyz     :     0.014743
      dx2y2   :     0.021285
      dxy     :     0.023246

 10 C s       :     2.927131  s :     2.927131
      pz      :     0.962355  p :     3.005573
      px      :     1.083637
      py      :     0.959580
      dz2     :     0.016017  d :     0.103690
      dxz     :     0.025538
      dyz     :     0.009329
      dx2y2   :     0.026519
      dxy     :     0.026287

 11 N s       :     3.430770  s :     3.430770
      pz      :     1.126954  p :     3.591274
      px      :     1.342393
      py      :     1.121927
      dz2     :     0.006992  d :     0.052389
      dxz     :     0.013765
      dyz     :     0.004565
      dx2y2   :     0.013108
      dxy     :     0.013960

 12 C s       :     2.888137  s :     2.888137
      pz      :     1.074715  p :     3.219733
      px      :     1.091836
      py      :     1.053182
      dz2     :     0.007905  d :     0.070144
      dxz     :     0.017782
      dyz     :     0.018211
      dx2y2   :     0.009937
      dxy     :     0.016309

 13 C s       :     2.828166  s :     2.828166
      pz      :     1.072158  p :     3.134255
      px      :     1.037912
      py      :     1.024184
      dz2     :     0.013633  d :     0.092762
      dxz     :     0.019253
      dyz     :     0.018754
      dx2y2   :     0.012469
      dxy     :     0.028653

 14 C s       :     2.926473  s :     2.926473
      pz      :     0.939366  p :     3.016050
      px      :     1.062724
      py      :     1.013960
      dz2     :     0.010881  d :     0.103252
      dxz     :     0.020498
      dyz     :     0.013350
      dx2y2   :     0.029679
      dxy     :     0.028845

 15 N s       :     3.430153  s :     3.430153
      pz      :     1.076285  p :     3.586482
      px      :     1.298790
      py      :     1.211408
      dz2     :     0.006495  d :     0.052456
      dxz     :     0.008826
      dyz     :     0.005953
      dx2y2   :     0.013190
      dxy     :     0.017992

 16 H s       :     0.896603  s :     0.896603
      pz      :     0.012755  p :     0.068015
      px      :     0.038907
      py      :     0.016353

 17 H s       :     0.897042  s :     0.897042
      pz      :     0.029085  p :     0.068193
      px      :     0.023605
      py      :     0.015503

 18 H s       :     0.905695  s :     0.905695
      pz      :     0.039402  p :     0.069167
      px      :     0.014922
      py      :     0.014843

 19 H s       :     0.890949  s :     0.890949
      pz      :     0.030232  p :     0.070917
      px      :     0.025932
      py      :     0.014752

 20 H s       :     0.895336  s :     0.895336
      pz      :     0.039144  p :     0.068131
      px      :     0.014791
      py      :     0.014196

 21 H s       :     0.882582  s :     0.882582
      pz      :     0.015559  p :     0.071647
      px      :     0.033987
      py      :     0.022101

 22 H s       :     0.890735  s :     0.890735
      pz      :     0.041845  p :     0.072735
      px      :     0.013325
      py      :     0.017564

 23 H s       :     0.870167  s :     0.870167
      pz      :     0.020410  p :     0.067669
      px      :     0.013233
      py      :     0.034025

 24 H s       :     0.864050  s :     0.864050
      pz      :     0.044262  p :     0.069926
      px      :     0.011669
      py      :     0.013995

 25 H s       :     0.876453  s :     0.876453
      pz      :     0.019079  p :     0.074390
      px      :     0.035678
      py      :     0.019633

 26 H s       :     0.892783  s :     0.892783
      pz      :     0.032508  p :     0.072950
      px      :     0.023162
      py      :     0.017281

 27 H s       :     0.867353  s :     0.867353
      pz      :     0.021733  p :     0.067714
      px      :     0.025650
      py      :     0.020332

 28 H s       :     0.865631  s :     0.865631
      pz      :     0.036093  p :     0.070141
      px      :     0.018220
      py      :     0.015828



                      *****************************
                      * MAYER POPULATION ANALYSIS *
                      *****************************

  NA   - Mulliken gross atomic population
  ZA   - Total nuclear charge
  QA   - Mulliken gross atomic charge
  VA   - Mayer's total valence
  BVA  - Mayer's bonded valence
  FA   - Mayer's free valence

  ATOM       NA         ZA         QA         VA         BVA        FA
  0 C      5.9789     6.0000     0.0211     3.8370     3.8370    -0.0000
  1 C      5.9810     6.0000     0.0190     3.8771     3.8771    -0.0000
  2 C      6.0050     6.0000    -0.0050     3.8631     3.8631    -0.0000
  3 C      6.0753     6.0000    -0.0753     3.6808     3.6808    -0.0000
  4 C      5.9924     6.0000     0.0076     3.9095     3.9095    -0.0000
  5 C      5.9810     6.0000     0.0190     3.8389     3.8389    -0.0000
  6 P     14.5483    15.0000     0.4517     4.8813     4.8813    -0.0000
  7 O      8.4567     8.0000    -0.4567     2.1430     2.1430    -0.0000
  8 C      6.1576     6.0000    -0.1576     3.9096     3.9096    -0.0000
  9 C      5.8963     6.0000     0.1037     4.0942     4.0942    -0.0000
 10 C      6.2585     6.0000    -0.2585     4.2165     4.2165    -0.0000
 11 N      6.9739     7.0000     0.0261     3.1169     3.1169    -0.0000
 12 C      6.1352     6.0000    -0.1352     3.9192     3.9192    -0.0000
 13 C      5.9159     6.0000     0.0841     4.0648     4.0648    -0.0000
 14 C      6.2813     6.0000    -0.2813     4.2452     4.2452    -0.0000
 15 N      6.9509     7.0000     0.0491     3.1616     3.1616    -0.0000
 16 H      0.9921     1.0000     0.0079     0.9791     0.9791    -0.0000
 17 H      0.9959     1.0000     0.0041     0.9794     0.9794    -0.0000
 18 H      1.0064     1.0000    -0.0064     0.9844     0.9844    -0.0000
 19 H      0.9834     1.0000     0.0166     1.0113     1.0113    -0.0000
 20 H      0.9914     1.0000     0.0086     0.9801     0.9801    -0.0000
 21 H      0.9291     1.0000     0.0709     0.9887     0.9887     0.0000
 22 H      0.9413     1.0000     0.0587     0.9886     0.9886    -0.0000
 23 H      0.9346     1.0000     0.0654     0.9842     0.9842    -0.0000
 24 H      0.9169     1.0000     0.0831     1.0114     1.0114    -0.0000
 25 H      0.9232     1.0000     0.0768     1.0186     1.0186     0.0000
 26 H      0.9497     1.0000     0.0503     0.9909     0.9909     0.0000
 27 H      0.9297     1.0000     0.0703     0.9836     0.9836    -0.0000
 28 H      0.9180     1.0000     0.0820     1.0134     1.0134     0.0000

  Mayer bond orders larger than 0.100000
B(  0-C ,  1-C ) :   1.3790 B(  0-C ,  5-C ) :   1.3808 B(  0-C , 16-H ) :   0.9800 
B(  1-C ,  2-C ) :   1.4089 B(  1-C , 17-H ) :   0.9796 B(  2-C ,  3-C ) :   1.3186 
B(  2-C , 18-H ) :   0.9783 B(  3-C ,  4-C ) :   1.3710 B(  3-C ,  6-P ) :   0.8980 
B(  4-C ,  5-C ) :   1.3769 B(  4-C , 19-H ) :   0.9814 B(  5-C , 20-H ) :   0.9827 
B(  6-P ,  7-O ) :   1.9034 B(  6-P ,  8-C ) :   0.9100 B(  6-P , 12-C ) :   0.9468 
B(  8-C ,  9-C ) :   1.0768 B(  8-C , 21-H ) :   0.9211 B(  8-C , 22-H ) :   0.9136 
B(  9-C , 10-C ) :   1.1252 B(  9-C , 23-H ) :   0.8925 B(  9-C , 24-H ) :   0.8807 
B( 10-C , 11-N ) :   2.9755 B( 12-C , 13-C ) :   1.0783 B( 12-C , 25-H ) :   0.9057 
B( 12-C , 26-H ) :   0.9053 B( 13-C , 14-C ) :   1.1158 B( 13-C , 27-H ) :   0.8940 
B( 13-C , 28-H ) :   0.8837 B( 14-C , 15-N ) :   3.0383 

-------
TIMINGS
-------

Total SCF time: 0 days 0 hours 0 min 11 sec 

Total time                  ....      11.019 sec
Sum of individual times     ....      10.949 sec  ( 99.4%)

SCF preparation             ....       0.095 sec  (  0.9%)
Fock matrix formation       ....      10.040 sec  ( 91.1%)
  Startup                   ....       0.050 sec  (  0.5% of F)
  Split-RI-J                ....       3.248 sec  ( 32.4% of F)
  XC integration            ....       6.510 sec  ( 64.8% of F)
    Basis function eval.    ....       1.985 sec  ( 30.5% of XC)
    Density eval.           ....       1.819 sec  ( 27.9% of XC)
    XC-Functional eval.     ....       0.210 sec  (  3.2% of XC)
    XC-Potential eval.      ....       1.397 sec  ( 21.5% of XC)
Diagonalization             ....       0.000 sec  (  0.0%)
Density matrix formation    ....       0.127 sec  (  1.2%)
Total Energy calculation    ....       0.051 sec  (  0.5%)
Population analysis         ....       0.048 sec  (  0.4%)
Orbital Transformation      ....       0.048 sec  (  0.4%)
Orbital Orthonormalization  ....       0.000 sec  (  0.0%)
DIIS solution               ....       0.234 sec  (  2.1%)
SOSCF solution              ....       0.306 sec  (  2.8%)
Finished LeanSCF after  11.0 sec

Maximum memory used throughout the entire LEANSCF-calculation: 28.9 MB


-------------------------------------------------------------------------------
                          DFT DISPERSION CORRECTION                            
                                                                               
                              DFTD3 V3.1  Rev 1                                
                          USING Becke-Johnson damping                          
-------------------------------------------------------------------------------
The BP86 functional is recognized
Active option DFTDOPT                   ...         4   

molecular C6(AA) [au] = 11181.295561 


            DFT-D V3
 parameters
 s6 scaling factor         :     1.0000 
 a1 scaling factor         :     0.3946 
 s8 scaling factor         :     3.2822 
 a2 scaling factor         :     4.8516 
 ad hoc parameters k1-k3   :    16.0000     1.3333    -4.0000 

 Edisp/kcal,au: -40.666224607986  -0.064805747086 
 E6   /kcal   : -14.827419945 
 E8   /kcal   : -25.838804663 
 % E8         :  63.538734937 

-------------------------   ----------------
Dispersion correction           -0.064805747
-------------------------   ----------------


-------------------------   --------------------
FINAL SINGLE POINT ENERGY      -990.689185809216
-------------------------   --------------------



           ************************************************************
           *        Program running with 6 parallel MPI-processes     *
           *              working on a common directory               *
           ************************************************************
------------------------------------------------------------------------------
                         ORCA SCF GRADIENT CALCULATION
------------------------------------------------------------------------------

Nuc. rep. gradient        (SHARK) ... done (  0.0 sec)
HCore & Overlap gradient  (SHARK) ... done (  0.1 sec)
Split-RIJ-J gradient      (SHARK) ... done (  0.8 sec)
XC gradient                       ... done (  3.0 sec)
Dispersion correction             ... done (  0.1 sec)

-------------------
DISPERSION GRADIENT
-------------------

   1   C   :    0.000211726   -0.000030934    0.000048243
   2   C   :    0.000622564    0.000054624   -0.000100757
   3   C   :    0.000569398   -0.000133963    0.000274132
   4   C   :    0.000777988   -0.000188713    0.000271765
   5   C   :    0.000414386   -0.000193230   -0.000002389
   6   C   :    0.000482079   -0.000000043    0.000326282
   7   P   :    0.000357859   -0.000381106    0.000351939
   8   O   :   -0.000307975   -0.000233381    0.000688290
   9   C   :   -0.000048791   -0.000667113   -0.000237811
  10   C   :   -0.000162030   -0.000617972   -0.000105999
  11   C   :   -0.000636370   -0.000633779   -0.000330347
  12   N   :   -0.000893505   -0.000283608   -0.000401481
[...]

  5 C s       :     2.872226  s :     2.872226
      pz      :     1.042816  p :     3.060216
      px      :     1.047738
      py      :     0.969661
      dz2     :     0.023721  d :     0.085770
      dxz     :     0.028271
      dyz     :     0.008224
      dx2y2   :     0.012981
      dxy     :     0.012572

  6 P s       :     4.962533  s :     4.962533
      pz      :     2.799313  p :     8.517101
      px      :     2.853885
      py      :     2.863902
      dz2     :     0.135609  d :     0.642574
      dxz     :     0.110986
      dyz     :     0.196727
      dx2y2   :     0.111961
      dxy     :     0.087292

  7 O s       :     3.667888  s :     3.667888
      pz      :     1.522087  p :     4.809351
      px      :     1.625118
      py      :     1.662146
      dz2     :     0.006132  d :     0.018379
      dxz     :     0.006541
      dyz     :     0.003336
      dx2y2   :     0.001191
      dxy     :     0.001178

  8 C s       :     2.909698  s :     2.909698
      pz      :     1.088065  p :     3.204517
      px      :     1.031728
      py      :     1.084724
      dz2     :     0.014293  d :     0.065568
      dxz     :     0.009759
      dyz     :     0.013216
      dx2y2   :     0.011489
      dxy     :     0.016812

  9 C s       :     2.840729  s :     2.840729
      pz      :     1.074242  p :     3.135794
      px      :     1.009822
      py      :     1.051730
      dz2     :     0.018778  d :     0.089651
      dxz     :     0.018380
      dyz     :     0.010707
      dx2y2   :     0.020747
      dxy     :     0.021040

 10 C s       :     2.931170  s :     2.931170
      pz      :     0.982540  p :     3.002379
      px      :     1.050925
      py      :     0.968914
      dz2     :     0.019226  d :     0.102130
      dxz     :     0.023480
      dyz     :     0.013169
      dx2y2   :     0.023320
      dxy     :     0.022937

 11 N s       :     3.439791  s :     3.439791
      pz      :     1.164881  p :     3.585771
      px      :     1.281632
      py      :     1.139258
      dz2     :     0.007540  d :     0.051099
      dxz     :     0.013469
      dyz     :     0.006980
      dx2y2   :     0.010516
      dxy     :     0.012594

 12 C s       :     2.907187  s :     2.907187
      pz      :     1.066210  p :     3.207757
      px      :     1.097580
      py      :     1.043967
      dz2     :     0.008862  d :     0.065505
      dxz     :     0.014854
      dyz     :     0.017661
      dx2y2   :     0.010457
      dxy     :     0.013672

 13 C s       :     2.840253  s :     2.840253
      pz      :     1.070088  p :     3.135203
      px      :     1.038966
      py      :     1.026149
      dz2     :     0.014765  d :     0.089742
      dxz     :     0.015621
      dyz     :     0.018421
      dx2y2   :     0.013053
      dxy     :     0.027883

 14 C s       :     2.930086  s :     2.930086
      pz      :     0.938954  p :     3.012886
      px      :     1.072403
      py      :     1.001530
      dz2     :     0.010548  d :     0.101163
      dxz     :     0.021605
      dyz     :     0.011238
      dx2y2   :     0.029016
      dxy     :     0.028757

 15 N s       :     3.439018  s :     3.439018
      pz      :     1.075273  p :     3.580848
      px      :     1.316334
      py      :     1.189240
      dz2     :     0.006349  d :     0.051132
      dxz     :     0.009273
      dyz     :     0.004881
      dx2y2   :     0.013189
      dxy     :     0.017439

 16 H s       :     0.896612  s :     0.896612
      pz      :     0.011862  p :     0.065826
      px      :     0.036987
      py      :     0.016977

 17 H s       :     0.897179  s :     0.897179
      pz      :     0.028421  p :     0.065987
      px      :     0.022195
      py      :     0.015371

 18 H s       :     0.906122  s :     0.906122
      pz      :     0.038186  p :     0.066461
      px      :     0.014311
      py      :     0.013964

 19 H s       :     0.890823  s :     0.890823
      pz      :     0.028494  p :     0.070061
      px      :     0.026518
      py      :     0.015049

 20 H s       :     0.895905  s :     0.895905
      pz      :     0.038353  p :     0.065937
      px      :     0.014130
      py      :     0.013454

 21 H s       :     0.880473  s :     0.880473
      pz      :     0.016808  p :     0.069212
      px      :     0.029506
      py      :     0.022898

 22 H s       :     0.889921  s :     0.889921
      pz      :     0.040456  p :     0.069977
      px      :     0.013536
      py      :     0.015985

 23 H s       :     0.868733  s :     0.868733
      pz      :     0.016336  p :     0.065627
      px      :     0.012071
      py      :     0.037220

 24 H s       :     0.861678  s :     0.861678
      pz      :     0.043549  p :     0.068656
      px      :     0.012925
      py      :     0.012182

 25 H s       :     0.877707  s :     0.877707
      pz      :     0.016474  p :     0.072654
      px      :     0.037575
      py      :     0.018605

 26 H s       :     0.890884  s :     0.890884
      pz      :     0.033050  p :     0.070154
      px      :     0.021640
      py      :     0.015463

 27 H s       :     0.867090  s :     0.867090
      pz      :     0.018607  p :     0.065565
      px      :     0.025466
      py      :     0.021492

 28 H s       :     0.864953  s :     0.864953
      pz      :     0.036543  p :     0.068015
      px      :     0.015906
      py      :     0.015566



                      *****************************
                      * MAYER POPULATION ANALYSIS *
                      *****************************

  NA   - Mulliken gross atomic population
  ZA   - Total nuclear charge
  QA   - Mulliken gross atomic charge
  VA   - Mayer's total valence
  BVA  - Mayer's bonded valence
  FA   - Mayer's free valence

  ATOM       NA         ZA         QA         VA         BVA        FA
  0 C      5.9832     6.0000     0.0168     3.8401     3.8401    -0.0000
  1 C      5.9918     6.0000     0.0082     3.8870     3.8870    -0.0000
  2 C      6.0021     6.0000    -0.0021     3.8652     3.8652    -0.0000
  3 C      6.1188     6.0000    -0.1188     3.7361     3.7361    -0.0000
  4 C      5.9877     6.0000     0.0123     3.8948     3.8948    -0.0000
  5 C      5.9884     6.0000     0.0116     3.8412     3.8412    -0.0000
  6 P     14.5236    15.0000     0.4764     4.7807     4.7807    -0.0000
  7 O      8.4578     8.0000    -0.4578     2.1395     2.1395    -0.0000
  8 C      6.1570     6.0000    -0.1570     3.9074     3.9074    -0.0000
  9 C      5.9400     6.0000     0.0600     4.0607     4.0607    -0.0000
 10 C      6.2454     6.0000    -0.2454     4.1836     4.1836    -0.0000
 11 N      6.9822     7.0000     0.0178     3.1062     3.1062    -0.0000
 12 C      6.1511     6.0000    -0.1511     3.8993     3.8993    -0.0000
 13 C      5.9563     6.0000     0.0437     4.0523     4.0523    -0.0000
 14 C      6.2606     6.0000    -0.2606     4.2273     4.2273    -0.0000
 15 N      6.9575     7.0000     0.0425     3.1507     3.1507    -0.0000
 16 H      0.9856     1.0000     0.0144     0.9793     0.9793    -0.0000
 17 H      0.9894     1.0000     0.0106     0.9796     0.9796     0.0000
 18 H      1.0008     1.0000    -0.0008     0.9843     0.9843    -0.0000
 19 H      0.9758     1.0000     0.0242     1.0152     1.0152    -0.0000
 20 H      0.9852     1.0000     0.0148     0.9804     0.9804    -0.0000
 21 H      0.9172     1.0000     0.0828     0.9854     0.9854    -0.0000
 22 H      0.9321     1.0000     0.0679     0.9862     0.9862    -0.0000
 23 H      0.9238     1.0000     0.0762     0.9813     0.9813    -0.0000
 24 H      0.9059     1.0000     0.0941     1.0159     1.0159    -0.0000
 25 H      0.9118     1.0000     0.0882     1.0199     1.0199    -0.0000
 26 H      0.9365     1.0000     0.0635     0.9897     0.9897    -0.0000
 27 H      0.9214     1.0000     0.0786     0.9813     0.9813    -0.0000
 28 H      0.9113     1.0000     0.0887     1.0125     1.0125    -0.0000

  Mayer bond orders larger than 0.100000
B(  0-C ,  1-C ) :   1.3795 B(  0-C ,  5-C ) :   1.3863 B(  0-C , 16-H ) :   0.9749 
B(  1-C ,  2-C ) :   1.4123 B(  1-C , 17-H ) :   0.9742 B(  2-C ,  3-C ) :   1.3305 
B(  2-C , 18-H ) :   0.9721 B(  3-C ,  4-C ) :   1.3825 B(  3-C ,  6-P ) :   0.8872 
B(  4-C ,  5-C ) :   1.3700 B(  4-C , 19-H ) :   0.9711 B(  5-C , 20-H ) :   0.9779 
B(  6-P ,  7-O ) :   1.8577 B(  6-P ,  8-C ) :   0.8998 B(  6-P , 12-C ) :   0.9227 
B(  8-C ,  9-C ) :   1.0685 B(  8-C , 21-H ) :   0.9236 B(  8-C , 22-H ) :   0.9182 
B(  9-C , 10-C ) :   1.1248 B(  9-C , 23-H ) :   0.8894 B(  9-C , 24-H ) :   0.8849 
B( 10-C , 11-N ) :   2.9532 B( 12-C , 13-C ) :   1.0681 B( 12-C , 25-H ) :   0.9048 
B( 12-C , 26-H ) :   0.9137 B( 13-C , 14-C ) :   1.1226 B( 13-C , 27-H ) :   0.8947 
B( 13-C , 28-H ) :   0.8844 B( 14-C , 15-N ) :   3.0202 

-------
TIMINGS
-------

Total SCF time: 0 days 0 hours 0 min 4 sec 

Total time                  ....       4.754 sec
Sum of individual times     ....       4.670 sec  ( 98.2%)

SCF preparation             ....       0.105 sec  (  2.2%)
Fock matrix formation       ....       4.136 sec  ( 87.0%)
  Startup                   ....       0.021 sec  (  0.5% of F)
  Split-RI-J                ....       1.279 sec  ( 30.9% of F)
  XC integration            ....       2.742 sec  ( 66.3% of F)
    Basis function eval.    ....       0.855 sec  ( 31.2% of XC)
    Density eval.           ....       0.775 sec  ( 28.3% of XC)
    XC-Functional eval.     ....       0.080 sec  (  2.9% of XC)
    XC-Potential eval.      ....       0.524 sec  ( 19.1% of XC)
Diagonalization             ....       0.000 sec  (  0.0%)
Density matrix formation    ....       0.052 sec  (  1.1%)
Total Energy calculation    ....       0.025 sec  (  0.5%)
Population analysis         ....       0.102 sec  (  2.1%)
Orbital Transformation      ....       0.035 sec  (  0.7%)
Orbital Orthonormalization  ....       0.000 sec  (  0.0%)
DIIS solution               ....       0.030 sec  (  0.6%)
SOSCF solution              ....       0.185 sec  (  3.9%)
Finished LeanSCF after   4.8 sec

Maximum memory used throughout the entire LEANSCF-calculation: 30.5 MB


-------------------------------------------------------------------------------
                          DFT DISPERSION CORRECTION                            
                                                                               
                              DFTD3 V3.1  Rev 1                                
                          USING Becke-Johnson damping                          
-------------------------------------------------------------------------------
The BP86 functional is recognized
Active option DFTDOPT                   ...         4   

molecular C6(AA) [au] = 11201.039217 


            DFT-D V3
 parameters
 s6 scaling factor         :     1.0000 
 a1 scaling factor         :     0.3946 
 s8 scaling factor         :     3.2822 
 a2 scaling factor         :     4.8516 
 ad hoc parameters k1-k3   :    16.0000     1.3333    -4.0000 

 Edisp/kcal,au: -40.892812235740  -0.065166837417 
 E6   /kcal   : -14.891110761 
 E8   /kcal   : -26.001701475 
 % E8         :  63.585016665 

-------------------------   ----------------
Dispersion correction           -0.065166837
-------------------------   ----------------


-------------------------   --------------------
FINAL SINGLE POINT ENERGY      -990.698575339650
-------------------------   --------------------

                                *** OPTIMIZATION RUN DONE ***



           ************************************************************
           *        Program running with 6 parallel MPI-processes     *
           *              working on a common directory               *
           ************************************************************

------------------------------------------------------------------------------
                              ORCA PROPERTY CALCULATIONS
------------------------------------------------------------------------------

GBWName                                 ... data/geom_opt_PO_BP86/342156/342156.gbw
Number of atoms                         ...     29
Number of basis functions               ...    293
Max core memory                         ...   1024 MB

Electric properties:
Dipole moment                           ... YES
Quadrupole moment                       ...  NO
Static polarizability (Dipole/Dipole)   ...  NO
Static polarizability (Dipole/Quad.)    ...  NO
Static polarizability (Quad./Quad.)     ...  NO
Static polarizability (Velocity)        ...  NO

Atomic electric properties:
Dipole moment                           ...  NO
Quadrupole moment                       ...  NO
Static polarizability                   ...  NO

Choice of electric origin               ... Center of mass
Position of electric origin             ...    -0.346520     0.102120     0.319580

General magnetic properties:
Magnetizability                         ...  NO

EPR properties:
g-Tensor (aka g-matrix)                 ...  NO
Zero-Field splitting spin-orbit         ...  NO
Zero-field splitting spin-spin          ...  NO
Hyperfine couplings                     ...  NO (   0 nuclei)
Quadrupole couplings                    ...  NO (   0 nuclei)
Contact density                         ...  NO (   0 nuclei)

NMR properties:
Chemical shifts                         ...  NO (   0 nuclei)
Spin-rotation constants                 ...  NO (   0 nuclei)
Spin-spin couplings                     ...  NO (   0 nuclei,    0 pairs)

Choice of magnetic origin               ... GIAO
Position of magnetic origin             ...     0.000000     0.000000     0.000000

Properties with geometric perturbations:
SCF Hessian                             ...  NO
IR spectrum                             ...  NO
VCD spectrum                            ...  NO
X-ray spectroscopy properties:
SCF XES/XAS/RIXS spectra                ...  NO


-------------
DIPOLE MOMENT
-------------

Method             : SCF
Type of density    : Electron Density
Multiplicity       :   1
Irrep              :   0
Energy             :  -990.6334085022328964 Eh
Relativity type    : 
Basis              : AO
                                X                 Y                 Z
Electronic contribution:     -2.973545241       1.059418122       1.762805666
Nuclear contribution   :      4.058004315      -2.046572338      -2.419255722
                        -----------------------------------------
Total Dipole Moment    :      1.084459074      -0.987154216      -0.656450056
                        -----------------------------------------
Magnitude (a.u.)       :      1.606689642
Magnitude (Debye)      :      4.083880517



--------------------
Rotational spectrum 
--------------------
 
Rotational constants in cm-1:             0.026725             0.011153             0.009412 
Rotational constants in MHz :           801.189327           334.369320           282.176258 

Dipole components along the rotational axes: 
x,y,z [a.u.] :    -0.160107     1.402274     0.767753 
x,y,z [Debye]:    -0.406959     3.564297     1.951473 

 

Dipole moment calculation done in   0.0 sec 

Maximum memory used throughout the entire PROP-calculation: 15.3 MB

--------------------------------
SUGGESTED CITATIONS FOR THIS RUN
--------------------------------

Below you find a list of papers that are relevant to this ORCA run
We neither can nor want to force you to cite these papers, but we appreciate if you do
You receive ORCA, which is the product of decades of hard work by many enthusiastic individuals, for free
The only thing we kindly ask in return is that you cite our papers,
We deeply appreciate it, if you show your appreciation for ORCA by not just citing the generic ORCA reference.

Please note that relegating all ORCA citations to the supporting information does *not* help us.
SI sections are not indexed - citations you put there will not count into any citation statistics
But we need these citations in order to attract the funding resources that allow us to do what we are doing

Therefore, if you are a happy ORCA user, please consider citing a few of the papers listed below in the main body of your paper

In addition to the list printed below, the program has created the file data/geom_opt_PO_BP86/342156/342156.bibtex that contains the list in bibtex format
You can import this file easily into all common literature databanks and citation aid programs


List of essential papers. We consider these as the minimum necessary citations

  1. Neese,F.
     Software update: the ORCA program system, version 5.0
     WIRES Comput. Molec. Sci., 2022 12(1)e1606
     doi.org/10.1002/wcms.1606

List of papers to cite with high priority. The work reported in these papers was absolutely
necessary for this run to complete.
Our perspective: the developers of density functionals and basis sets usually get cited in chemistry papers
Good! But without the algorithms to do something with them, the functionals or basis sets would not do anything.
Hence, in our opinion, the algorithm design and method developments papers are equally worthy of getting cited

  1. Neese,F.
     An improvement of the resolution of the identity approximation for the formation of the Coulomb matrix
     J. Comp. Chem., 2003 24(14)1740-1747
     doi.org/10.1002/jcc.10318
  2. Neese,F.
     The SHARK Integral Generation and Digestion System
     J. Comp. Chem., 2022  1-16
     doi.org/10.1002/jcc.26942
  3. Grimme,S.; Antony,J.; Ehrlich,S.; Krieg,H.
     A consistent and accurate ab initio parametrization of density functional dispersion correction (DFT-D) for the 94 elements H-Pu
     J. Chem. Phys., 2010 132 154104-XXXX
     doi.org/10.1063/1.3382344
  4. Grimme,S.; Ehrlich,S.; Goerigk,L.
     Effect of the damping function in dispersion corrected density functional theory
     J. Comput. Chem., 2011 32(7)1456-1465
     doi.org/10.1002/jcc.21759

List of suggested additional citations. These are papers that are important in the 'surrounding' of 
of this run, or papers that preceded the highly important papers. If you like your results we are grateful for a citation.

  1. Neese,F.
     The ORCA program system
     WIRES Comput. Molec. Sci., 2012 2(1)73-78
     doi.org/10.1002/wcms.81
  2. Neese,F.
     Software update: the ORCA program system, version 4.0
     WIRES Comput. Molec. Sci., 2018 8(1)1-6
     doi.org/10.1002/wcms.1327
  3. Neese,F.; Wennmohs,F.; Becker,U.; Riplinger,C.
     The ORCA quantum chemistry program package
     J. Chem. Phys., 2020 152 Art. No. L224108
     doi.org/10.1063/5.0004608

List of optional additional citations

  1. Neese,F.
     Approximate second-order SCF convergence for spin unrestricted wavefunctions
     Chem. Phys. Lett., 2000 325(1-3)93-98
     doi.org/10.1016/s0009-2614(00)00662-x

Timings for individual modules:

Sum of individual times          ...      177.084 sec (=   2.951 min)
Startup calculation              ...       16.509 sec (=   0.275 min)   9.3 %
SCF iterations                   ...      102.717 sec (=   1.712 min)  58.0 %
Property calculations            ...        0.234 sec (=   0.004 min)   0.1 %
SCF Gradient evaluation          ...       57.453 sec (=   0.958 min)  32.4 %
Geometry relaxation              ...        0.171 sec (=   0.003 min)   0.1 %
                             ****ORCA TERMINATED NORMALLY****
TOTAL RUN TIME: 0 days 0 hours 3 minutes 0 seconds 182 msec
