
                                 *****************
                                 * O   R   C   A *
                                 *****************

                                            #,                                       
                                            ###                                      
                                            ####                                     
                                            #####                                    
                                            ######                                   
                                           ########,                                 
                                     ,,################,,,,,                         
                               ,,#################################,,                 
                          ,,##########################################,,             
                       ,#########################################, ''#####,          
                    ,#############################################,,   '####,        
                  ,##################################################,,,,####,       
                ,###########''''           ''''###############################       
              ,#####''   ,,,,##########,,,,          '''####'''          '####       
            ,##' ,,,,###########################,,,                        '##       
           ' ,,###''''                  '''############,,,                           
         ,,##''                                '''############,,,,        ,,,,,,###''
      ,#''                                            '''#######################'''  
     '                                                          ''''####''''         
             ,#######,   #######,   ,#######,      ##                                
            ,#'     '#,  ##    ##  ,#'     '#,    #''#        ,####,   ,####,        
            ##       ##  ##   ,#'  ##            #'  '#       #'       #'  '#        
            ##       ##  #######   ##           ,######,      #####,   #    #        
            '#,     ,#'  ##    ##  '#,     ,#' ,#      #,     #,   #   #,  ,#        
             '#######'   ##     ##  '#######'  #'      '#     '####' # '####'        



                #########################################################
                #                        -***-                          #
                #          Department of theory and spectroscopy        #
                #                                                       #
                #                      Frank Neese                      #
                #                                                       #
                #     Directorship, Architecture, Infrastructure        #
                #                    SHARK, DRIVERS                     #
                #        Core code/Algorithms in most modules           #
                #                                                       #
                #        Max Planck Institute fuer Kohlenforschung      #
                #                Kaiser Wilhelm Platz 1                 #
                #                 D-45470 Muelheim/Ruhr                 #
                #                      Germany                          #
                #                                                       #
                #                  All rights reserved                  #
                #                        -***-                          #
                #########################################################


                         Program Version 6.0.0  -   RELEASE   -


 With contributions from (in alphabetic order):
   Daniel Aravena         : Magnetic Suceptibility
   Michael Atanasov       : Ab Initio Ligand Field Theory (pilot matlab implementation)
   Alexander A. Auer      : GIAO ZORA, VPT2 properties, NMR spectrum
   Ute Becker             : All parallelization in ORCA, NUMFREQ, NUMCALC
   Giovanni Bistoni       : ED, misc. LED, open-shell LED, HFLD
   Martin Brehm           : Molecular dynamics
   Dmytro Bykov           : pre 5.0 version of the SCF Hessian
   Marcos Casanova-Páez   : Triplet and SCS-CIS(D). UHF-(DLPNO)-IP/EA/STEOM-CCSD. UHF-CVS-IP/STEOM-CCSD
   Vijay G. Chilkuri      : MRCI spin determinant printing, contributions to CSF-ICE
   Pauline Colinet        : FMM embedding
   Dipayan Datta          : RHF DLPNO-CCSD density
   Achintya Kumar Dutta   : EOM-CC, STEOM-CC
   Nicolas Foglia         : Exact transition moments, OPA infrastructure, MCD improvements
   Dmitry Ganyushin       : Spin-Orbit,Spin-Spin,Magnetic field MRCI
   Miquel Garcia          : C-PCM and meta-GGA Hessian, CCSD/C-PCM, Gaussian charge scheme
   Tiago L. C. Gouveia    : GS-ROHF, GS-ROCIS
   Yang Guo               : DLPNO-NEVPT2, F12-NEVPT2, CIM, IAO-localization
   Andreas Hansen         : Spin unrestricted coupled pair/coupled cluster methods
   Ingolf Harden          : AUTO-CI MPn and infrastructure 
   Benjamin Helmich-Paris : MC-RPA, TRAH-(SCF,CASSCF), AVAS, COSX integrals, SCF dyn. polar.
   Lee Huntington         : MR-EOM, pCC
   Robert Izsak           : Overlap fitted RIJCOSX, COSX-SCS-MP3, EOM
   Riya Kayal             : Wick's Theorem for AUTO-CI, AUTO-CI UHF-CCSDT
   Emily Kempfer          : AUTO-CI, RHF CISDT and CCSDT
   Christian Kollmar      : KDIIS, OOCD, Brueckner-CCSD(T), CCSD density, CASPT2, CASPT2-K, improved NEVPT2
   Axel Koslowski         : Symmetry handling
   Simone Kossmann        : Meta GGA functionals, TD-DFT gradient, OOMP2, (MP2 Hessian; deprecated post 5.0)
   Lucas Lang             : DCDCAS
   Marvin Lechner         : AUTO-CI (C++ implementation), FIC-MRCC
   Spencer Leger          : CASSCF response
   Dagmar Lenk            : GEPOL surface, SMD, ORCA-2-JSON
   Dimitrios Liakos       : Extrapolation schemes; Compound Job, initial MDCI parallelization
   Dimitrios Manganas     : Further ROCIS development; embedding schemes. LFT, Crystal Embedding
   Dimitrios Pantazis     : SARC Basis sets
   Anastasios Papadopoulos: AUTO-CI, single reference methods and gradients
   Taras Petrenko         : pre 6.0 DFT Hessian and TD-DFT gradient, (ASA, deprecated), ECA, 1-Electron XAS/XES, NRVS
   Peter Pinski           : DLPNO-MP2, DLPNO-MP2 Gradient
   Christoph Reimann      : Effective Core Potentials
   Marius Retegan         : Local ZFS, SOC
   Christoph Riplinger    : Optimizer, TS searches, QM/MM, DLPNO-CCSD(T), (RO)-DLPNO pert. Triples
   Michael Roemelt        : Original ROCIS implementation
   Masaaki Saitow         : Open-shell DLPNO-CCSD energy and density
   Barbara Sandhoefer     : DKH picture change effects
   Kantharuban Sivalingam : CASSCF convergence/infrastructure, NEVPT2 and variants, FIC-MRCI
   Bernardo de Souza      : ESD, SOC TD-DFT
   Georgi Stoychev        : AutoAux, RI-MP2 NMR, DLPNO-MP2 response, X2C
   Van Anh Tran           : RI-MP2 g-tensors
   Willem Van den Heuvel  : Paramagnetic NMR
   Zikuan Wang            : NOTCH, Electric field optimization 
   Frank Wennmohs         : Technical directorship and infrastructure
   Hang Xu                : AUTO-CI-Response properties 


 We gratefully acknowledge several colleagues who have allowed us to
 interface, adapt or use parts of their codes:
   Stefan Grimme, W. Hujo, H. Kruse, P. Pracht,  : VdW corrections, initial TS optimization,
                  C. Bannwarth, S. Ehlert,         DFT functionals, gCP, sTDA/sTD-DF
                  L. Wittmann, M. Mueller
   Ed Valeev, F. Pavosevic, A. Kumar             : LibInt (2-el integral package), F12 methods
   Garnet Chan, S. Sharma, J. Yang, R. Olivares  : DMRG
   Ulf Ekstrom                                   : XCFun DFT Library
   Mihaly Kallay                                 : mrcc  (arbitrary order and MRCC methods)
   Frank Weinhold                                : gennbo (NPA and NBO analysis)
   Simon Mueller                                 : openCOSMO-RS
   Christopher J. Cramer and Donald G. Truhlar   : smd solvation model
   Lars Goerigk                                  : TD-DFT with DH, B97 family of functionals
   V. Asgeirsson, H. Jonsson                     : NEB implementation
   FAccTs GmbH                                   : IRC, NEB, NEB-TS, DLPNO-Multilevel, CI-OPT
                                                   MM, QMMM, 2- and 3-layer-ONIOM, Crystal-QMMM,
                                                   LR-CPCM, SF, NACMEs, symmetry and pop. for TD-DFT,
                                                   nearIR, NL-DFT gradient (VV10), updates on ESD,
                                                   ML-optimized integration grids, MBIS, APM,
                                                   GOAT, DOCKER, SOLVATOR, interface openCOSMO-RS
   S Lehtola, MJT Oliveira, MAL Marques          : LibXC Library
   Liviu Ungur et al                             : ANISO software


 Your calculation uses the libint2 library for the computation of 2-el integrals
 For citations please refer to: http://libint.valeyev.net

 Your ORCA version has been built with support for libXC version: 6.2.2
 For citations please refer to: https://libxc.gitlab.io

 This ORCA versions uses:
   CBLAS   interface :  Fast vector & matrix operations
   LAPACKE interface :  Fast linear algebra routines
   Shared memory     :  Shared parallel matrices


Your calculation utilizes the atom-pairwise dispersion correction
with the zero-damping scheme (D30)


XCFun DFT library Copyright 2009-2010 Ulf Ekstrom and contributors.
See http://admol.org/xcfun for more information.
This is free software; see the source code for copying conditions.
There is ABSOLUTELY NO WARRANTY; not even for MERCHANTABILITY or FITNESS FOR A PARTICULAR PURPOSE.
For details see the documentation.
Scientific users of this library should cite U. Ekstrom, L. Visscher, R. Bast, A. J. Thorvaldsen and K. Ruud;
J.Chem.Theor.Comp. 2010, DOI: 10.1021/ct100117s
XCFun Version 0.99 

Warning: RI is on but no J-basis has been assigned. Assigning Def2/J (nothing to worry about!)
================================================================================

----- Orbital basis set information -----
Your calculation utilizes the basis: def2-TZVP
   F. Weigend and R. Ahlrichs, Phys. Chem. Chem. Phys. 7, 3297 (2005).

----- AuxJ basis set information -----
Your calculation utilizes the auxiliary basis: def2/J
   F. Weigend, Phys. Chem. Chem. Phys. 8, 1057 (2006).

================================================================================
                                        WARNINGS
                       Please study these warnings very carefully!
================================================================================

WARNING: Functional chosen is sensitive to the integration grid.
         DEFGRID3 seems to be a minimum grid for robust results!

================================================================================
                                       INPUT FILE
================================================================================
NAME = data/single_point_PO_M06-2x/119411/119411.inp
|  1> ! RIJCOSX M062X def2-TZVP D3ZERO NormalSCF
|  2> %pal
|  3> nprocs 6
|  4> end
|  5> 
|  6> * xyz 0 1
|  7>   C          -1.05660576612809      2.23858922423136      1.28608322857684
|  8>   C          -0.80434436259954      0.77938076598531      1.66603315656669
|  9>   P          -0.16222620791677     -0.13811944955555      0.18496256633026
| 10>   O          -0.26494014902113      0.66426677913852     -1.11098757094043
| 11>   C           1.56176853002950     -0.62190848214162      0.59968393795950
| 12>   C           2.30316160511082     -1.09676362621412     -0.64675022156294
| 13>   C           3.79032945758365     -1.27588460810855     -0.41529654985640
| 14>   O           4.39848644295679     -0.97174717781795      0.59323880115311
| 15>   O           4.39615116659773     -1.82617906131375     -1.50259437996506
| 16>   C          -1.11401081124948     -1.73704498625643      0.05120263770054
| 17>   C          -2.09061279723683     -1.66132664439070     -1.12328717660310
| 18>   C          -3.17022194534636     -0.61938432081000     -0.92022454763043
| 19>   O          -3.36231936395730      0.01423716515819      0.10548365947975
| 20>   O          -3.93920794645379     -0.47026657765912     -2.02332084080462
| 21>   C           0.21798857316183      2.97729127945010      0.93428915044932
| 22>   O           1.35118355021954      2.57458740141560      1.14111278002273
| 23>   O          -0.03490006351682      4.18751883690039      0.38206003324422
| 24>   H          -1.54394222938341      2.78525378067126      2.12283769328525
| 25>   H          -1.74953373134316      2.30381667021690      0.42443760616556
| 26>   H          -1.75565851838889      0.30822099717011      1.97318352979389
| 27>   H          -0.06730178946603      0.69841762106481      2.49050055638952
| 28>   H           1.56052146780495     -1.38446642597298      1.40734110519566
| 29>   H           2.03932643396196      0.29345619971068      1.00302151512782
| 30>   H           2.16326677099665     -0.35613191086189     -1.46470286926170
| 31>   H           1.90134384778976     -2.05032420414813     -1.05243220225559
| 32>   H           5.34905552976018     -1.88325074937864     -1.26980490145238
| 33>   H          -0.38909287511989     -2.55891978599519     -0.11899477958226
| 34>   H          -1.63685417268757     -1.94491815306752      1.00678697601749
| 35>   H          -1.55499206319152     -1.39467665299524     -2.05735560277240
| 36>   H          -2.58663485387771     -2.63900394357620     -1.30671512865084
| 37>   H          -4.59578373648554      0.22520181302394     -1.79790361237727
| 38>   H           0.84659900739651      4.58007822612639      0.19625745025725
| 39> **                         ****END OF INPUT****
================================================================================

                       ****************************
                       * Single Point Calculation *
                       ****************************

---------------------------------
CARTESIAN COORDINATES (ANGSTROEM)
---------------------------------
  C     -1.056606    2.238589    1.286083
  C     -0.804344    0.779381    1.666033
  P     -0.162226   -0.138119    0.184963
  O     -0.264940    0.664267   -1.110988
  C      1.561769   -0.621908    0.599684
  C      2.303162   -1.096764   -0.646750
  C      3.790329   -1.275885   -0.415297
  O      4.398486   -0.971747    0.593239
  O      4.396151   -1.826179   -1.502594
  C     -1.114011   -1.737045    0.051203
  C     -2.090613   -1.661327   -1.123287
  C     -3.170222   -0.619384   -0.920225
  O     -3.362319    0.014237    0.105484
  O     -3.939208   -0.470267   -2.023321
  C      0.217989    2.977291    0.934289
  O      1.351184    2.574587    1.141113
  O     -0.034900    4.187519    0.382060
  H     -1.543942    2.785254    2.122838
  H     -1.749534    2.303817    0.424438
  H     -1.755659    0.308221    1.973184
  H     -0.067302    0.698418    2.490501
  H      1.560521   -1.384466    1.407341
  H      2.039326    0.293456    1.003022
  H      2.163267   -0.356132   -1.464703
  H      1.901344   -2.050324   -1.052432
  H      5.349056   -1.883251   -1.269805
  H     -0.389093   -2.558920   -0.118995
  H     -1.636854   -1.944918    1.006787
  H     -1.554992   -1.394677   -2.057356
  H     -2.586635   -2.639004   -1.306715
  H     -4.595784    0.225202   -1.797904
  H      0.846599    4.580078    0.196257

----------------------------
CARTESIAN COORDINATES (A.U.)
----------------------------
  NO LB      ZA    FRAG     MASS         X           Y           Z
   0 C     6.0000    0    12.011   -1.996696    4.230321    2.430345
   1 C     6.0000    0    12.011   -1.519991    1.472816    3.148346
   2 P    15.0000    0    30.974   -0.306563   -0.261008    0.349529
   3 O     8.0000    0    15.999   -0.500664    1.255282   -2.099462
   4 C     6.0000    0    12.011    2.951315   -1.175237    1.133238
   5 C     6.0000    0    12.011    4.352345   -2.072583   -1.222181
   6 C     6.0000    0    12.011    7.162685   -2.411072   -0.784797
   7 O     8.0000    0    15.999    8.311935   -1.836336    1.121059
   8 O     8.0000    0    15.999    8.307522   -3.450978   -2.839492
   9 C     6.0000    0    12.011   -2.105175   -3.282539    0.096759
  10 C     6.0000    0    12.011   -3.950686   -3.139452   -2.122705
  11 C     6.0000    0    12.011   -5.990851   -1.170467   -1.738972
  12 O     8.0000    0    15.999   -6.353863    0.026904    0.199335
  13 O     8.0000    0    15.999   -7.444024   -0.888675   -3.823522
  14 C     6.0000    0    12.011    0.411939    5.626265    1.765551
  15 O     8.0000    0    15.999    2.553367    4.865265    2.156391
  16 O     8.0000    0    15.999   -0.065952    7.913264    0.721989
  17 H     1.0000    0     1.008   -2.917628    5.263367    4.011582
  18 H     1.0000    0     1.008   -3.306140    4.353583    0.802071
  19 H     1.0000    0     1.008   -3.317714    0.582453    3.728776
  20 H     1.0000    0     1.008   -0.127182    1.319818    4.706364
  21 H     1.0000    0     1.008    2.948958   -2.616262    2.659489
  22 H     1.0000    0     1.008    3.853768    0.554552    1.895436
  23 H     1.0000    0     1.008    4.087982   -0.672992   -2.767887
  24 H     1.0000    0     1.008    3.593019   -3.874551   -1.988809
  25 H     1.0000    0     1.008   10.108250   -3.558828   -2.399584
  26 H     1.0000    0     1.008   -0.735279   -4.835658   -0.224868
  27 H     1.0000    0     1.008   -3.093206   -3.675363    1.902552
  28 H     1.0000    0     1.008   -2.938509   -2.635557   -3.887839
  29 H     1.0000    0     1.008   -4.888031   -4.986995   -2.469334
  30 H     1.0000    0     1.008   -8.684773    0.425570   -3.397545
  31 H     1.0000    0     1.008    1.599840    8.655094    0.370873

--------------------------------
INTERNAL COORDINATES (ANGSTROEM)
--------------------------------
 C      0   0   0     0.000000000000     0.00000000     0.00000000
 C      1   0   0     1.528818853922     0.00000000     0.00000000
 P      2   1   0     1.856796290214   109.29658091     0.00000000
 O      3   2   1     1.527697801264   113.19526849   349.63973822
 C      3   2   1     1.837988982721   105.92955819   114.15473638
 C      5   3   2     1.526023988558   110.68980107   193.06111975
 C      6   5   3     1.515692366455   112.87589880   169.89013231
 O      7   6   5     1.216346188220   125.98995687   353.42118246
 O      7   6   5     1.360904294835   111.25785028   173.85769429
 C      3   2   1     1.865569221863   107.71387642   226.79636095
 C     10   3   2     1.529349871753   109.78058972   107.14885411
 C     11  10   3     1.514078647110   112.73113117   294.97194929
 O     12  11  10     1.220841894698   125.59407612   352.71565181
 O     12  11  10     1.352921654508   111.82584469   173.61973957
 C      1   2   3     1.514605734024   112.60523806   294.57123488
 O     15   1   2     1.220277543497   125.53230956   347.59245481
 O     15   1   2     1.354090248566   111.92928919   169.36947563
 H      1   2   3     1.111978866659   110.76474544   173.91823152
 H      1   2   3     1.107626725620   110.65664611    56.17270399
 H      2   1   3     1.105138680225   109.50923050   241.89698614
 H      2   1   3     1.108843216518   111.35569223   120.60156623
 H      5   3   2     1.110768325373   110.10332288    68.19130465
 H      5   3   2     1.108438204659   105.59611753   312.28021881
 H      6   5   3     1.112273543817   109.41140073    49.19460334
 H      6   5   3     1.111446424866   112.92066072   292.75208687
 H      9   7   6     0.982585794839   105.42141645   178.69660968
 H     10   3   2     1.109031722458   108.22050009   226.79020175
 H     10   3   2     1.108926445584   109.84166199   343.93525160
 H     11  10   3     1.109268053005   110.50156587    54.60411747
 H     11  10   3     1.111546938104   111.60112727   173.20429216
 H     14  12  11     0.982639800419   105.70903197   180.57312421
 H     17  15   1     0.982683105551   105.46301334   179.82125601

---------------------------
INTERNAL COORDINATES (A.U.)
---------------------------
 C      0   0   0     0.000000000000     0.00000000     0.00000000
 C      1   0   0     2.889048942287     0.00000000     0.00000000
 P      2   1   0     3.508836474986   109.29658091     0.00000000
 O      3   2   1     2.886930459783   113.19526849   349.63973822
 C      3   2   1     3.473295814507   105.92955819   114.15473638
 C      5   3   2     2.883767412169   110.68980107   193.06111975
 C      6   5   3     2.864243475875   112.87589880   169.89013231
 O      7   6   5     2.298561179775   125.98995687   353.42118246
 O      7   6   5     2.571736411715   111.25785028   173.85769429
 C      3   2   1     3.525414913194   107.71387642   226.79636095
 C     10   3   2     2.890052420562   109.78058972   107.14885411
 C     11  10   3     2.861193988257   112.73113117   294.97194929
 O     12  11  10     2.307056833797   125.59407612   352.71565181
 O     12  11  10     2.556651407671   111.82584469   173.61973957
 C      1   2   3     2.862190038173   112.60523806   294.57123488
 O     15   1   2     2.305990364583   125.53230956   347.59245481
 O     15   1   2     2.558859730404   111.92928919   169.36947563
 H      1   2   3     2.101335524693   110.76474544   173.91823152
 H      1   2   3     2.093111170034   110.65664611    56.17270399
 H      2   1   3     2.088409445628   109.50923050   241.89698614
 H      2   1   3     2.095410004675   111.35569223   120.60156623
 H      5   3   2     2.099047933190   110.10332288    68.19130465
 H      5   3   2     2.094644643180   105.59611753   312.28021881
 H      6   5   3     2.101892383820   109.41140073    49.19460334
 H      6   5   3     2.100329355522   112.92066072   292.75208687
 H      9   7   6     1.856818055326   105.42141645   178.69660968
 H     10   3   2     2.095766229276   108.22050009   226.79020175
 H     10   3   2     2.095567284817   109.84166199   343.93525160
 H     11  10   3     2.096212829287   110.50156587    54.60411747
 H     11  10   3     2.100519298016   111.60112727   173.20429216
 H     14  12  11     1.856920111082   105.70903197   180.57312421
 H     17  15   1     1.857001945922   105.46301334   179.82125601

---------------------
BASIS SET INFORMATION
---------------------
There are 4 groups of distinct atoms

 Group   1 Type C   : 11s6p2d1f contracted to 5s3p2d1f pattern {62111/411/11/1}
 Group   2 Type P   : 14s9p3d1f contracted to 5s5p2d1f pattern {73211/51111/21/1}
 Group   3 Type O   : 11s6p2d1f contracted to 5s3p2d1f pattern {62111/411/11/1}
 Group   4 Type H   : 5s1p contracted to 3s1p pattern {311/1}

Atom   0C    basis set group =>   1
Atom   1C    basis set group =>   1
Atom   2P    basis set group =>   2
Atom   3O    basis set group =>   3
Atom   4C    basis set group =>   1
Atom   5C    basis set group =>   1
Atom   6C    basis set group =>   1
Atom   7O    basis set group =>   3
Atom   8O    basis set group =>   3
Atom   9C    basis set group =>   1
Atom  10C    basis set group =>   1
Atom  11C    basis set group =>   1
Atom  12O    basis set group =>   3
Atom  13O    basis set group =>   3
Atom  14C    basis set group =>   1
Atom  15O    basis set group =>   3
Atom  16O    basis set group =>   3
Atom  17H    basis set group =>   4
Atom  18H    basis set group =>   4
Atom  19H    basis set group =>   4
Atom  20H    basis set group =>   4
Atom  21H    basis set group =>   4
Atom  22H    basis set group =>   4
Atom  23H    basis set group =>   4
Atom  24H    basis set group =>   4
Atom  25H    basis set group =>   4
Atom  26H    basis set group =>   4
Atom  27H    basis set group =>   4
Atom  28H    basis set group =>   4
Atom  29H    basis set group =>   4
Atom  30H    basis set group =>   4
Atom  31H    basis set group =>   4
---------------------------------
AUXILIARY/J BASIS SET INFORMATION
---------------------------------
There are 4 groups of distinct atoms

 Group   1 Type C   : 12s5p4d2f1g contracted to 6s4p3d1f1g pattern {711111/2111/211/2/1}
 Group   2 Type P   : 14s5p5d2f1g contracted to 8s4p3d1f1g pattern {71111111/2111/311/2/1}
 Group   3 Type O   : 12s5p4d2f1g contracted to 6s4p3d1f1g pattern {711111/2111/211/2/1}
 Group   4 Type H   : 5s2p1d contracted to 3s1p1d pattern {311/2/1}

Atom   0C    basis set group =>   1
Atom   1C    basis set group =>   1
Atom   2P    basis set group =>   2
Atom   3O    basis set group =>   3
Atom   4C    basis set group =>   1
Atom   5C    basis set group =>   1
Atom   6C    basis set group =>   1
Atom   7O    basis set group =>   3
Atom   8O    basis set group =>   3
Atom   9C    basis set group =>   1
Atom  10C    basis set group =>   1
Atom  11C    basis set group =>   1
Atom  12O    basis set group =>   3
Atom  13O    basis set group =>   3
Atom  14C    basis set group =>   1
Atom  15O    basis set group =>   3
Atom  16O    basis set group =>   3
Atom  17H    basis set group =>   4
Atom  18H    basis set group =>   4
Atom  19H    basis set group =>   4
Atom  20H    basis set group =>   4
Atom  21H    basis set group =>   4
Atom  22H    basis set group =>   4
Atom  23H    basis set group =>   4
Atom  24H    basis set group =>   4
Atom  25H    basis set group =>   4
Atom  26H    basis set group =>   4
Atom  27H    basis set group =>   4
Atom  28H    basis set group =>   4
Atom  29H    basis set group =>   4
Atom  30H    basis set group =>   4
Atom  31H    basis set group =>   4


           ************************************************************
           *        Program running with 6 parallel MPI-processes     *
           *              working on a common directory               *
           ************************************************************
------------------------------------------------------------------------------
                             ORCA STARTUP CALCULATIONS
                           -- RI-GTO INTEGRALS CHOSEN --
------------------------------------------------------------------------------
------------------------------------------------------------------------------
                   ___                                                        
                  /   \      - P O W E R E D   B Y -                         
                 /     \                                                     
                 |  |  |   _    _      __       _____    __    __             
                 |  |  |  | |  | |    /  \     |  _  \  |  |  /  |          
                  \  \/   | |  | |   /    \    | | | |  |  | /  /          
                 / \  \   | |__| |  /  /\  \   | |_| |  |  |/  /          
                |  |  |   |  __  | /  /__\  \  |    /   |      \           
                |  |  |   | |  | | |   __   |  |    \   |  |\   \          
                \     /   | |  | | |  |  |  |  | |\  \  |  | \   \       
                 \___/    |_|  |_| |__|  |__|  |_| \__\ |__|  \__/        
                                                                              
                      - O R C A' S   B I G   F R I E N D -                    
                                      &                                       
                       - I N T E G R A L  F E E D E R -                       
                                                                              
 v1 FN, 2020, v2 2021, v3 2022-2024                                           
------------------------------------------------------------------------------


----------------------
SHARK INTEGRAL PACKAGE
----------------------

Number of atoms                             ...     32
Number of basis functions                   ...    623
Number of shells                            ...    249
Maximum angular momentum                    ...      3
Integral batch strategy                     ... SHARK/LIBINT Hybrid
RI-J (if used) integral strategy            ... SPLIT-RIJ (Revised 2003 algorithm where possible)
Printlevel                                  ...      1
Contraction scheme used                     ... SEGMENTED contraction
Prescreening option                         ... SCHWARTZ
   Thresh                                   ... 1.000e-10
   Tcut                                     ... 1.000e-11
   Tpresel                                  ... 1.000e-11 
Coulomb Range Separation                    ... NOT USED
Exchange Range Separation                   ... NOT USED
Multipole approximations                    ... NOT USED
Finite Nucleus Model                        ... NOT USED
CABS basis                                  ... NOT available
Auxiliary Coulomb fitting basis             ... AVAILABLE
   # of basis functions in Aux-J            ...   1000
   # of shells in Aux-J                     ...    332
   Maximum angular momentum in Aux-J        ...      4
Auxiliary J/K fitting basis                 ... NOT available
Auxiliary Correlation fitting basis         ... NOT available
Auxiliary 'external' fitting basis          ... NOT available

Checking pre-screening integrals            ... done (  0.0 sec) Dimension = 249
Check shell pair data                       ... done (  0.0 sec)
Shell pair information
Shell pair cut-off parameter TPreSel        ...   1.0e-11
Total number of shell pairs                 ...     31125
Shell pairs after pre-screening             ...     22290
Total number of primitive shell pairs       ...     96136
Primitive shell pairs kept                  ...     46144
          la=0 lb=0:   5998 shell pairs
          la=1 lb=0:   6586 shell pairs
          la=1 lb=1:   1855 shell pairs
          la=2 lb=0:   3030 shell pairs
          la=2 lb=1:   1697 shell pairs
          la=2 lb=2:    405 shell pairs
          la=3 lb=0:   1438 shell pairs
          la=3 lb=1:    819 shell pairs
          la=3 lb=2:    367 shell pairs
          la=3 lb=3:     95 shell pairs

Calculating one electron integrals          ... done (  0.0 sec)
Calculating RI/J V-Matrix + Cholesky decomp.... done (  0.0 sec)
Calculating Nuclear repulsion               ... done (  0.0 sec) ENN=   1448.493710047697 Eh

Diagonalization of the overlap matrix:
Smallest eigenvalue                        ... 1.088e-04
Time for diagonalization                   ...    0.072 sec
Threshold for overlap eigenvalues          ... 1.000e-07
Number of eigenvalues below threshold      ... 0
Time for construction of square roots      ...    0.033 sec
Total time needed                          ...    0.109 sec

-------------------
DFT GRID GENERATION
-------------------

General Integration Accuracy     IntAcc      ... 4.388
Radial Grid Type                 RadialGrid  ... OptM3 with GC (2021)
Angular Grid (max. ang.)         AngularGrid ... 4 (Lebedev-302)
Angular grid pruning method      GridPruning ... 4 (adaptive)
Weight generation scheme         WeightScheme... mBecke (2022)
Basis function cutoff            BFCut       ... 1.0000e-10
Integration weight cutoff        WCut        ... 1.0000e-14
Partially contracted basis set               ... off
Rotationally invariant grid construction     ... off
Angular grids for H and He will be reduced by one unit

Total number of grid points                  ...   151226
Total number of batches                      ...     2379
Average number of points per batch           ...       63
Average number of grid points per atom       ...     4726

--------------------
COSX GRID GENERATION
--------------------

GRIDX 1
-------
General Integration Accuracy     IntAcc      ... 3.816
Radial Grid Type                 RadialGrid  ... OptM3 with GC (2021)
Angular Grid (max. ang.)         AngularGrid ... 1 (Lebedev-50)
Angular grid pruning method      GridPruning ... 4 (adaptive)
Weight generation scheme         WeightScheme... mBecke (2022)
Basis function cutoff            BFCut       ... 1.0000e-10
Integration weight cutoff        WCut        ... 1.0000e-14
Partially contracted basis set               ... on
Rotationally invariant grid construction     ... off
Angular grids for H and He will be reduced by one unit

Total number of grid points                  ...    20168
Total number of batches                      ...      176
Average number of points per batch           ...      114
Average number of grid points per atom       ...      630
UseSFitting                                  ... on

GRIDX 2
-------
General Integration Accuracy     IntAcc      ... 4.020
Radial Grid Type                 RadialGrid  ... OptM3 with GC (2021)
Angular Grid (max. ang.)         AngularGrid ... 2 (Lebedev-110)
Angular grid pruning method      GridPruning ... 4 (adaptive)
Weight generation scheme         WeightScheme... mBecke (2022)
Basis function cutoff            BFCut       ... 1.0000e-10
Integration weight cutoff        WCut        ... 1.0000e-14
Partially contracted basis set               ... on
Rotationally invariant grid construction     ... off
Angular grids for H and He will be reduced by one unit

Total number of grid points                  ...    41518
Total number of batches                      ...      340
Average number of points per batch           ...      122
Average number of grid points per atom       ...     1297
UseSFitting                                  ... on

GRIDX 3
-------
General Integration Accuracy     IntAcc      ... 4.338
Radial Grid Type                 RadialGrid  ... OptM3 with GC (2021)
Angular Grid (max. ang.)         AngularGrid ... 3 (Lebedev-194)
Angular grid pruning method      GridPruning ... 4 (adaptive)
Weight generation scheme         WeightScheme... mBecke (2022)
Basis function cutoff            BFCut       ... 1.0000e-10
Integration weight cutoff        WCut        ... 1.0000e-14
Partially contracted basis set               ... on
Rotationally invariant grid construction     ... off
Angular grids for H and He will be reduced by one unit

Total number of grid points                  ...    91283
Total number of batches                      ...      729
Average number of points per batch           ...      125
Average number of grid points per atom       ...     2853
UseSFitting                                  ... on
Initializing property integral containers    ... done (  0.0 sec)

SHARK setup successfully completed in   2.7 seconds

Maximum memory used throughout the entire STARTUP-calculation: 58.0 MB


           ************************************************************
           *        Program running with 6 parallel MPI-processes     *
           *              working on a common directory               *
           ************************************************************
-------------------------------------------------------------------------------
                                 ORCA GUESS
                   Start orbitals & Density for SCF / CASSCF
-------------------------------------------------------------------------------

------------
SCF SETTINGS
------------
Hamiltonian:
 Density Functional     Method          .... DFT(GTOs)
 Exchange Functional    Exchange        .... M062X
 Correlation Functional Correlation     .... M062X
 Gradients option       PostSCFGGA      .... off
 Hybrid DFT is turned on
   Fraction HF Exchange ScalHFX         ....  0.540000
   Scaling of DF-GGA-X  ScalDFX         ....  0.460000
   Scaling of DF-GGA-C  ScalDFC         ....  1.000000
   Scaling of DF-LDA-C  ScalLDAC        ....  1.000000
   Perturbative correction              ....  0.000000
 RI-approximation to the Coulomb term is turned on
   Number of AuxJ basis functions       .... 1000
   RIJ-COSX (HFX calculated with COS-X)).... on


General Settings:
 Integral files         IntName         .... data/single_point_PO_M06-2x/119411/119411
 Hartree-Fock type      HFTyp           .... RHF
 Total Charge           Charge          ....    0
 Multiplicity           Mult            ....    1
 Number of Electrons    NEL             ....  140
 Basis Dimension        Dim             ....  623
 Nuclear Repulsion      ENuc            ....   1448.4937100477 Eh

Convergence Acceleration:
 AO-DIIS                CNVDIIS         .... on
   Start iteration      DIISMaxIt       ....    12
   Startup error        DIISStart       ....  0.200000
   # of expansion vecs  DIISMaxEq       ....     5
   Bias factor          DIISBfac        ....   1.050
   Max. coefficient     DIISMaxC        ....  10.000
 MO-DIIS                CNVKDIIS        .... off
 Trust-Rad. Augm. Hess. CNVTRAH         .... auto
   Auto Start mean grad. ratio tolernc. ....  1.125000
   Auto Start start iteration           ....    50
   Auto Start num. interpolation iter.  ....    10
   Max. Number of Micro iterations      ....    24
   Max. Number of Macro iterations      .... Maxiter - #DIIS iter
   Number of Davidson start vectors     ....     2
   Converg. threshold    (grad. norm)   ....   5.000e-05
   Grad. Scal. Fac. for Micro threshold ....   0.100
   Minimum threshold for Micro iter.    ....   1.000e-02
   NR start threshold (gradient norm)   ....   1.000e-04
   Initial trust radius                 ....   0.400
   Minimum AH scaling param. (alpha)    ....   1.000
   Maximum AH scaling param. (alpha)    .... 1000.000
   Quad. conv. algorithm                .... NR
   White noise on init. David. guess    .... on
   Maximum white noise                  ....   0.010
   Pseudo random numbers                .... off
   Inactive MOs                         .... canonical
   Orbital update algorithm             .... Taylor
   Preconditioner                       .... Diag
   Full preconditioner red. dimension   ....   250
 SOSCF                  CNVSOSCF        .... on
   Start iteration      SOSCFMaxIt      ....   150
   Startup grad/error   SOSCFStart      ....  0.003300
   Hessian update       SOSCFHessUp     .... L-BFGS
 Level Shifting         CNVShift        .... on
   Level shift para.    LevelShift      ....    0.2500
   Turn off err/grad.   ShiftErr        ....    0.0010
 Zerner damping         CNVZerner       .... off
 Static damping         CNVDamp         .... on
   Fraction old density DampFac         ....    0.7000
   Max. Damping (<1)    DampMax         ....    0.9800
   Min. Damping (>=0)   DampMin         ....    0.0000
   Turn off err/grad.   DampErr         ....    0.1000

SCF Procedure:
 Maximum # iterations   MaxIter         ....   125
 SCF integral mode      SCFMode         .... Direct
   Integral package                     .... SHARK and LIBINT hybrid scheme
 Reset frequency        DirectResetFreq ....    20
 Integral Threshold     Thresh          ....  1.000e-10 Eh
 Primitive CutOff       TCut            ....  1.000e-11 Eh

Convergence Tolerance:
 Convergence Check Mode ConvCheckMode   .... Total+1el-Energy
 Convergence forced     ConvForced      .... 0
 Energy Change          TolE            ....  1.000e-06 Eh
 1-El. energy change                    ....  1.000e-03 Eh
 Orbital Gradient       TolG            ....  5.000e-05
 Orbital Rotation angle TolX            ....  5.000e-05
 DIIS Error             TolErr          ....  1.000e-05

------------------------------
INITIAL GUESS: MODEL POTENTIAL
------------------------------
Loading Hartree-Fock densities                     ... done
Calculating cut-offs                               ... done
Initializing the effective Hamiltonian             ... done
Setting up the integral package (SHARK)            ... done
Starting the Coulomb interaction                   ... done (   0.3 sec)
Making the grid                                    ... done (   0.2 sec)
Mapping shells                                     ... done
Starting the XC term evaluation                    ... done (   0.3 sec)
  promolecular density results
     # of electrons  =    139.990949957
     EX              =   -130.053493149
     EC              =     -4.787987640
     EX+EC           =   -134.841480789
Transforming the Hamiltonian                       ... done (   0.1 sec)
Diagonalizing the Hamiltonian                      ... done (   0.1 sec)
Back transforming the eigenvectors                 ... done (   0.0 sec)
Now organizing SCF variables                       ... done
                      ------------------
                      INITIAL GUESS DONE (   1.0 sec)
                      ------------------
             **** ENERGY FILE WAS UPDATED (data/single_point_PO_M06-2x/119411/119411.en.tmp) ****
Finished Guess after   1.2 sec
Maximum memory used throughout the entire GUESS-calculation: 40.9 MB


           ************************************************************
           *        Program running with 6 parallel MPI-processes     *
           *              working on a common directory               *
           ************************************************************

-------------------------------------------------------------------------------------------
                                      ORCA LEAN-SCF
                              memory conserving SCF solver
-------------------------------------------------------------------------------------------

----------------------------------------D-I-I-S--------------------------------------------
Iteration    Energy (Eh)           Delta-E    RMSDP     MaxDP     DIISErr   Damp  Time(sec)
-------------------------------------------------------------------------------------------
               ***  Starting incremental Fock matrix formation  ***
    1    -1219.3365993477220854     0.00e+00  1.30e-03  9.63e-02  3.67e-01  0.700  10.8
    2    -1219.6519142785402892    -3.15e-01  1.02e-03  8.84e-02  1.60e-01  0.700   6.2
                               ***Turning on AO-DIIS***
    3    -1219.7804578977295478    -1.29e-01  4.47e-04  2.65e-02  4.90e-02  0.700   5.4
    4    -1219.8583386990928830    -7.79e-02  8.64e-04  4.74e-02  3.19e-02  0.000   5.3
    5    -1220.0297432752861368    -1.71e-01  1.64e-04  1.57e-02  4.94e-03  0.000   5.4
                              *** Initializing SOSCF ***
---------------------------------------S-O-S-C-F--------------------------------------
Iteration    Energy (Eh)           Delta-E    RMSDP     MaxDP     MaxGrad    Time(sec)
--------------------------------------------------------------------------------------
    6    -1220.0302071255739520    -4.64e-04  6.31e-05  5.36e-03  2.90e-03     4.9
               *** Restarting incremental Fock matrix formation ***
    7    -1220.0302989284080013    -9.18e-05  3.68e-05  3.04e-03  4.87e-04     9.4
    8    -1220.0303109154945105    -1.20e-05  3.06e-05  2.38e-03  1.39e-04     6.5
    9    -1220.0303120040846352    -1.09e-06  1.42e-05  8.76e-04  1.15e-04     6.2
   10    -1220.0303137289531605    -1.72e-06  2.10e-06  7.77e-05  1.62e-05     5.9
   11    -1220.0303138975466481    -1.69e-07  8.14e-07  3.55e-05  2.05e-05     4.9
                 **** Energy Check signals convergence ****

               *****************************************************
               *                     SUCCESS                       *
               *           SCF CONVERGED AFTER  11 CYCLES          *
               *****************************************************

Recomputing exchange energy using gridx3       ... done (   13.671 sec)
Old exchange energy                            :    -71.401178993 Eh
New exchange energy                            :    -71.401222841 Eh
Exchange energy change after final integration :     -0.000043847 Eh
Total energy after final integration           :  -1220.030357745 Eh
             **** ENERGY FILE WAS UPDATED (data/single_point_PO_M06-2x/119411/119411.en.tmp) ****

----------------
TOTAL SCF ENERGY
----------------

Total Energy       :      -1220.03035774459954 Eh          -33198.71382 eV

Components:
Nuclear Repulsion  :       1448.49371004769705 Eh           39415.51770 eV
Electronic Energy  :      -2668.52402394524370 Eh          -72614.23033 eV
One Electron Energy:      -4554.64242231199478 Eh         -123938.12120 eV
Two Electron Energy:       1886.11839836675108 Eh           51323.89088 eV

Virial components:
Potential Energy   :      -2434.66728415704983 Eh          -66250.66492 eV
Kinetic Energy     :       1214.63692641245029 Eh           33051.95110 eV
Virial Ratio       :          2.00444036502997

DFT components:
N(Alpha)           :       69.999968354889 electrons
N(Beta)            :       69.999968354889 electrons
N(Total)           :      139.999936709777 electrons
E(XC)              :      -66.140813755363 Eh       

---------------
SCF CONVERGENCE
---------------

  Last Energy change         ...    1.6859e-07  Tolerance :   1.0000e-06
  Last MAX-Density change    ...    3.5527e-05  Tolerance :   1.0000e-05
  Last RMS-Density change    ...    8.1401e-07  Tolerance :   1.0000e-06
  Last DIIS Error            ...    2.9049e-03  Tolerance :   1.0000e-05
  Last Orbital Gradient      ...    2.0519e-05  Tolerance :   5.0000e-05
  Last Orbital Rotation      ...    2.9263e-05  Tolerance :   5.0000e-05


----------------
ORBITAL ENERGIES
----------------

  NO   OCC          E(Eh)            E(eV) 
   0   2.0000     -78.094653     -2125.0635 
   1   2.0000     -19.685470      -535.6689 
   2   2.0000     -19.678552      -535.4806 
   3   2.0000     -19.674865      -535.3803 
   4   2.0000     -19.633973      -534.2676 
   5   2.0000     -19.624845      -534.0192 
   6   2.0000     -19.622030      -533.9426 
   7   2.0000     -19.569418      -532.5109 
   8   2.0000     -10.694153      -291.0027 
   9   2.0000     -10.684782      -290.7477 
  10   2.0000     -10.682579      -290.6878 
  11   2.0000     -10.573274      -287.7134 
  12   2.0000     -10.567203      -287.5482 
  13   2.0000     -10.565547      -287.5032 
  14   2.0000     -10.562591      -287.4227 
  15   2.0000     -10.555006      -287.2163 
  16   2.0000     -10.551787      -287.1287 
  17   2.0000      -6.901546      -187.8006 
  18   2.0000      -5.018405      -136.5578 
  19   2.0000      -5.018271      -136.5541 
  20   2.0000      -5.017008      -136.5197 
  21   2.0000      -1.243365       -33.8337 
  22   2.0000      -1.234334       -33.5879 
  23   2.0000      -1.232148       -33.5284 
  24   2.0000      -1.148610       -31.2553 
  25   2.0000      -1.140439       -31.0329 
  26   2.0000      -1.137214       -30.9452 
  27   2.0000      -1.063690       -28.9445 
  28   2.0000      -0.909681       -24.7537 
  29   2.0000      -0.897224       -24.4147 
  30   2.0000      -0.892757       -24.2931 
  31   2.0000      -0.809049       -22.0153 
  32   2.0000      -0.771531       -20.9944 
  33   2.0000      -0.763647       -20.7799 
  34   2.0000      -0.690686       -18.7945 
  35   2.0000      -0.673024       -18.3139 
  36   2.0000      -0.665053       -18.0970 
  37   2.0000      -0.611566       -16.6416 
  38   2.0000      -0.598344       -16.2818 
  39   2.0000      -0.592347       -16.1186 
  40   2.0000      -0.584492       -15.9048 
  41   2.0000      -0.581924       -15.8349 
  42   2.0000      -0.579926       -15.7806 
  43   2.0000      -0.575480       -15.6596 
  44   2.0000      -0.566435       -15.4135 
  45   2.0000      -0.561963       -15.2918 
  46   2.0000      -0.552687       -15.0394 
  47   2.0000      -0.518055       -14.0970 
  48   2.0000      -0.514092       -13.9891 
  49   2.0000      -0.503814       -13.7095 
  50   2.0000      -0.495149       -13.4737 
  51   2.0000      -0.493679       -13.4337 
  52   2.0000      -0.479438       -13.0462 
  53   2.0000      -0.468818       -12.7572 
  54   2.0000      -0.463817       -12.6211 
  55   2.0000      -0.459424       -12.5016 
  56   2.0000      -0.445199       -12.1145 
  57   2.0000      -0.439953       -11.9717 
  58   2.0000      -0.432110       -11.7583 
  59   2.0000      -0.418416       -11.3857 
  60   2.0000      -0.411997       -11.2110 
  61   2.0000      -0.407964       -11.1013 
  62   2.0000      -0.405059       -11.0222 
  63   2.0000      -0.402123       -10.9423 
  64   2.0000      -0.398007       -10.8303 
  65   2.0000      -0.372451       -10.1349 
  66   2.0000      -0.363061        -9.8794 
  67   2.0000      -0.360719        -9.8157 
  68   2.0000      -0.334435        -9.1004 
  69   2.0000      -0.332975        -9.0607 
  70   0.0000       0.031200         0.8490 
  71   0.0000       0.039565         1.0766 
  72   0.0000       0.041891         1.1399 
  73   0.0000       0.043744         1.1903 
  74   0.0000       0.058021         1.5788 
  75   0.0000       0.066553         1.8110 
  76   0.0000       0.068419         1.8618 
  77   0.0000       0.078797         2.1442 
  78   0.0000       0.081683         2.2227 
  79   0.0000       0.091535         2.4908 
  80   0.0000       0.097879         2.6634 
*Only the first 10 virtual orbitals were printed.

                    ********************************
                    * MULLIKEN POPULATION ANALYSIS *
                    ********************************

-----------------------
MULLIKEN ATOMIC CHARGES
-----------------------
   0 C :   -0.304721
   1 C :   -0.396285
   2 P :    0.638082
   3 O :   -0.615058
   4 C :   -0.416261
   5 C :   -0.348036
   6 C :    0.364433
   7 O :   -0.333746
   8 O :   -0.412622
   9 C :   -0.438942
  10 C :   -0.278880
  11 C :    0.382876
  12 O :   -0.375966
  13 O :   -0.401137
  14 C :    0.394285
  15 O :   -0.374184
  16 O :   -0.405585
  17 H :    0.176220
  18 H :    0.203004
  19 H :    0.193523
  20 H :    0.192557
  21 H :    0.180937
  22 H :    0.228637
  23 H :    0.215183
  24 H :    0.163167
  25 H :    0.340783
  26 H :    0.177683
  27 H :    0.191038
  28 H :    0.199613
  29 H :    0.178594
  30 H :    0.341176
  31 H :    0.339630
Sum of atomic charges:   -0.0000000

--------------------------------
MULLIKEN REDUCED ORBITAL CHARGES
--------------------------------
  0 C s       :     3.249683  s :     3.249683
      pz      :     1.100963  p :     2.972142
      px      :     0.966237
      py      :     0.904943
      dz2     :     0.008097  d :     0.078003
      dxz     :     0.015861
      dyz     :     0.018255
      dx2y2   :     0.011806
      dxy     :     0.023983
      f0      :     0.000424  f :     0.004892
      f+1     :     0.000641
      f-1     :     0.000618
      f+2     :     0.000699
      f-2     :     0.000553
      f+3     :     0.001061
      f-3     :     0.000897

  1 C s       :     3.281838  s :     3.281838
      pz      :     0.997849  p :     3.049291
      px      :     1.109386
      py      :     0.942056
      dz2     :     0.006614  d :     0.061504
      dxz     :     0.013022
      dyz     :     0.017621
      dx2y2   :     0.008337
      dxy     :     0.015909
      f0      :     0.000329  f :     0.003652
      f+1     :     0.000405
      f-1     :     0.000556
      f+2     :     0.000722
      f-2     :     0.000353
      f+3     :     0.000621
      f-3     :     0.000667

  2 P s       :     5.332363  s :     5.332363
      pz      :     2.665603  p :     8.296824
      px      :     2.853409
      py      :     2.777812
      dz2     :     0.177732  d :     0.666645
      dxz     :     0.147110
      dyz     :     0.121299
      dx2y2   :     0.097415
      dxy     :     0.123090
      f0      :     0.014955  f :     0.066086
      f+1     :     0.011402
      f-1     :     0.007161
      f+2     :     0.008874
      f-2     :     0.011766
      f+3     :     0.005571
      f-3     :     0.006357

  3 O s       :     3.879798  s :     3.879798
      pz      :     1.453396  p :     4.709802
      px      :     1.670160
      py      :     1.586246
      dz2     :     0.007551  d :     0.024245
      dxz     :     0.005162
      dyz     :     0.007276
      dx2y2   :     0.002128
      dxy     :     0.002128
      f0      :     0.000275  f :     0.001213
      f+1     :     0.000150
      f-1     :     0.000370
      f+2     :     0.000189
      f-2     :     0.000172
      f+3     :     0.000028
      f-3     :     0.000029

  4 C s       :     3.277161  s :     3.277161
      pz      :     0.957086  p :     3.069461
      px      :     1.001392
      py      :     1.110983
      dz2     :     0.015113  d :     0.065978
      dxz     :     0.009630
      dyz     :     0.021444
      dx2y2   :     0.011882
      dxy     :     0.007910
      f0      :     0.000701  f :     0.003661
      f+1     :     0.000418
      f-1     :     0.000530
      f+2     :     0.000771
      f-2     :     0.000557
      f+3     :     0.000353
      f-3     :     0.000332

  5 C s       :     3.262035  s :     3.262035
      pz      :     0.986315  p :     3.003604
      px      :     0.931931
      py      :     1.085358
      dz2     :     0.016327  d :     0.077499
      dxz     :     0.011865
      dyz     :     0.021261
      dx2y2   :     0.017701
      dxy     :     0.010344
      f0      :     0.000836  f :     0.004898
      f+1     :     0.000680
      f-1     :     0.000562
      f+2     :     0.001044
      f-2     :     0.000545
      f+3     :     0.000708
      f-3     :     0.000524

  6 C s       :     3.024980  s :     3.024980
      pz      :     0.697010  p :     2.303493
      px      :     0.895903
      py      :     0.710579
      dz2     :     0.086126  d :     0.284727
      dxz     :     0.066036
      dyz     :     0.060305
      dx2y2   :     0.040758
      dxy     :     0.031502
      f0      :     0.005610  f :     0.022367
      f+1     :     0.003053
      f-1     :     0.002851
      f+2     :     0.005085
      f-2     :     0.003011
      f+3     :     0.001247
      f-3     :     0.001510

  7 O s       :     3.827058  s :     3.827058
      pz      :     1.405808  p :     4.474197
      px      :     1.643765
      py      :     1.424623
      dz2     :     0.009323  d :     0.030505
      dxz     :     0.007817
      dyz     :     0.007616
      dx2y2   :     0.002281
      dxy     :     0.003468
      f0      :     0.000445  f :     0.001987
      f+1     :     0.000533
      f-1     :     0.000266
      f+2     :     0.000266
      f-2     :     0.000371
      f+3     :     0.000063
      f-3     :     0.000044

  8 O s       :     3.797234  s :     3.797234
      pz      :     1.547375  p :     4.584264
      px      :     1.317729
      py      :     1.719159
      dz2     :     0.008639  d :     0.029459
      dxz     :     0.007154
      dyz     :     0.006597
      dx2y2   :     0.005884
      dxy     :     0.001186
      f0      :     0.000175  f :     0.001666
      f+1     :     0.000213
      f-1     :     0.000259
      f+2     :     0.000253
      f-2     :     0.000216
      f+3     :     0.000417
      f-3     :     0.000132

  9 C s       :     3.303222  s :     3.303222
      pz      :     1.023502  p :     3.070684
      px      :     1.021148
      py      :     1.026034
      dz2     :     0.020167  d :     0.061406
      dxz     :     0.008883
      dyz     :     0.009535
      dx2y2   :     0.006009
      dxy     :     0.016812
      f0      :     0.000590  f :     0.003630
      f+1     :     0.000862
      f-1     :     0.000347
      f+2     :     0.000384
      f-2     :     0.000634
      f+3     :     0.000483
      f-3     :     0.000329

 10 C s       :     3.234315  s :     3.234315
      pz      :     1.008794  p :     2.961779
      px      :     0.945787
      py      :     1.007199
      dz2     :     0.023003  d :     0.077928
      dxz     :     0.011734
      dyz     :     0.010436
      dx2y2   :     0.009600
      dxy     :     0.023156
      f0      :     0.000719  f :     0.004857
      f+1     :     0.000903
      f-1     :     0.000526
      f+2     :     0.000396
      f-2     :     0.001002
      f+3     :     0.000672
      f-3     :     0.000637

 11 C s       :     3.048369  s :     3.048369
      pz      :     0.677813  p :     2.265359
      px      :     0.791272
      py      :     0.796273
      dz2     :     0.084519  d :     0.280780
      dxz     :     0.074444
      dyz     :     0.052926
      dx2y2   :     0.031984
      dxy     :     0.036907
      f0      :     0.005970  f :     0.022616
      f+1     :     0.002909
      f-1     :     0.003001
      f+2     :     0.003070
      f-2     :     0.005002
      f+3     :     0.001209
      f-3     :     0.001455

 12 O s       :     3.842308  s :     3.842308
      pz      :     1.406882  p :     4.502049
      px      :     1.630397
      py      :     1.464770
      dz2     :     0.008982  d :     0.029645
      dxz     :     0.006788
      dyz     :     0.008424
      dx2y2   :     0.003202
      dxy     :     0.002248
      f0      :     0.000452  f :     0.001964
      f+1     :     0.000305
      f-1     :     0.000511
      f+2     :     0.000355
      f-2     :     0.000259
      f+3     :     0.000036
      f-3     :     0.000047

 13 O s       :     3.797260  s :     3.797260
      pz      :     1.536935  p :     4.572345
      px      :     1.454078
      py      :     1.581332
      dz2     :     0.009159  d :     0.029835
      dxz     :     0.008519
      dyz     :     0.005464
      dx2y2   :     0.001107
      dxy     :     0.005586
      f0      :     0.000188  f :     0.001698
      f+1     :     0.000382
      f-1     :     0.000113
      f+2     :     0.000185
      f-2     :     0.000267
      f+3     :     0.000305
      f-3     :     0.000258

 14 C s       :     3.044934  s :     3.044934
      pz      :     0.701700  p :     2.259395
      px      :     0.849731
      py      :     0.707964
      dz2     :     0.027176  d :     0.278803
      dxz     :     0.060190
      dyz     :     0.032900
      dx2y2   :     0.076605
      dxy     :     0.081931
      f0      :     0.001881  f :     0.022582
      f+1     :     0.001917
      f-1     :     0.002977
      f+2     :     0.002844
      f-2     :     0.002752
      f+3     :     0.006684
      f-3     :     0.003528

 15 O s       :     3.845153  s :     3.845153
      pz      :     1.465850  p :     4.497478
      px      :     1.370040
      py      :     1.661588
      dz2     :     0.002973  d :     0.029589
      dxz     :     0.009470
      dyz     :     0.001293
      dx2y2   :     0.007658
      dxy     :     0.008194
      f0      :     0.000187  f :     0.001964
      f+1     :     0.000259
      f-1     :     0.000042
      f+2     :     0.000280
      f-2     :     0.000199
      f+3     :     0.000475
      f-3     :     0.000522

 16 O s       :     3.796328  s :     3.796328
      pz      :     1.693225  p :     4.577756
      px      :     1.501825
      py      :     1.382706
      dz2     :     0.004231  d :     0.029808
      dxz     :     0.003232
      dyz     :     0.004976
      dx2y2   :     0.009365
      dxy     :     0.008004
      f0      :     0.000279  f :     0.001694
      f+1     :     0.000179
      f-1     :     0.000340
      f+2     :     0.000260
      f-2     :     0.000193
      f+3     :     0.000088
      f-3     :     0.000354

 17 H s       :     0.804661  s :     0.804661
      pz      :     0.008108  p :     0.019119
      px      :     0.005479
      py      :     0.005532

 18 H s       :     0.777001  s :     0.777001
      pz      :     0.009496  p :     0.019994
      px      :     0.007303
      py      :     0.003195

 19 H s       :     0.785965  s :     0.785965
      pz      :     0.004344  p :     0.020512
      px      :     0.010810
      py      :     0.005358

 20 H s       :     0.787759  s :     0.787759
      pz      :     0.008588  p :     0.019684
      px      :     0.007472
      py      :     0.003624

 21 H s       :     0.799734  s :     0.799734
      pz      :     0.008189  p :     0.019328
      px      :     0.004042
      py      :     0.007098

 22 H s       :     0.749945  s :     0.749945
      pz      :     0.004805  p :     0.021418
      px      :     0.005779
      py      :     0.010834

 23 H s       :     0.764747  s :     0.764747
      pz      :     0.008775  p :     0.020070
      px      :     0.003669
      py      :     0.007626

 24 H s       :     0.817615  s :     0.817615
      pz      :     0.005039  p :     0.019219
      px      :     0.004464
      py      :     0.009716

 25 H s       :     0.616276  s :     0.616276
      pz      :     0.010384  p :     0.042940
      px      :     0.019571
      py      :     0.012985

 26 H s       :     0.802536  s :     0.802536
      pz      :     0.003641  p :     0.019781
      px      :     0.007316
      py      :     0.008824

 27 H s       :     0.789175  s :     0.789175
      pz      :     0.009958  p :     0.019787
      px      :     0.005595
      py      :     0.004235

 28 H s       :     0.780359  s :     0.780359
      pz      :     0.010234  p :     0.020029
      px      :     0.005601
      py      :     0.004193

 29 H s       :     0.802310  s :     0.802310
      pz      :     0.003924  p :     0.019097
      px      :     0.005031
      py      :     0.010142

 30 H s       :     0.615868  s :     0.615868
      pz      :     0.010198  p :     0.042956
      px      :     0.015801
      py      :     0.016957

 31 H s       :     0.617423  s :     0.617423
      pz      :     0.013242  p :     0.042948
      px      :     0.018331
      py      :     0.011375



                     *******************************
                     * LOEWDIN POPULATION ANALYSIS *
                     *******************************

----------------------
LOEWDIN ATOMIC CHARGES
----------------------
   0 C :   -0.251369
   1 C :   -0.356032
   2 P :    0.609623
   3 O :   -0.321083
   4 C :   -0.363757
   5 C :   -0.255802
   6 C :   -0.476571
   7 O :    0.084684
   8 O :    0.069672
   9 C :   -0.356783
  10 C :   -0.253987
  11 C :   -0.475818
  12 O :    0.073182
  13 O :    0.088489
  14 C :   -0.477691
  15 O :    0.070609
  16 O :    0.084617
  17 H :    0.161811
  18 H :    0.168033
  19 H :    0.146860
  20 H :    0.147655
  21 H :    0.145782
  22 H :    0.162477
  23 H :    0.174178
  24 H :    0.155032
  25 H :    0.207200
  26 H :    0.142379
  27 H :    0.146558
  28 H :    0.170460
  29 H :    0.160095
  30 H :    0.210253
  31 H :    0.209243

-------------------------------
LOEWDIN REDUCED ORBITAL CHARGES
-------------------------------
  0 C s       :     2.785099  s :     2.785099
      pz      :     1.042352  p :     3.067268
      px      :     1.017908
      py      :     1.007009
      dz2     :     0.041256  d :     0.362503
      dxz     :     0.070063
      dyz     :     0.076791
      dx2y2   :     0.077719
      dxy     :     0.096674
      f0      :     0.003037  f :     0.036499
      f+1     :     0.004020
      f-1     :     0.005445
      f+2     :     0.004617
      f-2     :     0.004083
      f+3     :     0.008283
      f-3     :     0.007015

  1 C s       :     2.836383  s :     2.836383
      pz      :     1.079701  p :     3.189320
      px      :     1.066124
      py      :     1.043495
      dz2     :     0.040506  d :     0.303007
      dxz     :     0.061205
      dyz     :     0.079393
      dx2y2   :     0.054791
      dxy     :     0.067112
      f0      :     0.003068  f :     0.027322
      f+1     :     0.002408
      f-1     :     0.005056
      f+2     :     0.004564
      f-2     :     0.002446
      f+3     :     0.004803
      f-3     :     0.004976

  2 P s       :     4.675294  s :     4.675294
      pz      :     2.754805  p :     8.323026
      px      :     2.797217
      py      :     2.771004
      dz2     :     0.300450  d :     1.165827
      dxz     :     0.229651
      dyz     :     0.246536
      dx2y2   :     0.176068
      dxy     :     0.213123
      f0      :     0.047892  f :     0.226229
      f+1     :     0.035247
      f-1     :     0.033875
      f+2     :     0.032310
      f-2     :     0.036453
      f+3     :     0.018944
      f-3     :     0.021509

  3 O s       :     3.539235  s :     3.539235
      pz      :     1.553294  p :     4.737920
      px      :     1.602638
      py      :     1.581988
      dz2     :     0.013367  d :     0.041858
      dxz     :     0.006136
      dyz     :     0.016577
      dx2y2   :     0.003316
      dxy     :     0.002462
      f0      :     0.000410  f :     0.002069
      f+1     :     0.000177
      f-1     :     0.000811
      f+2     :     0.000341
      f-2     :     0.000242
      f+3     :     0.000040
      f-3     :     0.000049

  4 C s       :     2.834594  s :     2.834594
      pz      :     1.044242  p :     3.192406
      px      :     1.081486
      py      :     1.066679
      dz2     :     0.063755  d :     0.309772
      dxz     :     0.055468
      dyz     :     0.083761
      dx2y2   :     0.060972
      dxy     :     0.045817
      f0      :     0.005738  f :     0.026984
      f+1     :     0.004416
      f-1     :     0.003275
      f+2     :     0.004584
      f-2     :     0.003612
      f+3     :     0.003045
      f-3     :     0.002314

  5 C s       :     2.784418  s :     2.784418
      pz      :     1.036793  p :     3.070954
      px      :     0.998255
      py      :     1.035905
      dz2     :     0.071642  d :     0.364025
      dxz     :     0.073669
      dyz     :     0.083883
      dx2y2   :     0.083412
      dxy     :     0.051418
      f0      :     0.006612  f :     0.036405
      f+1     :     0.006128
      f-1     :     0.003743
      f+2     :     0.006516
      f-2     :     0.004240
      f+3     :     0.005117
      f-3     :     0.004051

  6 C s       :     2.770582  s :     2.770582
      pz      :     0.900295  p :     2.624312
      px      :     0.986442
      py      :     0.737574
      dz2     :     0.268719  d :     0.934053
      dxz     :     0.246588
      dyz     :     0.186652
      dx2y2   :     0.127320
      dxy     :     0.104774
      f0      :     0.033825  f :     0.147625
      f+1     :     0.024526
      f-1     :     0.019517
      f+2     :     0.030697
      f-2     :     0.021766
      f+3     :     0.008069
      f-3     :     0.009225

  7 O s       :     3.410638  s :     3.410638
      pz      :     1.492838  p :     4.432826
      px      :     1.582977
      py      :     1.357011
      dz2     :     0.020000  d :     0.066009
      dxz     :     0.022467
      dyz     :     0.013095
      dx2y2   :     0.005497
      dxy     :     0.004951
      f0      :     0.001229  f :     0.005843
      f+1     :     0.001703
      f-1     :     0.000899
      f+2     :     0.000913
      f-2     :     0.000834
      f+3     :     0.000135
      f-3     :     0.000130

  8 O s       :     3.349658  s :     3.349658
      pz      :     1.573369  p :     4.510120
      px      :     1.302491
      py      :     1.634260
      dz2     :     0.018718  d :     0.065871
      dxz     :     0.015276
      dyz     :     0.012318
      dx2y2   :     0.014911
      dxy     :     0.004648
      f0      :     0.000942  f :     0.004679
      f+1     :     0.000750
      f-1     :     0.000723
      f+2     :     0.000822
      f-2     :     0.000655
      f+3     :     0.000626
      f-3     :     0.000160

  9 C s       :     2.838894  s :     2.838894
      pz      :     1.051074  p :     3.187397
      px      :     1.049248
      py      :     1.087074
      dz2     :     0.084708  d :     0.303317
      dxz     :     0.060863
      dyz     :     0.039044
      dx2y2   :     0.032465
      dxy     :     0.086237
      f0      :     0.003860  f :     0.027174
      f+1     :     0.005155
      f-1     :     0.003911
      f+2     :     0.004164
      f-2     :     0.004233
      f+3     :     0.003503
      f-3     :     0.002347

 10 C s       :     2.786342  s :     2.786342
      pz      :     1.037060  p :     3.068242
      px      :     1.010080
      py      :     1.021103
      dz2     :     0.086863  d :     0.363042
      dxz     :     0.082421
      dyz     :     0.047794
      dx2y2   :     0.049614
      dxy     :     0.096350
      f0      :     0.005125  f :     0.036360
      f+1     :     0.005520
      f-1     :     0.005244
      f+2     :     0.004061
      f-2     :     0.006603
      f+3     :     0.005621
      f-3     :     0.004186

 11 C s       :     2.770305  s :     2.770305
      pz      :     0.902473  p :     2.618283
      px      :     0.854225
      py      :     0.861585
      dz2     :     0.276221  d :     0.937617
      dxz     :     0.243941
      dyz     :     0.195868
      dx2y2   :     0.103981
      dxy     :     0.117606
      f0      :     0.036731  f :     0.149612
      f+1     :     0.023708
      f-1     :     0.020369
      f+2     :     0.022509
      f-2     :     0.030558
      f+3     :     0.007884
      f-3     :     0.007854

 12 O s       :     3.407287  s :     3.407287
      pz      :     1.499393  p :     4.448842
      px      :     1.509243
      py      :     1.440207
      dz2     :     0.020363  d :     0.064929
      dxz     :     0.012964
      dyz     :     0.021939
      dx2y2   :     0.004625
      dxy     :     0.005038
      f0      :     0.001322  f :     0.005760
      f+1     :     0.000729
      f-1     :     0.001859
      f+2     :     0.000778
      f-2     :     0.000849
      f+3     :     0.000131
      f-3     :     0.000092

 13 O s       :     3.344294  s :     3.344294
      pz      :     1.567209  p :     4.495870
      px      :     1.417368
      py      :     1.511292
      dz2     :     0.020042  d :     0.066576
      dxz     :     0.018976
      dyz     :     0.008792
      dx2y2   :     0.003697
      dxy     :     0.015068
      f0      :     0.001036  f :     0.004771
      f+1     :     0.001062
      f-1     :     0.000487
      f+2     :     0.000559
      f-2     :     0.000856
      f+3     :     0.000432
      f-3     :     0.000338

 14 C s       :     2.770996  s :     2.770996
      pz      :     0.733851  p :     2.620533
      px      :     1.032446
      py      :     0.854237
      dz2     :     0.101608  d :     0.936736
      dxz     :     0.168696
      dyz     :     0.125708
      dx2y2   :     0.269987
      dxy     :     0.270738
      f0      :     0.010397  f :     0.149425
      f+1     :     0.012263
      f-1     :     0.013575
      f+2     :     0.021353
      f-2     :     0.018747
      f+3     :     0.044771
      f-3     :     0.028320

 15 O s       :     3.408499  s :     3.408499
      pz      :     1.382874  p :     4.449995
      px      :     1.507667
      py      :     1.559454
      dz2     :     0.007991  d :     0.065129
      dxz     :     0.013079
      dyz     :     0.002787
      dx2y2   :     0.022281
      dxy     :     0.018991
      f0      :     0.000473  f :     0.005769
      f+1     :     0.000831
      f-1     :     0.000168
      f+2     :     0.000529
      f-2     :     0.000552
      f+3     :     0.001601
      f-3     :     0.001614

 16 O s       :     3.345394  s :     3.345394
      pz      :     1.608412  p :     4.498802
      px      :     1.476814
      py      :     1.413576
      dz2     :     0.007875  d :     0.066425
      dxz     :     0.005452
      dyz     :     0.013305
      dx2y2   :     0.018509
      dxy     :     0.021284
      f0      :     0.000497  f :     0.004762
      f+1     :     0.000282
      f-1     :     0.000561
      f+2     :     0.000765
      f-2     :     0.000487
      f+3     :     0.000886
      f-3     :     0.001284

 17 H s       :     0.781424  s :     0.781424
      pz      :     0.024520  p :     0.056766
      px      :     0.015881
      py      :     0.016366

 18 H s       :     0.773333  s :     0.773333
      pz      :     0.027660  p :     0.058633
      px      :     0.020281
      py      :     0.010693

 19 H s       :     0.791461  s :     0.791461
      pz      :     0.014361  p :     0.061680
      px      :     0.031592
      py      :     0.015727

 20 H s       :     0.792367  s :     0.792367
      pz      :     0.025204  p :     0.059978
      px      :     0.022848
      py      :     0.011926

 21 H s       :     0.794930  s :     0.794930
      pz      :     0.023200  p :     0.059288
      px      :     0.013207
      py      :     0.022880

 22 H s       :     0.773960  s :     0.773960
      pz      :     0.014535  p :     0.063563
      px      :     0.018010
      py      :     0.031018

 23 H s       :     0.767180  s :     0.767180
      pz      :     0.023910  p :     0.058642
      px      :     0.011580
      py      :     0.023153

 24 H s       :     0.788219  s :     0.788219
      pz      :     0.014874  p :     0.056749
      px      :     0.013705
      py      :     0.028171

 25 H s       :     0.649739  s :     0.649739
      pz      :     0.033667  p :     0.143061
      px      :     0.074302
      py      :     0.035091

 26 H s       :     0.798198  s :     0.798198
      pz      :     0.012645  p :     0.059423
      px      :     0.021231
      py      :     0.025547

 27 H s       :     0.793434  s :     0.793434
      pz      :     0.028237  p :     0.060008
      px      :     0.018033
      py      :     0.013738

 28 H s       :     0.770994  s :     0.770994
      pz      :     0.027916  p :     0.058546
      px      :     0.016880
      py      :     0.013749

 29 H s       :     0.782952  s :     0.782952
      pz      :     0.012738  p :     0.056954
      px      :     0.015980
      py      :     0.028236

 30 H s       :     0.647228  s :     0.647228
      pz      :     0.033037  p :     0.142519
      px      :     0.050632
      py      :     0.058850

 31 H s       :     0.648203  s :     0.648203
      pz      :     0.035835  p :     0.142554
      px      :     0.074427
      py      :     0.032292



                      *****************************
                      * MAYER POPULATION ANALYSIS *
                      *****************************

  NA   - Mulliken gross atomic population
  ZA   - Total nuclear charge
  QA   - Mulliken gross atomic charge
  VA   - Mayer's total valence
  BVA  - Mayer's bonded valence
  FA   - Mayer's free valence

  ATOM       NA         ZA         QA         VA         BVA        FA
  0 C      6.3047     6.0000    -0.3047     3.7201     3.7201    -0.0000
  1 C      6.3963     6.0000    -0.3963     3.7190     3.7190    -0.0000
  2 P     14.3619    15.0000     0.6381     4.6845     4.6845    -0.0000
  3 O      8.6151     8.0000    -0.6151     1.9242     1.9242    -0.0000
  4 C      6.4163     6.0000    -0.4163     3.7094     3.7094    -0.0000
  5 C      6.3480     6.0000    -0.3480     3.6895     3.6895    -0.0000
  6 C      5.6356     6.0000     0.3644     4.2503     4.2503    -0.0000
  7 O      8.3337     8.0000    -0.3337     2.1267     2.1267    -0.0000
  8 O      8.4126     8.0000    -0.4126     2.0479     2.0479    -0.0000
  9 C      6.4389     6.0000    -0.4389     3.7360     3.7360    -0.0000
 10 C      6.2789     6.0000    -0.2789     3.7014     3.7014    -0.0000
 11 C      5.6171     6.0000     0.3829     4.1978     4.1978    -0.0000
 12 O      8.3760     8.0000    -0.3760     2.0624     2.0624    -0.0000
 13 O      8.4011     8.0000    -0.4011     2.0701     2.0701    -0.0000
 14 C      5.6057     6.0000     0.3943     4.1715     4.1715    -0.0000
 15 O      8.3742     8.0000    -0.3742     2.0661     2.0661    -0.0000
 16 O      8.4056     8.0000    -0.4056     2.0606     2.0606    -0.0000
 17 H      0.8238     1.0000     0.1762     0.9558     0.9558    -0.0000
 18 H      0.7970     1.0000     0.2030     0.9669     0.9669     0.0000
 19 H      0.8065     1.0000     0.1935     0.9588     0.9588    -0.0000
 20 H      0.8074     1.0000     0.1926     0.9450     0.9450    -0.0000
 21 H      0.8191     1.0000     0.1809     0.9506     0.9506     0.0000
 22 H      0.7714     1.0000     0.2286     0.9646     0.9646    -0.0000
 23 H      0.7848     1.0000     0.2152     0.9683     0.9683    -0.0000
 24 H      0.8368     1.0000     0.1632     0.9644     0.9644     0.0000
 25 H      0.6592     1.0000     0.3408     0.9151     0.9151    -0.0000
 26 H      0.8223     1.0000     0.1777     0.9506     0.9506     0.0000
 27 H      0.8090     1.0000     0.1910     0.9504     0.9504    -0.0000
 28 H      0.8004     1.0000     0.1996     0.9692     0.9692    -0.0000
 29 H      0.8214     1.0000     0.1786     0.9556     0.9556    -0.0000
 30 H      0.6588     1.0000     0.3412     0.9144     0.9144    -0.0000
 31 H      0.6604     1.0000     0.3396     0.9156     0.9156    -0.0000

  Mayer bond orders larger than 0.100000
B(  0-C ,  1-C ) :   0.9099 B(  0-C , 14-C ) :   0.9689 B(  0-C , 17-H ) :   0.9500 
B(  0-C , 18-H ) :   0.9403 B(  1-C ,  2-P ) :   0.8998 B(  1-C , 19-H ) :   0.9520 
B(  1-C , 20-H ) :   0.9400 B(  2-P ,  3-O ) :   1.8128 B(  2-P ,  4-C ) :   0.9222 
B(  2-P ,  9-C ) :   0.9006 B(  4-C ,  5-C ) :   0.9005 B(  4-C , 21-H ) :   0.9453 
B(  4-C , 22-H ) :   0.9353 B(  5-C ,  6-C ) :   0.9713 B(  5-C , 23-H ) :   0.9339 
B(  5-C , 24-H ) :   0.9544 B(  6-C ,  7-O ) :   2.0547 B(  6-C ,  8-O ) :   1.1993 
B(  8-O , 25-H ) :   0.8571 B(  9-C , 10-C ) :   0.8997 B(  9-C , 26-H ) :   0.9624 
B(  9-C , 27-H ) :   0.9470 B( 10-C , 11-C ) :   0.9776 B( 10-C , 28-H ) :   0.9352 
B( 10-C , 29-H ) :   0.9516 B( 11-C , 12-O ) :   1.9463 B( 11-C , 13-O ) :   1.2125 
B( 13-O , 30-H ) :   0.8556 B( 14-C , 15-O ) :   1.9520 B( 14-C , 16-O ) :   1.2024 
B( 16-O , 31-H ) :   0.8572 

-------
TIMINGS
-------

Total SCF time: 0 days 0 hours 1 min 25 sec 

Total time                  ....      85.087 sec
Sum of individual times     ....      85.103 sec  (100.0%)

SCF preparation             ....       0.226 sec  (  0.3%)
Fock matrix formation       ....      82.042 sec  ( 96.4%)
  Startup                   ....       0.100 sec  (  0.1% of F)
  Split-RI-J                ....       5.752 sec  (  7.0% of F)
  Chain of spheres X        ....      58.066 sec  ( 70.8% of F)
  XC integration            ....      17.827 sec  ( 21.7% of F)
    Basis function eval.    ....       2.590 sec  ( 14.5% of XC)
    Density eval.           ....       7.097 sec  ( 39.8% of XC)
    XC-Functional eval.     ....       0.449 sec  (  2.5% of XC)
    XC-Potential eval.      ....       6.300 sec  ( 35.3% of XC)
Diagonalization             ....       0.000 sec  (  0.0%)
Density matrix formation    ....       0.274 sec  (  0.3%)
Total Energy calculation    ....       0.094 sec  (  0.1%)
Population analysis         ....       0.150 sec  (  0.2%)
Orbital Transformation      ....       0.317 sec  (  0.4%)
Orbital Orthonormalization  ....       0.000 sec  (  0.0%)
DIIS solution               ....       1.309 sec  (  1.5%)
SOSCF solution              ....       0.691 sec  (  0.8%)
Finished LeanSCF after  85.1 sec

Maximum memory used throughout the entire LEANSCF-calculation: 78.4 MB


-------------------------------------------------------------------------------
                          DFT DISPERSION CORRECTION                            
                                                                               
                              DFTD3 V3.1  Rev 1                                
                              USING zero damping                               
-------------------------------------------------------------------------------
The M062X functional is recognized
Active option DFTDOPT                   ...         3   

molecular C6(AA) [au] = 10542.300324 


            DFT-D V3
 parameters
 s6 scaling factor         :     1.0000 
 rs6 scaling factor        :     1.6190 
 s8 scaling factor         :     0.0000 
 rs8 scaling factor        :     1.0000 
 Damping factor alpha6     :    14.0000 
 Damping factor alpha8     :    16.0000 
 ad hoc parameters k1-k3   :    16.0000     1.3333    -4.0000 

 Edisp/kcal,au: -1.229599577114  -0.001959491445 
 E6   /kcal   :  -1.229599577 
 E8   /kcal   :  -0.000000000 
 % E8         :   0.000000000 

-------------------------   ----------------
Dispersion correction           -0.001959491
-------------------------   ----------------


-------------------------   --------------------
FINAL SINGLE POINT ENERGY     -1220.032317236044
-------------------------   --------------------



           ************************************************************
           *        Program running with 6 parallel MPI-processes     *
           *              working on a common directory               *
           ************************************************************

------------------------------------------------------------------------------
                              ORCA PROPERTY CALCULATIONS
------------------------------------------------------------------------------

GBWName                                 ... data/single_point_PO_M06-2x/119411/119411.gbw
Number of atoms                         ...     32
Number of basis functions               ...    623
Max core memory                         ...   1024 MB

Electric properties:
Dipole moment                           ... YES
Quadrupole moment                       ...  NO
Static polarizability (Dipole/Dipole)   ...  NO
Static polarizability (Dipole/Quad.)    ...  NO
Static polarizability (Quad./Quad.)     ...  NO
Static polarizability (Velocity)        ...  NO

Atomic electric properties:
Dipole moment                           ...  NO
Quadrupole moment                       ...  NO
Static polarizability                   ...  NO

Choice of electric origin               ... Center of mass
Position of electric origin             ...     0.207963     0.335222    -0.100406

General magnetic properties:
Magnetizability                         ...  NO

EPR properties:
g-Tensor (aka g-matrix)                 ...  NO
Zero-Field splitting spin-orbit         ...  NO
Zero-field splitting spin-spin          ...  NO
Hyperfine couplings                     ...  NO (   0 nuclei)
Quadrupole couplings                    ...  NO (   0 nuclei)
Contact density                         ...  NO (   0 nuclei)

NMR properties:
Chemical shifts                         ...  NO (   0 nuclei)
Spin-rotation constants                 ...  NO (   0 nuclei)
Spin-spin couplings                     ...  NO (   0 nuclei,    0 pairs)

Choice of magnetic origin               ... GIAO
Position of magnetic origin             ...     0.000000     0.000000     0.000000

Properties with geometric perturbations:
SCF Hessian                             ...  NO
IR spectrum                             ...  NO
VCD spectrum                            ...  NO
X-ray spectroscopy properties:
SCF XES/XAS/RIXS spectra                ...  NO


-------------
DIPOLE MOMENT
-------------

Method             : SCF
Type of density    : Electron Density
Multiplicity       :   1
Irrep              :   0
Energy             : -1220.0303577445995415 Eh
Relativity type    : 
Basis              : AO
                                X                 Y                 Z
Electronic contribution:      2.388097218       4.082294690      -1.820767845
Nuclear contribution   :     -3.173984543      -5.001831144       1.964998518
                        -----------------------------------------
Total Dipole Moment    :     -0.785887324      -0.919536454       0.144230673
                        -----------------------------------------
Magnitude (a.u.)       :      1.218182525
Magnitude (Debye)      :      3.096373905



--------------------
Rotational spectrum 
--------------------
 
Rotational constants in cm-1:             0.015936             0.009163             0.006575 
Rotational constants in MHz :           477.750407           274.687147           197.116186 

Dipole components along the rotational axes: 
x,y,z [a.u.] :    -0.597255    -0.896037     0.569537 
x,y,z [Debye]:    -1.518101    -2.277545     1.447649 

 

Dipole moment calculation done in   0.0 sec 

Maximum memory used throughout the entire PROP-calculation: 41.6 MB

--------------------------------
SUGGESTED CITATIONS FOR THIS RUN
--------------------------------

Below you find a list of papers that are relevant to this ORCA run
We neither can nor want to force you to cite these papers, but we appreciate if you do
You receive ORCA, which is the product of decades of hard work by many enthusiastic individuals, for free
The only thing we kindly ask in return is that you cite our papers,
We deeply appreciate it, if you show your appreciation for ORCA by not just citing the generic ORCA reference.

Please note that relegating all ORCA citations to the supporting information does *not* help us.
SI sections are not indexed - citations you put there will not count into any citation statistics
But we need these citations in order to attract the funding resources that allow us to do what we are doing

Therefore, if you are a happy ORCA user, please consider citing a few of the papers listed below in the main body of your paper

In addition to the list printed below, the program has created the file data/single_point_PO_M06-2x/119411/119411.bibtex that contains the list in bibtex format
You can import this file easily into all common literature databanks and citation aid programs


List of essential papers. We consider these as the minimum necessary citations

  1. Neese,F.
     Software update: the ORCA program system, version 5.0
     WIRES Comput. Molec. Sci., 2022 12(1)e1606
     doi.org/10.1002/wcms.1606

List of papers to cite with high priority. The work reported in these papers was absolutely
necessary for this run to complete.
Our perspective: the developers of density functionals and basis sets usually get cited in chemistry papers
Good! But without the algorithms to do something with them, the functionals or basis sets would not do anything.
Hence, in our opinion, the algorithm design and method developments papers are equally worthy of getting cited

  1. Neese,F.
     An improvement of the resolution of the identity approximation for the formation of the Coulomb matrix
     J. Comp. Chem., 2003 24(14)1740-1747
     doi.org/10.1002/jcc.10318
  2. Neese,F.; Wennmohs,F.; Hansen,A.; Becker,U.
     Efficient, approximate and parallel Hartree-Fock and hybrid DFT calculations. A 'chain-of-spheres' algorithm for the Hartree-Fock exchange
     Chem. Phys., 2009 356(1-3)98-109
     doi.org/10.1016/j.chemphys.2008.10.036
  3. Helmich-Paris,B.; de Souza,B.; Neese,F.; Izsák,R.
     An improved chain of spheres for exchange algorithm
     J. Chem. Phys., 2021 155 104109
     doi.org/doi: 10.1063/5.0058766.
  4. Neese,F.
     The SHARK Integral Generation and Digestion System
     J. Comp. Chem., 2022  1-16
     doi.org/10.1002/jcc.26942
  5. Grimme,S.; Antony,J.; Ehrlich,S.; Krieg,H.
     A consistent and accurate ab initio parametrization of density functional dispersion correction (DFT-D) for the 94 elements H-Pu
     J. Chem. Phys., 2010 132 154104-XXXX
     doi.org/10.1063/1.3382344

List of suggested additional citations. These are papers that are important in the 'surrounding' of 
of this run, or papers that preceded the highly important papers. If you like your results we are grateful for a citation.

  1. Izsak,R.; Neese,F.
     An overlap fitted chain of spheres exchange method
     J. Chem. Phys., 2011 135 144105
     doi.org/10.1063/1.3646921
  2. Izsak,R.; Hansen,A.; Neese,F.
     The resolution of identity and chain of spheres approximations for the LPNO-CCSD singles Fock term
     Molec. Phys., 2012 110 2413-2417
     doi.org/10.1080/00268976.2012.687466
  3. Neese,F.
     The ORCA program system
     WIRES Comput. Molec. Sci., 2012 2(1)73-78
     doi.org/10.1002/wcms.81
  4. Izsak,R.; Neese,F.; Klopper,W.
     Robust fitting techniques in the chain of spheres approximation to the Fock exchange: The role of the complementary space
     J. Chem. Phys., 2013 139 
     doi.org/10.1063/1.4819264
  5. Neese,F.
     Software update: the ORCA program system, version 4.0
     WIRES Comput. Molec. Sci., 2018 8(1)1-6
     doi.org/10.1002/wcms.1327
  6. Neese,F.; Wennmohs,F.; Becker,U.; Riplinger,C.
     The ORCA quantum chemistry program package
     J. Chem. Phys., 2020 152 Art. No. L224108
     doi.org/10.1063/5.0004608

List of optional additional citations

  1. Neese,F.
     Approximate second-order SCF convergence for spin unrestricted wavefunctions
     Chem. Phys. Lett., 2000 325(1-3)93-98
     doi.org/10.1016/s0009-2614(00)00662-x

Timings for individual modules:

Sum of individual times          ...       89.594 sec (=   1.493 min)
Startup calculation              ...        2.831 sec (=   0.047 min)   3.2 %
SCF iterations                   ...       86.519 sec (=   1.442 min)  96.6 %
Property calculations            ...        0.244 sec (=   0.004 min)   0.3 %
                             ****ORCA TERMINATED NORMALLY****
TOTAL RUN TIME: 0 days 0 hours 1 minutes 29 seconds 847 msec
