
                                 *****************
                                 * O   R   C   A *
                                 *****************

                                            #,                                       
                                            ###                                      
                                            ####                                     
                                            #####                                    
                                            ######                                   
                                           ########,                                 
                                     ,,################,,,,,                         
                               ,,#################################,,                 
                          ,,##########################################,,             
                       ,#########################################, ''#####,          
                    ,#############################################,,   '####,        
                  ,##################################################,,,,####,       
                ,###########''''           ''''###############################       
              ,#####''   ,,,,##########,,,,          '''####'''          '####       
            ,##' ,,,,###########################,,,                        '##       
           ' ,,###''''                  '''############,,,                           
         ,,##''                                '''############,,,,        ,,,,,,###''
      ,#''                                            '''#######################'''  
     '                                                          ''''####''''         
             ,#######,   #######,   ,#######,      ##                                
            ,#'     '#,  ##    ##  ,#'     '#,    #''#        ,####,   ,####,        
            ##       ##  ##   ,#'  ##            #'  '#       #'       #'  '#        
            ##       ##  #######   ##           ,######,      #####,   #    #        
            '#,     ,#'  ##    ##  '#,     ,#' ,#      #,     #,   #   #,  ,#        
             '#######'   ##     ##  '#######'  #'      '#     '####' # '####'        



                #########################################################
                #                        -***-                          #
                #          Department of theory and spectroscopy        #
                #                                                       #
                #                      Frank Neese                      #
                #                                                       #
                #     Directorship, Architecture, Infrastructure        #
                #                    SHARK, DRIVERS                     #
                #        Core code/Algorithms in most modules           #
                #                                                       #
                #        Max Planck Institute fuer Kohlenforschung      #
                #                Kaiser Wilhelm Platz 1                 #
                #                 D-45470 Muelheim/Ruhr                 #
                #                      Germany                          #
                #                                                       #
                #                  All rights reserved                  #
                #                        -***-                          #
                #########################################################


                         Program Version 6.0.0  -   RELEASE   -


 With contributions from (in alphabetic order):
   Daniel Aravena         : Magnetic Suceptibility
   Michael Atanasov       : Ab Initio Ligand Field Theory (pilot matlab implementation)
   Alexander A. Auer      : GIAO ZORA, VPT2 properties, NMR spectrum
   Ute Becker             : All parallelization in ORCA, NUMFREQ, NUMCALC
   Giovanni Bistoni       : ED, misc. LED, open-shell LED, HFLD
   Martin Brehm           : Molecular dynamics
   Dmytro Bykov           : pre 5.0 version of the SCF Hessian
   Marcos Casanova-Páez   : Triplet and SCS-CIS(D). UHF-(DLPNO)-IP/EA/STEOM-CCSD. UHF-CVS-IP/STEOM-CCSD
   Vijay G. Chilkuri      : MRCI spin determinant printing, contributions to CSF-ICE
   Pauline Colinet        : FMM embedding
   Dipayan Datta          : RHF DLPNO-CCSD density
   Achintya Kumar Dutta   : EOM-CC, STEOM-CC
   Nicolas Foglia         : Exact transition moments, OPA infrastructure, MCD improvements
   Dmitry Ganyushin       : Spin-Orbit,Spin-Spin,Magnetic field MRCI
   Miquel Garcia          : C-PCM and meta-GGA Hessian, CCSD/C-PCM, Gaussian charge scheme
   Tiago L. C. Gouveia    : GS-ROHF, GS-ROCIS
   Yang Guo               : DLPNO-NEVPT2, F12-NEVPT2, CIM, IAO-localization
   Andreas Hansen         : Spin unrestricted coupled pair/coupled cluster methods
   Ingolf Harden          : AUTO-CI MPn and infrastructure 
   Benjamin Helmich-Paris : MC-RPA, TRAH-(SCF,CASSCF), AVAS, COSX integrals, SCF dyn. polar.
   Lee Huntington         : MR-EOM, pCC
   Robert Izsak           : Overlap fitted RIJCOSX, COSX-SCS-MP3, EOM
   Riya Kayal             : Wick's Theorem for AUTO-CI, AUTO-CI UHF-CCSDT
   Emily Kempfer          : AUTO-CI, RHF CISDT and CCSDT
   Christian Kollmar      : KDIIS, OOCD, Brueckner-CCSD(T), CCSD density, CASPT2, CASPT2-K, improved NEVPT2
   Axel Koslowski         : Symmetry handling
   Simone Kossmann        : Meta GGA functionals, TD-DFT gradient, OOMP2, (MP2 Hessian; deprecated post 5.0)
   Lucas Lang             : DCDCAS
   Marvin Lechner         : AUTO-CI (C++ implementation), FIC-MRCC
   Spencer Leger          : CASSCF response
   Dagmar Lenk            : GEPOL surface, SMD, ORCA-2-JSON
   Dimitrios Liakos       : Extrapolation schemes; Compound Job, initial MDCI parallelization
   Dimitrios Manganas     : Further ROCIS development; embedding schemes. LFT, Crystal Embedding
   Dimitrios Pantazis     : SARC Basis sets
   Anastasios Papadopoulos: AUTO-CI, single reference methods and gradients
   Taras Petrenko         : pre 6.0 DFT Hessian and TD-DFT gradient, (ASA, deprecated), ECA, 1-Electron XAS/XES, NRVS
   Peter Pinski           : DLPNO-MP2, DLPNO-MP2 Gradient
   Christoph Reimann      : Effective Core Potentials
   Marius Retegan         : Local ZFS, SOC
   Christoph Riplinger    : Optimizer, TS searches, QM/MM, DLPNO-CCSD(T), (RO)-DLPNO pert. Triples
   Michael Roemelt        : Original ROCIS implementation
   Masaaki Saitow         : Open-shell DLPNO-CCSD energy and density
   Barbara Sandhoefer     : DKH picture change effects
   Kantharuban Sivalingam : CASSCF convergence/infrastructure, NEVPT2 and variants, FIC-MRCI
   Bernardo de Souza      : ESD, SOC TD-DFT
   Georgi Stoychev        : AutoAux, RI-MP2 NMR, DLPNO-MP2 response, X2C
   Van Anh Tran           : RI-MP2 g-tensors
   Willem Van den Heuvel  : Paramagnetic NMR
   Zikuan Wang            : NOTCH, Electric field optimization 
   Frank Wennmohs         : Technical directorship and infrastructure
   Hang Xu                : AUTO-CI-Response properties 


 We gratefully acknowledge several colleagues who have allowed us to
 interface, adapt or use parts of their codes:
   Stefan Grimme, W. Hujo, H. Kruse, P. Pracht,  : VdW corrections, initial TS optimization,
                  C. Bannwarth, S. Ehlert,         DFT functionals, gCP, sTDA/sTD-DF
                  L. Wittmann, M. Mueller
   Ed Valeev, F. Pavosevic, A. Kumar             : LibInt (2-el integral package), F12 methods
   Garnet Chan, S. Sharma, J. Yang, R. Olivares  : DMRG
   Ulf Ekstrom                                   : XCFun DFT Library
   Mihaly Kallay                                 : mrcc  (arbitrary order and MRCC methods)
   Frank Weinhold                                : gennbo (NPA and NBO analysis)
   Simon Mueller                                 : openCOSMO-RS
   Christopher J. Cramer and Donald G. Truhlar   : smd solvation model
   Lars Goerigk                                  : TD-DFT with DH, B97 family of functionals
   V. Asgeirsson, H. Jonsson                     : NEB implementation
   FAccTs GmbH                                   : IRC, NEB, NEB-TS, DLPNO-Multilevel, CI-OPT
                                                   MM, QMMM, 2- and 3-layer-ONIOM, Crystal-QMMM,
                                                   LR-CPCM, SF, NACMEs, symmetry and pop. for TD-DFT,
                                                   nearIR, NL-DFT gradient (VV10), updates on ESD,
                                                   ML-optimized integration grids, MBIS, APM,
                                                   GOAT, DOCKER, SOLVATOR, interface openCOSMO-RS
   S Lehtola, MJT Oliveira, MAL Marques          : LibXC Library
   Liviu Ungur et al                             : ANISO software


 Your calculation uses the libint2 library for the computation of 2-el integrals
 For citations please refer to: http://libint.valeyev.net

 Your ORCA version has been built with support for libXC version: 6.2.2
 For citations please refer to: https://libxc.gitlab.io

 This ORCA versions uses:
   CBLAS   interface :  Fast vector & matrix operations
   LAPACKE interface :  Fast linear algebra routines
   Shared memory     :  Shared parallel matrices


Your calculation utilizes the atom-pairwise dispersion correction
with the Becke-Johnson damping scheme (D3BJ)


Warning: RI is on but no J-basis has been assigned. Assigning Def2/J (nothing to worry about!)
================================================================================

----- Orbital basis set information -----
Your calculation utilizes the basis: def2-SVP
   F. Weigend and R. Ahlrichs, Phys. Chem. Chem. Phys. 7, 3297 (2005).

----- AuxJ basis set information -----
Your calculation utilizes the auxiliary basis: def2/J
   F. Weigend, Phys. Chem. Chem. Phys. 8, 1057 (2006).

================================================================================
                                        WARNINGS
                       Please study these warnings very carefully!
================================================================================


WARNING: Geometry Optimization
  ===> : Switching off AutoStart
         For restart on a previous wavefunction, please use MOREAD

================================================================================
                                       INPUT FILE
================================================================================
NAME = data/geom_opt_PO_BP86/11776/11776.inp
|  1> ! RI BP86 def2-SVP D3BJ TIGHTSCF Opt
|  2> %pal
|  3> nprocs 6
|  4> end
|  5> 
|  6> * xyz 0 1
|  7> C      4.166674   -0.172766    1.277793
|  8> C      3.551535    0.676047    0.359596
|  9> C      2.159264    0.706768    0.256486
| 10> C      1.366858   -0.114071    1.072216
| 11> C      2.001150   -0.960794    1.995238
| 12> C      3.392050   -0.990687    2.096942
| 13> P     -0.434496   -0.135524    0.975168
| 14> O     -1.048371   -0.326999    2.352921
| 15> C     -0.973745    1.422593    0.242888
| 16> C     -1.221020    1.568401   -1.129954
| 17> C     -1.622788    2.800209   -1.650743
| 18> C     -1.782693    3.897943   -0.807309
| 19> C     -1.544277    3.766667    0.558693
| 20> C     -1.143210    2.536679    1.080340
| 21> C     -0.918903   -1.472520   -0.135033
| 22> C     -0.055881   -1.999944   -1.106690
| 23> C     -0.483364   -3.025420   -1.952652
| 24> C     -1.775123   -3.535265   -1.836989
| 25> C     -2.641675   -3.023613   -0.874006
| 26> C     -2.215874   -1.999448   -0.028062
| 27> H      5.250458   -0.192963    1.359059
| 28> H      4.157434    1.318559   -0.274665
| 29> H      1.704225    1.380028   -0.465466
| 30> H      1.399985   -1.597139    2.643606
| 31> H      3.869324   -1.648943    2.818507
| 32> H     -1.106735    0.727144   -1.808764
| 33> H     -1.815485    2.902735   -2.715910
| 34> H     -2.098725    4.855228   -1.213913
| 35> H     -1.674591    4.619855    1.219626
| 36> H     -0.965384    2.437807    2.150535
| 37> H      0.957522   -1.622132   -1.215426
| 38> H      0.193966   -3.430304   -2.700661
| 39> H     -2.105128   -4.335813   -2.494118
| 40> H     -3.647673   -3.424114   -0.777507
| 41> H     -2.895305   -1.608207    0.728257
| 42> **                         ****END OF INPUT****
================================================================================

                       *****************************
                       * Geometry Optimization Run *
                       *****************************

Geometry optimization settings:
Update method            Update   .... BFGS
Choice of coordinates    CoordSys .... (2022) Redundant Internals
Initial Hessian          InHess   .... Almloef's Model
Max. no of cycles        MaxIter  .... 105

Convergence Tolerances:
Energy Change            TolE     ....  5.0000e-06 Eh
Max. Gradient            TolMAXG  ....  3.0000e-04 Eh/bohr
RMS Gradient             TolRMSG  ....  1.0000e-04 Eh/bohr
Max. Displacement        TolMAXD  ....  4.0000e-03 bohr
RMS Displacement         TolRMSD  ....  2.0000e-03 bohr
Strict Convergence                .... False

------------------------------------------------------------------------------
                        ORCA OPTIMIZATION COORDINATE SETUP
------------------------------------------------------------------------------

The optimization will be done in redundant internal coordinates (2022)
Making redundant internal coordinates   ...  (2022 redundants) done
Evaluating the initial hessian          ...  (Almloef) done
Evaluating the coordinates              ...  done
Calculating the B-matrix                .... done
Calculating the G-matrix                .... done
Diagonalizing the G-matrix              .... done
Small eigenvalue found = 5.737e-03
Small eigenvalue found = 6.137e-03
Small eigenvalue found = 9.941e-03
Small eigenvalue found = 2.514e-02
Small eigenvalue found = 2.664e-02
The first mode is                       ....   85
The number of degrees of freedom        ....   99

    -----------------------------------------------------------------
                    Redundant Internal Coordinates


    -----------------------------------------------------------------
         Definition                    Initial Value    Approx d2E/dq
    -----------------------------------------------------------------
      1. B(C   1,C   0)                  1.3935         0.616714   
      2. B(C   2,C   1)                  1.3964         0.610229   
      3. B(C   3,C   2)                  1.4025         0.596682   
      4. B(C   4,C   3)                  1.4040         0.593460   
      5. B(C   5,C   4)                  1.3949         0.613574   
      6. B(C   5,C   0)                  1.3929         0.618280   
      7. B(P   6,C   3)                  1.8041         0.458746   
      8. B(O   7,P   6)                  1.5204         1.164866   
      9. B(C   8,P   6)                  1.8041         0.458747   
     10. B(C   9,C   8)                  1.4025         0.596681   
     11. B(C  10,C   9)                  1.3964         0.610233   
     12. B(C  11,C  10)                  1.3935         0.616710   
     13. B(C  12,C  11)                  1.3929         0.618284   
     14. B(C  13,C  12)                  1.3949         0.613574   
     15. B(C  13,C   8)                  1.4040         0.593463   
     16. B(C  14,P   6)                  1.8041         0.458746   
     17. B(C  15,C  14)                  1.4025         0.596681   
     18. B(C  16,C  15)                  1.3964         0.610229   
     19. B(C  17,C  16)                  1.3935         0.616718   
     20. B(C  18,C  17)                  1.3929         0.618285   
     21. B(C  19,C  18)                  1.3949         0.613573   
     22. B(C  19,C  14)                  1.4040         0.593464   
     23. B(H  20,C   0)                  1.0870         0.364072   
     24. B(H  21,C   1)                  1.0873         0.363689   
     25. B(H  22,C   2)                  1.0870         0.364100   
     26. B(H  23,C   4)                  1.0894         0.360941   
     27. B(H  24,C   5)                  1.0871         0.363981   
     28. B(H  25,C   9)                  1.0870         0.364098   
     29. B(H  26,C  10)                  1.0873         0.363688   
     30. B(H  27,C  11)                  1.0870         0.364073   
     31. B(H  28,C  12)                  1.0871         0.363983   
     32. B(H  29,C  13)                  1.0894         0.360942   
     33. B(H  30,C  15)                  1.0870         0.364102   
     34. B(H  31,C  16)                  1.0873         0.363688   
     35. B(H  32,C  17)                  1.0870         0.364072   
     36. B(H  33,C  18)                  1.0871         0.363982   
     37. B(H  34,C  19)                  1.0894         0.360942   
     38. A(C   5,C   0,H  20)          119.9742         0.353399   
     39. A(C   1,C   0,C   5)          119.9795         0.433435   
     40. A(C   1,C   0,H  20)          120.0454         0.353247   
     41. A(C   2,C   1,H  21)          119.9683         0.352553   
     42. A(C   0,C   1,C   2)          120.1430         0.432414   
     43. A(C   0,C   1,H  21)          119.8881         0.353184   
     44. A(C   1,C   2,H  22)          118.6884         0.352620   
     45. A(C   1,C   2,C   3)          120.4962         0.429857   
     46. A(C   3,C   2,H  22)          120.8152         0.351284   
     47. A(C   2,C   3,C   4)          118.6902         0.427714   
     48. A(C   4,C   3,P   6)          118.6384         0.435264   
     49. A(C   2,C   3,P   6)          122.6698         0.435688   
     50. A(C   5,C   4,H  23)          119.6263         0.352426   
     51. A(C   3,C   4,C   5)          120.7519         0.429861   
     52. A(C   3,C   4,H  23)          119.6207         0.350447   
     53. A(C   0,C   5,C   4)          119.9385         0.433037   
     54. A(C   4,C   5,H  24)          119.9433         0.352927   
     55. A(C   0,C   5,H  24)          120.1176         0.353384   
     56. A(C   8,P   6,C  14)          108.0598         0.443416   
     57. A(C   3,P   6,C  14)          108.0600         0.443416   
     58. A(O   7,P   6,C   8)          110.8481         0.523673   
     59. A(C   3,P   6,C   8)          108.0601         0.443416   
     60. A(C   3,P   6,O   7)          110.8480         0.523673   
     61. A(O   7,P   6,C  14)          110.8482         0.523673   
     62. A(P   6,C   8,C   9)          122.6694         0.435689   
     63. A(C   9,C   8,C  13)          118.6901         0.427714   
     64. A(P   6,C   8,C  13)          118.6388         0.435264   
     65. A(C   8,C   9,C  10)          120.4962         0.429858   
     66. A(C  10,C   9,H  25)          118.6886         0.352620   
     67. A(C   8,C   9,H  25)          120.8151         0.351283   
     68. A(C   9,C  10,C  11)          120.1430         0.432414   
     69. A(C  11,C  10,H  26)          119.8881         0.353183   
     70. A(C   9,C  10,H  26)          119.9684         0.352553   
     71. A(C  10,C  11,C  12)          119.9796         0.433435   
     72. A(C  12,C  11,H  27)          119.9744         0.353399   
     73. A(C  10,C  11,H  27)          120.0452         0.353247   
     74. A(C  13,C  12,H  28)          119.9433         0.352927   
     75. A(C  11,C  12,H  28)          120.1177         0.353384   
     76. A(C  11,C  12,C  13)          119.9384         0.433037   
     77. A(C  12,C  13,H  29)          119.6263         0.352426   
     78. A(C   8,C  13,H  29)          119.6206         0.350447   
     79. A(C   8,C  13,C  12)          120.7520         0.429862   
     80. A(C  15,C  14,C  19)          118.6901         0.427715   
     81. A(P   6,C  14,C  19)          118.6386         0.435264   
     82. A(P   6,C  14,C  15)          122.6697         0.435688   
     83. A(C  16,C  15,H  30)          118.6885         0.352620   
     84. A(C  14,C  15,H  30)          120.8151         0.351284   
     85. A(C  14,C  15,C  16)          120.4963         0.429857   
     86. A(C  17,C  16,H  31)          119.8881         0.353184   
     87. A(C  15,C  16,H  31)          119.9683         0.352552   
     88. A(C  15,C  16,C  17)          120.1431         0.432415   
     89. A(C  18,C  17,H  32)          119.9744         0.353399   
     90. A(C  16,C  17,H  32)          120.0453         0.353247   
     91. A(C  16,C  17,C  18)          119.9794         0.433436   
     92. A(C  17,C  18,C  19)          119.9387         0.433037   
     93. A(C  19,C  18,H  33)          119.9432         0.352927   
     94. A(C  17,C  18,H  33)          120.1175         0.353384   
     95. A(C  18,C  19,H  34)          119.6263         0.352426   
     96. A(C  14,C  19,C  18)          120.7519         0.429862   
     97. A(C  14,C  19,H  34)          119.6207         0.350447   
     98. D(H  21,C   1,C   0,C   5)    179.6081         0.026301   
     99. D(C   2,C   1,C   0,H  20)   -179.7944         0.026301   
    100. D(C   2,C   1,C   0,C   5)     -0.1350         0.026301   
    101. D(H  21,C   1,C   0,H  20)     -0.0514         0.026301   
    102. D(H  22,C   2,C   1,C   0)    179.8063         0.025719   
    103. D(C   3,C   2,C   1,C   0)     -0.0474         0.025719   
    104. D(C   3,C   2,C   1,H  21)   -179.7903         0.025719   
    105. D(H  22,C   2,C   1,H  21)      0.0634         0.025719   
    106. D(P   6,C   3,C   2,H  22)      0.8664         0.024529   
    107. D(P   6,C   3,C   2,C   1)   -179.2830         0.024529   
    108. D(C   4,C   3,C   2,H  22)   -179.6103         0.024529   
    109. D(C   4,C   3,C   2,C   1)      0.2403         0.024529   
    110. D(H  23,C   4,C   3,C   2)    179.3637         0.024251   
    111. D(C   5,C   4,C   3,P   6)    179.2864         0.024251   
    112. D(C   5,C   4,C   3,C   2)     -0.2564         0.024251   
    113. D(H  23,C   4,C   3,P   6)     -1.0935         0.024251   
    114. D(H  24,C   5,C   4,H  23)      0.1792         0.026019   
    115. D(C   0,C   5,C   4,H  23)   -179.5415         0.026019   
    116. D(C   0,C   5,C   4,C   3)      0.0787         0.026019   
    117. D(H  24,C   5,C   0,H  20)      0.0589         0.026443   
    118. D(C   4,C   5,C   0,C   1)      0.1193         0.026443   
    119. D(H  24,C   5,C   4,C   3)    179.7993         0.026019   
    120. D(C   4,C   5,C   0,H  20)    179.7790         0.026443   
    121. D(H  24,C   5,C   0,C   1)   -179.6008         0.026443   
    122. D(C  14,P   6,C   3,C   2)     94.3118         0.004373   
    123. D(C   8,P   6,C   3,C   4)    158.0895         0.004373   
    124. D(C   8,P   6,C   3,C   2)    -22.3869         0.004373   
    125. D(O   7,P   6,C   3,C   4)     36.4389         0.004373   
    126. D(O   7,P   6,C   3,C   2)   -144.0375         0.004373   
    127. D(C   9,C   8,P   6,O   7)   -144.0418         0.004373   
    128. D(C   9,C   8,P   6,C   3)     94.3076         0.004373   
    129. D(C  13,C   8,P   6,O   7)     36.4345         0.004373   
    130. D(C  13,C   8,P   6,C   3)    -85.2160         0.004373   
    131. D(C   9,C   8,P   6,C  14)    -22.3912         0.004373   
    132. D(H  25,C   9,C   8,C  13)   -179.6111         0.024529   
    133. D(H  25,C   9,C   8,P   6)      0.8655         0.024529   
    134. D(C  10,C   9,C   8,C  13)      0.2403         0.024529   
    135. D(C  10,C   9,C   8,P   6)   -179.2832         0.024529   
    136. D(H  26,C  10,C   9,H  25)      0.0650         0.025720   
    137. D(H  26,C  10,C   9,C   8)   -179.7895         0.025720   
    138. D(C  11,C  10,C   9,H  25)    179.8077         0.025720   
    139. D(C  11,C  10,C   9,C   8)     -0.0468         0.025720   
    140. D(H  27,C  11,C  10,H  26)     -0.0520         0.026301   
    141. D(H  27,C  11,C  10,C   9)   -179.7950         0.026301   
    142. D(C  12,C  11,C  10,H  26)    179.6073         0.026301   
    143. D(C  12,C  11,C  10,C   9)     -0.1356         0.026301   
    144. D(H  28,C  12,C  11,H  27)      0.0587         0.026444   
    145. D(H  28,C  12,C  11,C  10)   -179.6010         0.026444   
    146. D(C  13,C  12,C  11,H  27)    179.7790         0.026444   
    147. D(C  13,C  12,C  11,C  10)      0.1193         0.026444   
    148. D(H  29,C  13,C  12,H  28)      0.1793         0.026018   
    149. D(H  29,C  13,C  12,C  11)   -179.5415         0.026018   
    150. D(C   8,C  13,C  12,H  28)    179.8001         0.026018   
    151. D(C   8,C  13,C  12,C  11)      0.0793         0.026018   
    152. D(H  29,C  13,C   8,C   9)    179.3638         0.024252   
    153. D(H  29,C  13,C   8,P   6)     -1.0933         0.024252   
    154. D(C  12,C  13,C   8,C   9)     -0.2570         0.024252   
    155. D(C  12,C  13,C   8,P   6)    179.2859         0.024252   
    156. D(C  19,C  14,P   6,O   7)     36.4380         0.004373   
    157. D(C  19,C  14,P   6,C   3)    158.0885         0.004373   
    158. D(C  15,C  14,P   6,C   8)     94.3110         0.004373   
    159. D(C  15,C  14,P   6,O   7)   -144.0385         0.004373   
    160. D(C  15,C  14,P   6,C   3)    -22.3879         0.004373   
    161. D(H  30,C  15,C  14,C  19)   -179.6107         0.024529   
    162. D(H  30,C  15,C  14,P   6)      0.8660         0.024529   
    163. D(C  16,C  15,C  14,C  19)      0.2405         0.024529   
    164. D(C  16,C  15,C  14,P   6)   -179.2828         0.024529   
    165. D(H  31,C  16,C  15,H  30)      0.0640         0.025719   
    166. D(H  31,C  16,C  15,C  14)   -179.7903         0.025719   
    167. D(C  17,C  16,C  15,H  30)    179.8070         0.025719   
    168. D(C  17,C  16,C  15,C  14)     -0.0473         0.025719   
    169. D(H  32,C  17,C  16,H  31)     -0.0515         0.026302   
    170. D(H  32,C  17,C  16,C  15)   -179.7948         0.026302   
    171. D(C  18,C  17,C  16,H  31)    179.6079         0.026302   
    172. D(C  18,C  17,C  16,C  15)     -0.1353         0.026302   
    173. D(H  33,C  18,C  17,H  32)      0.0591         0.026444   
    174. D(H  33,C  18,C  17,C  16)   -179.6006         0.026444   
    175. D(C  19,C  18,C  17,H  32)    179.7793         0.026444   
    176. D(C  19,C  18,C  17,C  16)      0.1196         0.026444   
    177. D(H  34,C  19,C  18,C  17)   -179.5414         0.026018   
    178. D(C  14,C  19,C  18,H  33)    179.7995         0.026018   
    179. D(C  14,C  19,C  18,C  17)      0.0788         0.026018   
    180. D(H  34,C  19,C  14,C  15)    179.3634         0.024252   
    181. D(H  34,C  19,C  14,P   6)     -1.0937         0.024252   
    182. D(C  18,C  19,C  14,C  15)     -0.2568         0.024252   
    183. D(H  34,C  19,C  18,H  33)      0.1793         0.026018   
    184. D(C  18,C  19,C  14,P   6)    179.2861         0.024252   
    -----------------------------------------------------------------

Number of atoms                         .... 35
Number of degrees of freedom            .... 184


         *************************************************************
         *                GEOMETRY OPTIMIZATION CYCLE   1            *
         *************************************************************
---------------------------------
CARTESIAN COORDINATES (ANGSTROEM)
---------------------------------
  C      4.166674   -0.172766    1.277793
  C      3.551535    0.676047    0.359596
  C      2.159264    0.706768    0.256486
  C      1.366858   -0.114071    1.072216
  C      2.001150   -0.960794    1.995238
  C      3.392050   -0.990687    2.096942
  P     -0.434496   -0.135524    0.975168
  O     -1.048371   -0.326999    2.352921
  C     -0.973745    1.422593    0.242888
  C     -1.221020    1.568401   -1.129954
  C     -1.622788    2.800209   -1.650743
  C     -1.782693    3.897943   -0.807309
  C     -1.544277    3.766667    0.558693
  C     -1.143210    2.536679    1.080340
  C     -0.918903   -1.472520   -0.135033
  C     -0.055881   -1.999944   -1.106690
  C     -0.483364   -3.025420   -1.952652
  C     -1.775123   -3.535265   -1.836989
  C     -2.641675   -3.023613   -0.874006
  C     -2.215874   -1.999448   -0.028062
  H      5.250458   -0.192963    1.359059
  H      4.157434    1.318559   -0.274665
  H      1.704225    1.380028   -0.465466
  H      1.399985   -1.597139    2.643606
  H      3.869324   -1.648943    2.818507
  H     -1.106735    0.727144   -1.808764
  H     -1.815485    2.902735   -2.715910
  H     -2.098725    4.855228   -1.213913
  H     -1.674591    4.619855    1.219626
  H     -0.965384    2.437807    2.150535
  H      0.957522   -1.622132   -1.215426
  H      0.193966   -3.430304   -2.700661
  H     -2.105128   -4.335813   -2.494118
  H     -3.647673   -3.424114   -0.777507
  H     -2.895305   -1.608207    0.728257

----------------------------
CARTESIAN COORDINATES (A.U.)
----------------------------
  NO LB      ZA    FRAG     MASS         X           Y           Z
   0 C     6.0000    0    12.011    7.873873   -0.326480    2.414679
   1 C     6.0000    0    12.011    6.711429    1.277544    0.679538
   2 C     6.0000    0    12.011    4.080418    1.335598    0.484688
   3 C     6.0000    0    12.011    2.582987   -0.215563    2.026195
   4 C     6.0000    0    12.011    3.781625   -1.815638    3.770453
   5 C     6.0000    0    12.011    6.410046   -1.872127    3.962646
   6 P    15.0000    0    30.974   -0.821078   -0.256103    1.842800
   7 O     8.0000    0    15.999   -1.981134   -0.617939    4.446376
   8 C     6.0000    0    12.011   -1.840111    2.688311    0.458992
   9 C     6.0000    0    12.011   -2.307393    2.963848   -2.135304
  10 C     6.0000    0    12.011   -3.066625    5.291628   -3.119452
  11 C     6.0000    0    12.011   -3.368802    7.366045   -1.525593
  12 C     6.0000    0    12.011   -2.918261    7.117969    1.055777
  13 C     6.0000    0    12.011   -2.160354    4.793629    2.041547
  14 C     6.0000    0    12.011   -1.736475   -2.782660   -0.255175
  15 C     6.0000    0    12.011   -0.105600   -3.779346   -2.091341
  16 C     6.0000    0    12.011   -0.913426   -5.717215   -3.689978
  17 C     6.0000    0    12.011   -3.354496   -6.680683   -3.471406
  18 C     6.0000    0    12.011   -4.992042   -5.713801   -1.651632
  19 C     6.0000    0    12.011   -4.187395   -3.778409   -0.053029
  20 H     1.0000    0     1.008    9.921928   -0.364647    2.568249
  21 H     1.0000    0     1.008    7.856412    2.491715   -0.519042
  22 H     1.0000    0     1.008    3.220519    2.607875   -0.879603
  23 H     1.0000    0     1.008    2.645588   -3.018155    4.995691
  24 H     1.0000    0     1.008    7.311963   -3.116051    5.326206
  25 H     1.0000    0     1.008   -2.091426    1.374103   -3.418069
  26 H     1.0000    0     1.008   -3.430769    5.485374   -5.132326
  27 H     1.0000    0     1.008   -3.966015    9.175051   -2.293963
  28 H     1.0000    0     1.008   -3.164518    8.730261    2.304759
  29 H     1.0000    0     1.008   -1.824311    4.606788    4.063922
  30 H     1.0000    0     1.008    1.809454   -3.065385   -2.296822
  31 H     1.0000    0     1.008    0.366543   -6.482335   -5.103510
  32 H     1.0000    0     1.008   -3.978115   -8.193499   -4.713200
  33 H     1.0000    0     1.008   -6.893103   -6.470638   -1.469275
  34 H     1.0000    0     1.008   -5.471334   -3.039071    1.376206

--------------------------------
INTERNAL COORDINATES (ANGSTROEM)
--------------------------------
 C      0   0   0     0.000000000000     0.00000000     0.00000000
 C      1   0   0     1.393544125279     0.00000000     0.00000000
 C      2   1   0     1.396421852229   120.14303577     0.00000000
 C      3   2   1     1.402533195920   120.49622734   359.95256264
 C      4   3   2     1.404007048585   118.69015475     0.24034153
 C      1   2   3     1.392853972180   119.97951570   359.86503453
 P      4   3   2     1.804093894128   122.66979426   180.71698157
 O      7   4   3     1.520430373368   110.84799488   215.96250694
 C      7   4   3     1.804093142853   108.06006014   337.61312897
 C      9   7   4     1.402533441831   122.66940630    94.30763841
 C     10   9   7     1.396420301059   120.49621398   180.71680450
 C     11  10   9     1.393546000725   120.14300133   359.95323905
 C     12  11  10     1.392852124684   119.97957614   359.86440559
 C     13  12  11     1.394933980962   119.93842580     0.11933909
 C      7   4   3     1.804093873962   108.05996888    94.31178480
 C     15   7   4     1.402533555359   122.66968416   337.61212781
 C     16  15   7     1.396422016193   120.49626024   180.71717282
 C     17  16  15     1.393542668050   120.14308209   359.95272450
 C     18  17  16     1.392851893095   119.97939289   359.86465068
 C     19  18  17     1.394934295930   119.93867952     0.11959029
 H      1   2   3     1.087014185842   120.04536121   180.20558097
 H      2   1   3     1.087300457310   119.88812635   179.74306034
 H      3   2   1     1.086993196586   118.68836189   179.80630177
 H      5   4   3     1.089364667902   119.62066751   179.36370735
 H      6   1   2     1.087082095261   120.11758326   180.39919731
 H     10   9   7     1.086994672192   120.81505044     0.86547951
 H     11  10   9     1.087301454232   119.96837827   180.21050766
 H     12  11  10     1.087013159564   120.04518498   180.20502773
 H     13  12  11     1.087080462721   120.11772058   180.39904035
 H     14  13  12     1.089364538015   119.62626496   180.45850754
 H     16  15   7     1.086991750405   120.81509618     0.86597787
 H     17  16  15     1.087301451501   119.96833176   180.20971384
 H     18  17  16     1.087013763928   120.04529218   180.20523287
 H     19  18  17     1.087080992386   120.11751693   180.39940184
 H     20  19  18     1.089364233672   119.62630725   180.45861079

---------------------------
INTERNAL COORDINATES (A.U.)
---------------------------
 C      0   0   0     0.000000000000     0.00000000     0.00000000
 C      1   0   0     2.633416752312     0.00000000     0.00000000
 C      2   1   0     2.638854868135   120.14303577     0.00000000
 C      3   2   1     2.650403634022   120.49622734   359.95256264
 C      4   3   2     2.653188811921   118.69015475     0.24034153
 C      1   2   3     2.632112551965   119.97951570   359.86503453
 P      4   3   2     3.409243379781   122.66979426   180.71698157
 O      7   4   3     2.873197011361   110.84799488   215.96250694
 C      7   4   3     3.409241960078   108.06006014   337.61312897
 C      9   7   4     2.650404098726   122.66940630    94.30763841
 C     10   9   7     2.638851936849   120.49621398   180.71680450
 C     11  10   9     2.633420296392   120.14300133   359.95323905
 C     12  11  10     2.632109060703   119.97957614   359.86440559
 C     13  12  11     2.636043198918   119.93842580     0.11933909
 C      7   4   3     3.409243341673   108.05996888    94.31178480
 C     15   7   4     2.650404313264   122.66968416   337.61212781
 C     16  15   7     2.638855177983   120.49626024   180.71717282
 C     17  16  15     2.633413998548   120.14308209   359.95272450
 C     18  17  16     2.632108623062   119.97939289   359.86465068
 C     19  18  17     2.636043794122   119.93867952     0.11959029
 H      1   2   3     2.054159114928   120.04536121   180.20558097
 H      2   1   3     2.054700089603   119.88812635   179.74306034
 H      3   2   1     2.054119450984   118.68836189   179.80630177
 H      5   4   3     2.058600882306   119.62066751   179.36370735
 H      6   1   2     2.054287445133   120.11758326   180.39919731
 H     10   9   7     2.054122239475   120.81505044     0.86547951
 H     11  10   9     2.054701973512   119.96837827   180.21050766
 H     12  11  10     2.054157175544   120.04518498   180.20502773
 H     13  12  11     2.054284360078   120.11772058   180.39904035
 H     14  13  12     2.058600636854   119.62626496   180.45850754
 H     16  15   7     2.054116718098   120.81509618     0.86597787
 H     17  16  15     2.054701968353   119.96833176   180.20971384
 H     18  17  16     2.054158317628   120.04529218   180.20523287
 H     19  18  17     2.054285361000   120.11751693   180.39940184
 H     20  19  18     2.058600061728   119.62630725   180.45861079

---------------------
BASIS SET INFORMATION
---------------------
There are 4 groups of distinct atoms

 Group   1 Type C   : 7s4p1d contracted to 3s2p1d pattern {511/31/1}
 Group   2 Type P   : 10s7p1d contracted to 4s3p1d pattern {5311/511/1}
 Group   3 Type O   : 7s4p1d contracted to 3s2p1d pattern {511/31/1}
 Group   4 Type H   : 4s1p contracted to 2s1p pattern {31/1}

Atom   0C    basis set group =>   1
Atom   1C    basis set group =>   1
Atom   2C    basis set group =>   1
Atom   3C    basis set group =>   1
Atom   4C    basis set group =>   1
Atom   5C    basis set group =>   1
Atom   6P    basis set group =>   2
Atom   7O    basis set group =>   3
Atom   8C    basis set group =>   1
Atom   9C    basis set group =>   1
Atom  10C    basis set group =>   1
Atom  11C    basis set group =>   1
Atom  12C    basis set group =>   1
Atom  13C    basis set group =>   1
Atom  14C    basis set group =>   1
Atom  15C    basis set group =>   1
Atom  16C    basis set group =>   1
Atom  17C    basis set group =>   1
Atom  18C    basis set group =>   1
Atom  19C    basis set group =>   1
Atom  20H    basis set group =>   4
Atom  21H    basis set group =>   4
Atom  22H    basis set group =>   4
Atom  23H    basis set group =>   4
Atom  24H    basis set group =>   4
Atom  25H    basis set group =>   4
Atom  26H    basis set group =>   4
Atom  27H    basis set group =>   4
Atom  28H    basis set group =>   4
Atom  29H    basis set group =>   4
Atom  30H    basis set group =>   4
Atom  31H    basis set group =>   4
Atom  32H    basis set group =>   4
Atom  33H    basis set group =>   4
Atom  34H    basis set group =>   4
---------------------------------
AUXILIARY/J BASIS SET INFORMATION
---------------------------------
There are 4 groups of distinct atoms

 Group   1 Type C   : 12s5p4d2f1g contracted to 6s4p3d1f1g pattern {711111/2111/211/2/1}
 Group   2 Type P   : 14s5p5d2f1g contracted to 8s4p3d1f1g pattern {71111111/2111/311/2/1}
 Group   3 Type O   : 12s5p4d2f1g contracted to 6s4p3d1f1g pattern {711111/2111/211/2/1}
 Group   4 Type H   : 5s2p1d contracted to 3s1p1d pattern {311/2/1}

Atom   0C    basis set group =>   1
Atom   1C    basis set group =>   1
Atom   2C    basis set group =>   1
Atom   3C    basis set group =>   1
Atom   4C    basis set group =>   1
Atom   5C    basis set group =>   1
Atom   6P    basis set group =>   2
Atom   7O    basis set group =>   3
Atom   8C    basis set group =>   1
Atom   9C    basis set group =>   1
Atom  10C    basis set group =>   1
Atom  11C    basis set group =>   1
Atom  12C    basis set group =>   1
Atom  13C    basis set group =>   1
Atom  14C    basis set group =>   1
Atom  15C    basis set group =>   1
Atom  16C    basis set group =>   1
Atom  17C    basis set group =>   1
Atom  18C    basis set group =>   1
Atom  19C    basis set group =>   1
Atom  20H    basis set group =>   4
Atom  21H    basis set group =>   4
Atom  22H    basis set group =>   4
Atom  23H    basis set group =>   4
Atom  24H    basis set group =>   4
Atom  25H    basis set group =>   4
Atom  26H    basis set group =>   4
Atom  27H    basis set group =>   4
Atom  28H    basis set group =>   4
Atom  29H    basis set group =>   4
Atom  30H    basis set group =>   4
Atom  31H    basis set group =>   4
Atom  32H    basis set group =>   4
Atom  33H    basis set group =>   4
Atom  34H    basis set group =>   4


           ************************************************************
           *        Program running with 6 parallel MPI-processes     *
           *              working on a common directory               *
           ************************************************************
------------------------------------------------------------------------------
                             ORCA STARTUP CALCULATIONS
                           -- RI-GTO INTEGRALS CHOSEN --
------------------------------------------------------------------------------
------------------------------------------------------------------------------
                   ___                                                        
                  /   \      - P O W E R E D   B Y -                         
                 /     \                                                     
                 |  |  |   _    _      __       _____    __    __             
                 |  |  |  | |  | |    /  \     |  _  \  |  |  /  |          
                  \  \/   | |  | |   /    \    | | | |  |  | /  /          
                 / \  \   | |__| |  /  /\  \   | |_| |  |  |/  /          
                |  |  |   |  __  | /  /__\  \  |    /   |      \           
                |  |  |   | |  | | |   __   |  |    \   |  |\   \          
                \     /   | |  | | |  |  |  |  | |\  \  |  | \   \       
                 \___/    |_|  |_| |__|  |__|  |_| \__\ |__|  \__/        
                                                                              
                      - O R C A' S   B I G   F R I E N D -                    
                                      &                                       
                       - I N T E G R A L  F E E D E R -                       
                                                                              
 v1 FN, 2020, v2 2021, v3 2022-2024                                           
------------------------------------------------------------------------------


----------------------
SHARK INTEGRAL PACKAGE
----------------------

Number of atoms                             ...     35
Number of basis functions                   ...    359
Number of shells                            ...    167
Maximum angular momentum                    ...      2
Integral batch strategy                     ... SHARK/LIBINT Hybrid
RI-J (if used) integral strategy            ... SPLIT-RIJ (Revised 2003 algorithm where possible)
Printlevel                                  ...      1
Contraction scheme used                     ... SEGMENTED contraction
Prescreening option                         ... SCHWARTZ
   Thresh                                   ... 2.500e-11
   Tcut                                     ... 2.500e-12
   Tpresel                                  ... 2.500e-12 
Coulomb Range Separation                    ... NOT USED
Exchange Range Separation                   ... NOT USED
Multipole approximations                    ... NOT USED
Finite Nucleus Model                        ... NOT USED
CABS basis                                  ... NOT available
Auxiliary Coulomb fitting basis             ... AVAILABLE
   # of basis functions in Aux-J            ...   1147
   # of shells in Aux-J                     ...    377
   Maximum angular momentum in Aux-J        ...      4
Auxiliary J/K fitting basis                 ... NOT available
Auxiliary Correlation fitting basis         ... NOT available
Auxiliary 'external' fitting basis          ... NOT available

Checking pre-screening integrals            ... done (  0.0 sec) Dimension = 167
Check shell pair data                       ... done (  0.0 sec)
Shell pair information
Shell pair cut-off parameter TPreSel        ...   2.5e-12
Total number of shell pairs                 ...     14028
Shell pairs after pre-screening             ...     10971
Total number of primitive shell pairs       ...     51996
Primitive shell pairs kept                  ...     26140
          la=0 lb=0:   3342 shell pairs
          la=1 lb=0:   4081 shell pairs
          la=1 lb=1:   1278 shell pairs
          la=2 lb=0:   1319 shell pairs
          la=2 lb=1:    825 shell pairs
          la=2 lb=2:    126 shell pairs

Calculating one electron integrals          ... done (  0.0 sec)
Calculating RI/J V-Matrix + Cholesky decomp.... done (  0.1 sec)
Calculating Nuclear repulsion               ... done (  0.0 sec) ENN=   1573.528917740208 Eh

Diagonalization of the overlap matrix:
Smallest eigenvalue                        ... 2.771e-04
Time for diagonalization                   ...    0.017 sec
Threshold for overlap eigenvalues          ... 1.000e-07
Number of eigenvalues below threshold      ... 0
Time for construction of square roots      ...    0.011 sec
Total time needed                          ...    0.029 sec

-------------------
DFT GRID GENERATION
-------------------

General Integration Accuracy     IntAcc      ... 4.388
Radial Grid Type                 RadialGrid  ... OptM3 with GC (2021)
Angular Grid (max. ang.)         AngularGrid ... 4 (Lebedev-302)
Angular grid pruning method      GridPruning ... 4 (adaptive)
Weight generation scheme         WeightScheme... mBecke (2022)
Basis function cutoff            BFCut       ... 1.0000e-11
Integration weight cutoff        WCut        ... 1.0000e-14
Partially contracted basis set               ... off
Rotationally invariant grid construction     ... off
Angular grids for H and He will be reduced by one unit

Total number of grid points                  ...   168643
Total number of batches                      ...     2656
Average number of points per batch           ...       63
Average number of grid points per atom       ...     4818
Initializing property integral containers    ... done (  0.0 sec)

SHARK setup successfully completed in   1.2 seconds

Maximum memory used throughout the entire STARTUP-calculation: 46.6 MB


           ************************************************************
           *        Program running with 6 parallel MPI-processes     *
           *              working on a common directory               *
           ************************************************************
-------------------------------------------------------------------------------
                                 ORCA GUESS
                   Start orbitals & Density for SCF / CASSCF
-------------------------------------------------------------------------------

------------
SCF SETTINGS
------------
Hamiltonian:
 Density Functional     Method          .... DFT(GTOs)
 Exchange Functional    Exchange        .... B88
   X-Alpha parameter    XAlpha          ....  0.666667
   Becke's b parameter  XBeta           ....  0.004200
 Correlation Functional Correlation     .... P86
 LDA part of GGA corr.  LDAOpt          .... PW91-LDA
 Gradients option       PostSCFGGA      .... off
   NL short-range parameter             ....  4.400000
 RI-approximation to the Coulomb term is turned on
   Number of AuxJ basis functions       .... 1147


General Settings:
 Integral files         IntName         .... data/geom_opt_PO_BP86/11776/11776
 Hartree-Fock type      HFTyp           .... RHF
 Total Charge           Charge          ....    0
 Multiplicity           Mult            ....    1
 Number of Electrons    NEL             ....  146
 Basis Dimension        Dim             ....  359
 Nuclear Repulsion      ENuc            ....   1573.5289177402 Eh

Convergence Acceleration:
 AO-DIIS                CNVDIIS         .... on
   Start iteration      DIISMaxIt       ....    12
   Startup error        DIISStart       ....  0.200000
   # of expansion vecs  DIISMaxEq       ....     5
   Bias factor          DIISBfac        ....   1.050
   Max. coefficient     DIISMaxC        ....  10.000
 MO-DIIS                CNVKDIIS        .... off
 Trust-Rad. Augm. Hess. CNVTRAH         .... auto
   Auto Start mean grad. ratio tolernc. ....  1.125000
   Auto Start start iteration           ....    50
   Auto Start num. interpolation iter.  ....    10
   Max. Number of Micro iterations      ....    24
   Max. Number of Macro iterations      .... Maxiter - #DIIS iter
   Number of Davidson start vectors     ....     2
   Converg. threshold    (grad. norm)   ....   1.000e-05
   Grad. Scal. Fac. for Micro threshold ....   0.100
   Minimum threshold for Micro iter.    ....   1.000e-02
   NR start threshold (gradient norm)   ....   1.000e-04
   Initial trust radius                 ....   0.400
   Minimum AH scaling param. (alpha)    ....   1.000
   Maximum AH scaling param. (alpha)    .... 1000.000
   Quad. conv. algorithm                .... NR
   White noise on init. David. guess    .... on
   Maximum white noise                  ....   0.010
   Pseudo random numbers                .... off
   Inactive MOs                         .... canonical
   Orbital update algorithm             .... Taylor
   Preconditioner                       .... Diag
   Full preconditioner red. dimension   ....   250
 SOSCF                  CNVSOSCF        .... on
   Start iteration      SOSCFMaxIt      ....   150
   Startup grad/error   SOSCFStart      ....  0.003300
   Hessian update       SOSCFHessUp     .... L-BFGS
 Level Shifting         CNVShift        .... on
   Level shift para.    LevelShift      ....    0.2500
   Turn off err/grad.   ShiftErr        ....    0.0010
 Zerner damping         CNVZerner       .... off
 Static damping         CNVDamp         .... on
   Fraction old density DampFac         ....    0.7000
   Max. Damping (<1)    DampMax         ....    0.9800
   Min. Damping (>=0)   DampMin         ....    0.0000
   Turn off err/grad.   DampErr         ....    0.1000

SCF Procedure:
 Maximum # iterations   MaxIter         ....   125
 SCF integral mode      SCFMode         .... Direct
   Integral package                     .... SHARK and LIBINT hybrid scheme
 Reset frequency        DirectResetFreq ....    20
 Integral Threshold     Thresh          ....  2.500e-11 Eh
 Primitive CutOff       TCut            ....  2.500e-12 Eh

Convergence Tolerance:
 Convergence Check Mode ConvCheckMode   .... Total+1el-Energy
 Convergence forced     ConvForced      .... 0
 Energy Change          TolE            ....  1.000e-08 Eh
 1-El. energy change                    ....  1.000e-05 Eh
 Orbital Gradient       TolG            ....  1.000e-05
 Orbital Rotation angle TolX            ....  1.000e-05
 DIIS Error             TolErr          ....  5.000e-07

------------------------------
INITIAL GUESS: MODEL POTENTIAL
------------------------------
Loading Hartree-Fock densities                     ... done
Calculating cut-offs                               ... done
Initializing the effective Hamiltonian             ... done
Setting up the integral package (SHARK)            ... done
Starting the Coulomb interaction                   ... done (   0.1 sec)
Making the grid                                    ... done (   0.3 sec)
Mapping shells                                     ... done
Starting the XC term evaluation                    ... done (   0.2 sec)
  promolecular density results
     # of electrons  =    145.988634276
     EX              =   -127.850118325
     EC              =     -5.413596670
     EX+EC           =   -133.263714995
Transforming the Hamiltonian                       ... done (   0.0 sec)
Diagonalizing the Hamiltonian                      ... done (   0.0 sec)
Back transforming the eigenvectors                 ... done (   0.0 sec)
Now organizing SCF variables                       ... done
                      ------------------
                      INITIAL GUESS DONE (   0.6 sec)
                      ------------------
             **** ENERGY FILE WAS UPDATED (data/geom_opt_PO_BP86/11776/11776.en.tmp) ****
Finished Guess after   0.7 sec
Maximum memory used throughout the entire GUESS-calculation: 26.4 MB


           ************************************************************
           *        Program running with 6 parallel MPI-processes     *
           *              working on a common directory               *
           ************************************************************

-------------------------------------------------------------------------------------------
                                      ORCA LEAN-SCF
                              memory conserving SCF solver
-------------------------------------------------------------------------------------------

----------------------------------------D-I-I-S--------------------------------------------
Iteration    Energy (Eh)           Delta-E    RMSDP     MaxDP     DIISErr   Damp  Time(sec)
-------------------------------------------------------------------------------------------
               ***  Starting incremental Fock matrix formation  ***
    1    -1110.4844012266812570     0.00e+00  3.43e-03  1.62e-01  3.34e-01  0.700   0.9
    2    -1110.6979338549085696    -2.14e-01  1.94e-03  5.95e-02  7.61e-02  0.700   0.9
                               ***Turning on AO-DIIS***
    3    -1110.7642374637093781    -6.63e-02  6.89e-04  1.96e-02  3.23e-02  0.700   0.9
    4    -1110.8111057432097368    -4.69e-02  1.24e-03  5.17e-02  1.96e-02  0.000   0.9
    5    -1110.9149089618049402    -1.04e-01  2.93e-04  1.09e-02  6.42e-03  0.000   0.9
    6    -1110.9159660012987842    -1.06e-03  1.06e-04  3.19e-03  3.95e-03  0.000   0.8
                              *** Initializing SOSCF ***
---------------------------------------S-O-S-C-F--------------------------------------
Iteration    Energy (Eh)           Delta-E    RMSDP     MaxDP     MaxGrad    Time(sec)
--------------------------------------------------------------------------------------
    7    -1110.9160340800581253    -6.81e-05  4.37e-05  1.10e-03  1.76e-03     0.9
               *** Restarting incremental Fock matrix formation ***
    8    -1110.9160460898710880    -1.20e-05  2.80e-05  9.35e-04  1.53e-04     1.0
    9    -1110.9160462557592837    -1.66e-07  1.71e-05  5.42e-04  1.53e-04     0.7
   10    -1110.9160466509620164    -3.95e-07  1.46e-05  8.51e-04  1.14e-04     0.7
   11    -1110.9160470291999445    -3.78e-07  7.15e-06  4.57e-04  6.14e-05     0.8
   12    -1110.9160471656227855    -1.36e-07  5.15e-06  1.55e-04  5.00e-05     0.8
   13    -1110.9160472005660267    -3.49e-08  2.69e-06  2.84e-04  3.03e-05     0.8
   14    -1110.9160472488001687    -4.82e-08  2.12e-06  7.14e-05  1.98e-05     0.8
   15    -1110.9160472585863317    -9.79e-09  1.07e-06  5.27e-05  1.77e-05     0.7
                 **** Energy Check signals convergence ****

               *****************************************************
               *                     SUCCESS                       *
               *           SCF CONVERGED AFTER  15 CYCLES          *
               *****************************************************

             **** ENERGY FILE WAS UPDATED (data/geom_opt_PO_BP86/11776/11776.en.tmp) ****

----------------
TOTAL SCF ENERGY
----------------

Total Energy       :      -1110.91604725858633 Eh          -30229.56249 eV

Components:
Nuclear Repulsion  :       1573.52891774020827 Eh           42817.89867 eV
Electronic Energy  :      -2684.44496499879460 Eh          -73047.46116 eV
One Electron Energy:      -4640.25052827661420 Eh         -126267.63620 eV
Two Electron Energy:       1955.80556327781960 Eh           53220.17504 eV

Virial components:
Potential Energy   :      -2212.17281581367934 Eh          -60196.28264 eV
Kinetic Energy     :       1101.25676855509323 Eh           29966.72015 eV
Virial Ratio       :          2.00877114128085

DFT components:
N(Alpha)           :       73.000008613536 electrons
N(Beta)            :       73.000008613536 electrons
N(Total)           :      146.000017227072 electrons
E(X)               :     -129.662791843213 Eh       
E(C)               :       -5.422517902179 Eh       
E(XC)              :     -135.085309745391 Eh       

---------------
SCF CONVERGENCE
---------------

  Last Energy change         ...    9.7862e-09  Tolerance :   1.0000e-08
  Last MAX-Density change    ...    5.2692e-05  Tolerance :   1.0000e-07
  Last RMS-Density change    ...    1.0682e-06  Tolerance :   5.0000e-09
  Last DIIS Error            ...    1.7562e-03  Tolerance :   5.0000e-07
  Last Orbital Gradient      ...    1.7685e-05  Tolerance :   1.0000e-05
  Last Orbital Rotation      ...    3.2324e-05  Tolerance :   1.0000e-05


----------------
ORBITAL ENERGIES
----------------

  NO   OCC          E(Eh)            E(eV) 
   0   2.0000     -76.409991     -2079.2216 
   1   2.0000     -18.704240      -508.9682 
   2   2.0000      -9.929624      -270.1988 
   3   2.0000      -9.929585      -270.1977 
   4   2.0000      -9.929581      -270.1976 
   5   2.0000      -9.926792      -270.1217 
   6   2.0000      -9.926790      -270.1217 
   7   2.0000      -9.926789      -270.1217 
   8   2.0000      -9.926647      -270.1178 
   9   2.0000      -9.926623      -270.1172 
  10   2.0000      -9.926622      -270.1171 
  11   2.0000      -9.925690      -270.0917 
  12   2.0000      -9.925689      -270.0917 
  13   2.0000      -9.925683      -270.0916 
  14   2.0000      -9.925456      -270.0854 
  15   2.0000      -9.925452      -270.0853 
  16   2.0000      -9.925391      -270.0836 
  17   2.0000      -9.924682      -270.0643 
  18   2.0000      -9.924678      -270.0642 
  19   2.0000      -9.924677      -270.0642 
  20   2.0000      -6.369107      -173.3122 
  21   2.0000      -4.590201      -124.9057 
  22   2.0000      -4.590200      -124.9057 
  23   2.0000      -4.590065      -124.9020 
  24   2.0000      -0.843480       -22.9522 
  25   2.0000      -0.784962       -21.3599 
  26   2.0000      -0.782821       -21.3017 
  27   2.0000      -0.782818       -21.3016 
  28   2.0000      -0.700984       -19.0748 
  29   2.0000      -0.681536       -18.5455 
  30   2.0000      -0.681534       -18.5455 
  31   2.0000      -0.679601       -18.4929 
  32   2.0000      -0.678120       -18.4526 
  33   2.0000      -0.678119       -18.4525 
  34   2.0000      -0.589915       -16.0524 
  35   2.0000      -0.554256       -15.0821 
  36   2.0000      -0.554255       -15.0821 
  37   2.0000      -0.551727       -15.0133 
  38   2.0000      -0.544237       -14.8094 
  39   2.0000      -0.544236       -14.8094 
  40   2.0000      -0.507914       -13.8210 
  41   2.0000      -0.478781       -13.0283 
  42   2.0000      -0.478778       -13.0282 
  43   2.0000      -0.450141       -12.2490 
  44   2.0000      -0.419683       -11.4202 
  45   2.0000      -0.419681       -11.4201 
  46   2.0000      -0.417097       -11.3498 
  47   2.0000      -0.408520       -11.1164 
  48   2.0000      -0.408520       -11.1164 
  49   2.0000      -0.400615       -10.9013 
  50   2.0000      -0.385185       -10.4814 
  51   2.0000      -0.385183       -10.4814 
  52   2.0000      -0.383850       -10.4451 
  53   2.0000      -0.380804       -10.3622 
  54   2.0000      -0.380803       -10.3622 
  55   2.0000      -0.343377        -9.3438 
  56   2.0000      -0.343374        -9.3437 
  57   2.0000      -0.342823        -9.3287 
  58   2.0000      -0.334444        -9.1007 
  59   2.0000      -0.315331        -8.5806 
  60   2.0000      -0.313824        -8.5396 
  61   2.0000      -0.313823        -8.5396 
  62   2.0000      -0.307038        -8.3549 
  63   2.0000      -0.307038        -8.3549 
  64   2.0000      -0.292421        -7.9572 
  65   2.0000      -0.250180        -6.8077 
  66   2.0000      -0.250178        -6.8077 
  67   2.0000      -0.244022        -6.6402 
  68   2.0000      -0.239693        -6.5224 
  69   2.0000      -0.239692        -6.5224 
  70   2.0000      -0.238489        -6.4896 
  71   2.0000      -0.206600        -5.6219 
  72   2.0000      -0.206598        -5.6218 
  73   0.0000      -0.065447        -1.7809 
  74   0.0000      -0.065445        -1.7808 
  75   0.0000      -0.063515        -1.7283 
  76   0.0000      -0.056553        -1.5389 
  77   0.0000      -0.045832        -1.2471 
  78   0.0000      -0.045830        -1.2471 
  79   0.0000       0.035311         0.9609 
  80   0.0000       0.044326         1.2062 
  81   0.0000       0.044332         1.2063 
  82   0.0000       0.050888         1.3847 
  83   0.0000       0.072319         1.9679 
*Only the first 10 virtual orbitals were printed.

                    ********************************
                    * MULLIKEN POPULATION ANALYSIS *
                    ********************************

-----------------------
MULLIKEN ATOMIC CHARGES
-----------------------
   0 C :    0.015132
   1 C :    0.012273
   2 C :   -0.005952
   3 C :   -0.116840
   4 C :    0.014254
   5 C :    0.011013
   6 P :    0.623639
   7 O :   -0.467514
   8 C :   -0.117012
   9 C :   -0.005847
  10 C :    0.012202
  11 C :    0.015139
  12 C :    0.011053
  13 C :    0.014259
  14 C :   -0.116899
  15 C :   -0.005877
  16 C :    0.012240
  17 C :    0.015202
  18 C :    0.011010
  19 C :    0.014269
  20 H :    0.000971
  21 H :   -0.002338
  22 H :    0.002623
  23 H :    0.013869
  24 H :    0.002984
  25 H :    0.002634
  26 H :   -0.002348
  27 H :    0.000966
  28 H :    0.002993
  29 H :    0.013874
  30 H :    0.002608
  31 H :   -0.002336
  32 H :    0.000934
  33 H :    0.002968
  34 H :    0.013855
Sum of atomic charges:   -0.0000000

--------------------------------
MULLIKEN REDUCED ORBITAL CHARGES
--------------------------------
  0 C s       :     3.169959  s :     3.169959
      pz      :     0.965067  p :     2.781823
      px      :     0.847580
      py      :     0.969177
      dz2     :     0.007223  d :     0.033086
      dxz     :     0.006171
      dyz     :     0.005318
      dx2y2   :     0.008584
      dxy     :     0.005790

  1 C s       :     3.169853  s :     3.169853
      pz      :     0.929411  p :     2.785178
      px      :     0.926160
      py      :     0.929607
      dz2     :     0.004769  d :     0.032696
      dxz     :     0.008588
      dyz     :     0.004030
      dx2y2   :     0.006884
      dxy     :     0.008426

  2 C s       :     3.227579  s :     3.227579
      pz      :     0.919425  p :     2.745430
      px      :     0.895420
      py      :     0.930584
      dz2     :     0.004488  d :     0.032943
      dxz     :     0.008535
      dyz     :     0.004133
      dx2y2   :     0.007387
      dxy     :     0.008400

  3 C s       :     3.071061  s :     3.071061
      pz      :     0.993540  p :     3.012546
      px      :     1.000010
      py      :     1.018996
      dz2     :     0.007229  d :     0.033233
      dxz     :     0.006375
      dyz     :     0.005351
      dx2y2   :     0.008508
      dxy     :     0.005770

  4 C s       :     3.238215  s :     3.238215
      pz      :     0.920506  p :     2.714830
      px      :     0.869902
      py      :     0.924422
      dz2     :     0.004834  d :     0.032701
      dxz     :     0.008773
      dyz     :     0.003981
      dx2y2   :     0.006809
      dxy     :     0.008304

  5 C s       :     3.171646  s :     3.171646
      pz      :     0.916780  p :     2.784553
      px      :     0.937204
      py      :     0.930569
      dz2     :     0.004593  d :     0.032788
      dxz     :     0.008613
      dyz     :     0.004073
      dx2y2   :     0.007316
      dxy     :     0.008193

  6 P s       :     5.211584  s :     5.211584
      pz      :     2.831948  p :     8.679597
      px      :     2.914545
      py      :     2.933104
      dz2     :     0.105211  d :     0.485180
      dxz     :     0.086463
      dyz     :     0.148075
      dx2y2   :     0.100352
      dxy     :     0.045080

  7 O s       :     3.823557  s :     3.823557
      pz      :     1.388195  p :     4.632283
      px      :     1.598524
      py      :     1.645564
      dz2     :     0.004153  d :     0.011674
      dxz     :     0.003533
      dyz     :     0.002741
      dx2y2   :     0.000586
      dxy     :     0.000661

  8 C s       :     3.071063  s :     3.071063
      pz      :     0.978550  p :     3.012717
      px      :     1.017723
      py      :     1.016444
      dz2     :     0.008990  d :     0.033232
      dxz     :     0.006038
      dyz     :     0.010499
      dx2y2   :     0.003991
      dxy     :     0.003715

  9 C s       :     3.227598  s :     3.227598
      pz      :     0.924243  p :     2.745307
      px      :     0.968021
      py      :     0.853043
      dz2     :     0.007903  d :     0.032943
      dxz     :     0.005145
      dyz     :     0.011903
      dx2y2   :     0.004269
      dxy     :     0.003721

 10 C s       :     3.169887  s :     3.169887
      pz      :     0.840314  p :     2.785215
      px      :     0.982043
      py      :     0.962857
      dz2     :     0.009141  d :     0.032697
      dxz     :     0.002960
      dyz     :     0.009264
      dx2y2   :     0.005542
      dxy     :     0.005790

 11 C s       :     3.169941  s :     3.169941
      pz      :     0.948500  p :     2.781833
      px      :     0.958188
      py      :     0.875145
      dz2     :     0.009233  d :     0.033086
      dxz     :     0.005884
      dyz     :     0.010742
      dx2y2   :     0.003738
      dxy     :     0.003488

 12 C s       :     3.171647  s :     3.171647
      pz      :     0.914708  p :     2.784512
      px      :     0.980325
      py      :     0.889479
      dz2     :     0.008098  d :     0.032787
      dxz     :     0.005011
      dyz     :     0.011802
      dx2y2   :     0.004241
      dxy     :     0.003635

 13 C s       :     3.238185  s :     3.238185
      pz      :     0.856435  p :     2.714854
      px      :     0.937194
      py      :     0.921225
      dz2     :     0.008837  d :     0.032702
      dxz     :     0.002940
      dyz     :     0.009328
      dx2y2   :     0.005597
      dxy     :     0.005999

 14 C s       :     3.071007  s :     3.071007
      pz      :     1.001158  p :     3.012660
      px      :     1.008611
      py      :     1.002890
      dz2     :     0.005530  d :     0.033232
      dxz     :     0.007748
      dyz     :     0.005511
      dx2y2   :     0.007342
      dxy     :     0.007102

 15 C s       :     3.227643  s :     3.227643
      pz      :     0.942882  p :     2.745291
      px      :     0.867594
      py      :     0.934815
      dz2     :     0.007633  d :     0.032943
      dxz     :     0.006052
      dyz     :     0.005756
      dx2y2   :     0.006976
      dxy     :     0.006526

 16 C s       :     3.169866  s :     3.169866
      pz      :     0.912771  p :     2.785197
      px      :     0.912873
      py      :     0.959554
      dz2     :     0.004760  d :     0.032697
      dxz     :     0.008202
      dyz     :     0.004606
      dx2y2   :     0.007338
      dxy     :     0.007792

 17 C s       :     3.169964  s :     3.169964
      pz      :     0.921927  p :     2.781749
      px      :     0.957271
      py      :     0.902551
      dz2     :     0.005144  d :     0.033086
      dxz     :     0.008058
      dyz     :     0.005114
      dx2y2   :     0.007415
      dxy     :     0.007355

 18 C s       :     3.171657  s :     3.171657
      pz      :     0.966393  p :     2.784545
      px      :     0.862377
      py      :     0.955775
      dz2     :     0.007373  d :     0.032788
      dxz     :     0.006140
      dyz     :     0.005745
      dx2y2   :     0.006821
      dxy     :     0.006709

 19 C s       :     3.238196  s :     3.238196
      pz      :     0.877366  p :     2.714833
      px      :     0.928862
      py      :     0.908604
      dz2     :     0.004987  d :     0.032702
      dxz     :     0.008016
      dyz     :     0.004677
      dx2y2   :     0.007376
      dxy     :     0.007646

 20 H s       :     0.976732  s :     0.976732
      pz      :     0.004344  p :     0.022297
      px      :     0.013626
      py      :     0.004327

 21 H s       :     0.979971  s :     0.979971
      pz      :     0.007685  p :     0.022367
      px      :     0.006804
      py      :     0.007878

 22 H s       :     0.974300  s :     0.974300
      pz      :     0.008707  p :     0.023077
      px      :     0.005918
      py      :     0.008452

 23 H s       :     0.963508  s :     0.963508
      pz      :     0.007922  p :     0.022623
      px      :     0.007301
      py      :     0.007400

 24 H s       :     0.974679  s :     0.974679
      pz      :     0.008734  p :     0.022338
      px      :     0.005588
      py      :     0.008016

 25 H s       :     0.974288  s :     0.974288
      pz      :     0.007573  p :     0.023078
      px      :     0.005010
      py      :     0.010495

 26 H s       :     0.979981  s :     0.979981
      pz      :     0.013275  p :     0.022367
      px      :     0.005225
      py      :     0.003867

 27 H s       :     0.976736  s :     0.976736
      pz      :     0.005129  p :     0.022298
      px      :     0.005652
      py      :     0.011516

 28 H s       :     0.974669  s :     0.974669
      pz      :     0.007451  p :     0.022337
      px      :     0.004983
      py      :     0.009904

 29 H s       :     0.963504  s :     0.963504
      pz      :     0.013903  p :     0.022622
      px      :     0.004797
      py      :     0.003922

 30 H s       :     0.974314  s :     0.974314
      pz      :     0.004398  p :     0.023078
      px      :     0.012989
      py      :     0.005692

 31 H s       :     0.979969  s :     0.979969
      pz      :     0.008969  p :     0.022367
      px      :     0.007697
      py      :     0.005701

 32 H s       :     0.976768  s :     0.976768
      pz      :     0.007867  p :     0.022298
      px      :     0.004750
      py      :     0.009681

 33 H s       :     0.974694  s :     0.974694
      pz      :     0.004316  p :     0.022338
      px      :     0.012409
      py      :     0.005613

 34 H s       :     0.963523  s :     0.963523
      pz      :     0.009643  p :     0.022623
      px      :     0.007435
      py      :     0.005545



                     *******************************
                     * LOEWDIN POPULATION ANALYSIS *
                     *******************************

----------------------
LOEWDIN ATOMIC CHARGES
----------------------
   0 C :   -0.017379
   1 C :   -0.027999
   2 C :   -0.030253
   3 C :   -0.185899
   4 C :   -0.006622
   5 C :   -0.024637
   6 P :    0.883736
   7 O :   -0.497929
   8 C :   -0.185896
   9 C :   -0.030238
  10 C :   -0.028009
  11 C :   -0.017381
  12 C :   -0.024635
  13 C :   -0.006629
  14 C :   -0.185896
  15 C :   -0.030227
  16 C :   -0.028012
  17 C :   -0.017371
  18 C :   -0.024640
  19 C :   -0.006627
  20 H :    0.031964
  21 H :    0.031775
  22 H :    0.030463
  23 H :    0.036308
  24 H :    0.033678
  25 H :    0.030462
  26 H :    0.031771
  27 H :    0.031963
  28 H :    0.033679
  29 H :    0.036314
  30 H :    0.030455
  31 H :    0.031772
  32 H :    0.031956
  33 H :    0.033675
  34 H :    0.036305

-------------------------------
LOEWDIN REDUCED ORBITAL CHARGES
-------------------------------
  0 C s       :     2.864859  s :     2.864859
      pz      :     1.013529  p :     3.063091
      px      :     1.041730
      py      :     1.007832
      dz2     :     0.017246  d :     0.089429
      dxz     :     0.017541
      dyz     :     0.015893
      dx2y2   :     0.022471
      dxy     :     0.016277

  1 C s       :     2.863952  s :     2.863952
      pz      :     1.011136  p :     3.075201
      px      :     1.057846
      py      :     1.006218
      dz2     :     0.011863  d :     0.088846
      dxz     :     0.023097
      dyz     :     0.011189
      dx2y2   :     0.020385
      dxy     :     0.022312

  2 C s       :     2.867442  s :     2.867442
      pz      :     1.003765  p :     3.072566
      px      :     1.065391
      py      :     1.003409
      dz2     :     0.011518  d :     0.090245
      dxz     :     0.023144
      dyz     :     0.010987
      dx2y2   :     0.021961
      dxy     :     0.022636

  3 C s       :     2.914336  s :     2.914336
      pz      :     1.049795  p :     3.182922
      px      :     1.087200
      py      :     1.045928
      dz2     :     0.016625  d :     0.088641
      dxz     :     0.018077
      dyz     :     0.015959
      dx2y2   :     0.021610
      dxy     :     0.016370

  4 C s       :     2.867762  s :     2.867762
      pz      :     0.998375  p :     3.049688
      px      :     1.058982
      py      :     0.992331
      dz2     :     0.012001  d :     0.089172
      dxz     :     0.024061
      dyz     :     0.010918
      dx2y2   :     0.020038
      dxy     :     0.022154

  5 C s       :     2.863561  s :     2.863561
      pz      :     1.006454  p :     3.072078
      px      :     1.062417
      py      :     1.003207
      dz2     :     0.011481  d :     0.088998
      dxz     :     0.023190
      dyz     :     0.010956
      dx2y2   :     0.021404
      dxy     :     0.021968

  6 P s       :     4.930935  s :     4.930935
      pz      :     2.794404  p :     8.508360
      px      :     2.850678
      py      :     2.863278
      dz2     :     0.147957  d :     0.676969
      dxz     :     0.116783
      dyz     :     0.207566
      dx2y2   :     0.148977
      dxy     :     0.055686

  7 O s       :     3.667142  s :     3.667142
      pz      :     1.501632  p :     4.812681
      px      :     1.640047
      py      :     1.671001
      dz2     :     0.007286  d :     0.018106
      dxz     :     0.005958
      dyz     :     0.003304
      dx2y2   :     0.000729
      dxy     :     0.000828

  8 C s       :     2.914335  s :     2.914335
      pz      :     1.087780  p :     3.182921
      px      :     1.013603
      py      :     1.081539
      dz2     :     0.026779  d :     0.088640
      dxz     :     0.013494
      dyz     :     0.030343
      dx2y2   :     0.010019
      dxy     :     0.008005

  9 C s       :     2.867443  s :     2.867443
      pz      :     1.054732  p :     3.072548
      px      :     0.967806
      py      :     1.050010
      dz2     :     0.023922  d :     0.090246
      dxz     :     0.012081
      dyz     :     0.034633
      dx2y2   :     0.011010
      dxy     :     0.008601

 10 C s       :     2.863952  s :     2.863952
      pz      :     1.039344  p :     3.075211
      px      :     0.975223
      py      :     1.060643
      dz2     :     0.024942  d :     0.088847
      dxz     :     0.006253
      dyz     :     0.028290
      dx2y2   :     0.015483
      dxy     :     0.013878

 11 C s       :     2.864857  s :     2.864857
      pz      :     1.064946  p :     3.063095
      px      :     0.957922
      py      :     1.040227
      dz2     :     0.027423  d :     0.089428
      dxz     :     0.013466
      dyz     :     0.031420
      dx2y2   :     0.009584
      dxy     :     0.007535

 12 C s       :     2.863560  s :     2.863560
      pz      :     1.056059  p :     3.072075
      px      :     0.971709
      py      :     1.044306
      dz2     :     0.024648  d :     0.088999
      dxz     :     0.011581
      dyz     :     0.033476
      dx2y2   :     0.011002
      dxy     :     0.008292

 13 C s       :     2.867759  s :     2.867759
      pz      :     1.050317  p :     3.049698
      px      :     0.947966
      py      :     1.051416
      dz2     :     0.024724  d :     0.089172
      dxz     :     0.006237
      dyz     :     0.028147
      dx2y2   :     0.015748
      dxy     :     0.014316

 14 C s       :     2.914335  s :     2.914335
      pz      :     1.051671  p :     3.182921
      px      :     1.079907
      py      :     1.051343
      dz2     :     0.013536  d :     0.088640
      dxz     :     0.021570
      dyz     :     0.013866
      dx2y2   :     0.020064
      dxy     :     0.019605

 15 C s       :     2.867443  s :     2.867443
      pz      :     1.017431  p :     3.072539
      px      :     1.038184
      py      :     1.016924
      dz2     :     0.018682  d :     0.090246
      dxz     :     0.017382
      dyz     :     0.017622
      dx2y2   :     0.018814
      dxy     :     0.017745

 16 C s       :     2.863951  s :     2.863951
      pz      :     1.010472  p :     3.075214
      px      :     1.047121
      py      :     1.017621
      dz2     :     0.012042  d :     0.088847
      dxz     :     0.021568
      dyz     :     0.013207
      dx2y2   :     0.020169
      dxy     :     0.021861

 17 C s       :     2.864857  s :     2.864857
      pz      :     1.008222  p :     3.063084
      px      :     1.055195
      py      :     0.999667
      dz2     :     0.012948  d :     0.089430
      dxz     :     0.022565
      dyz     :     0.013295
      dx2y2   :     0.020524
      dxy     :     0.020098

 18 C s       :     2.863557  s :     2.863557
      pz      :     1.022464  p :     3.072084
      px      :     1.033450
      py      :     1.016170
      dz2     :     0.017915  d :     0.088998
      dxz     :     0.017806
      dyz     :     0.017117
      dx2y2   :     0.018040
      dxy     :     0.018120

 19 C s       :     2.867758  s :     2.867758
      pz      :     1.002998  p :     3.049696
      px      :     1.042045
      py      :     1.004653
      dz2     :     0.012665  d :     0.089173
      dxz     :     0.021296
      dyz     :     0.013116
      dx2y2   :     0.019957
      dxy     :     0.022139

 20 H s       :     0.900000  s :     0.900000
      pz      :     0.013096  p :     0.068036
      px      :     0.041876
      py      :     0.013064

 21 H s       :     0.900028  s :     0.900028
      pz      :     0.023334  p :     0.068198
      px      :     0.021098
      py      :     0.023765

 22 H s       :     0.899127  s :     0.899127
      pz      :     0.026957  p :     0.070410
      px      :     0.017951
      py      :     0.025502

 23 H s       :     0.893432  s :     0.893432
      pz      :     0.024115  p :     0.070260
      px      :     0.022928
      py      :     0.023218

 24 H s       :     0.898197  s :     0.898197
      pz      :     0.026441  p :     0.068125
      px      :     0.017393
      py      :     0.024291

 25 H s       :     0.899129  s :     0.899129
      pz      :     0.023969  p :     0.070409
      px      :     0.014770
      py      :     0.031670

[...]

 12 C s       :     2.872914  s :     2.872914
      pz      :     1.054803  p :     3.067014
      px      :     0.969930
      py      :     1.042281
      dz2     :     0.024439  d :     0.085909
      dxz     :     0.011254
      dyz     :     0.032219
      dx2y2   :     0.009731
      dxy     :     0.008265

 13 C s       :     2.875267  s :     2.875267
      pz      :     1.052954  p :     3.052219
      px      :     0.950801
      py      :     1.048464
      dz2     :     0.024091  d :     0.086949
      dxz     :     0.006148
      dyz     :     0.028020
      dx2y2   :     0.014817
      dxy     :     0.013872

 14 C s       :     2.921982  s :     2.921982
      pz      :     1.058384  p :     3.174415
      px      :     1.069694
      py      :     1.046337
      dz2     :     0.015558  d :     0.086281
      dxz     :     0.021245
      dyz     :     0.015732
      dx2y2   :     0.016836
      dxy     :     0.016909

 15 C s       :     2.874989  s :     2.874989
      pz      :     1.030667  p :     3.073118
      px      :     1.028448
      py      :     1.014003
      dz2     :     0.020638  d :     0.087640
      dxz     :     0.018517
      dyz     :     0.018271
      dx2y2   :     0.014242
      dxy     :     0.015972

 16 C s       :     2.872814  s :     2.872814
      pz      :     1.017282  p :     3.071127
      px      :     1.036922
      py      :     1.016924
      dz2     :     0.014103  d :     0.085891
      dxz     :     0.020698
      dyz     :     0.014090
      dx2y2   :     0.017738
      dxy     :     0.019262

 17 C s       :     2.874598  s :     2.874598
      pz      :     1.021158  p :     3.060974
      px      :     1.039995
      py      :     0.999821
      dz2     :     0.015185  d :     0.085590
      dxz     :     0.022052
      dyz     :     0.014940
      dx2y2   :     0.016557
      dxy     :     0.016855

 18 C s       :     2.872905  s :     2.872905
      pz      :     1.032171  p :     3.067035
      px      :     1.022873
      py      :     1.011992
      dz2     :     0.020076  d :     0.085917
      dxz     :     0.018518
      dyz     :     0.018060
      dx2y2   :     0.013283
      dxy     :     0.015980

 19 C s       :     2.875286  s :     2.875286
      pz      :     1.017679  p :     3.052223
      px      :     1.030491
      py      :     1.004052
      dz2     :     0.015304  d :     0.086947
      dxz     :     0.019961
      dyz     :     0.014366
      dx2y2   :     0.017667
      dxy     :     0.019650

 20 H s       :     0.899214  s :     0.899214
      pz      :     0.011861  p :     0.065851
      px      :     0.041274
      py      :     0.012717

 21 H s       :     0.899474  s :     0.899474
      pz      :     0.025639  p :     0.066001
      px      :     0.020294
      py      :     0.020067

 22 H s       :     0.898929  s :     0.898929
      pz      :     0.028310  p :     0.068598
      px      :     0.017883
      py      :     0.022405

 23 H s       :     0.891960  s :     0.891960
      pz      :     0.026861  p :     0.069208
      px      :     0.023675
      py      :     0.018673

 24 H s       :     0.898017  s :     0.898017
      pz      :     0.028605  p :     0.065930
      px      :     0.016695
      py      :     0.020630

 25 H s       :     0.899016  s :     0.899016
      pz      :     0.022719  p :     0.068598
      px      :     0.015128
      py      :     0.030750

 26 H s       :     0.899464  s :     0.899464
      pz      :     0.040795  p :     0.066001
      px      :     0.013646
      py      :     0.011560

 27 H s       :     0.899204  s :     0.899204
      pz      :     0.015300  p :     0.065852
      px      :     0.015496
      py      :     0.035056

 28 H s       :     0.898007  s :     0.898007
      pz      :     0.022329  p :     0.065930
      px      :     0.015268
      py      :     0.028333

 29 H s       :     0.891908  s :     0.891908
      pz      :     0.043730  p :     0.069227
      px      :     0.012849
      py      :     0.012649

 30 H s       :     0.899062  s :     0.899062
      pz      :     0.012473  p :     0.068547
      px      :     0.037203
      py      :     0.018872

 31 H s       :     0.899480  s :     0.899480
      pz      :     0.030144  p :     0.065999
      px      :     0.021334
      py      :     0.014521

 32 H s       :     0.899216  s :     0.899216
      pz      :     0.023471  p :     0.065850
      px      :     0.014380
      py      :     0.027999

 33 H s       :     0.898025  s :     0.898025
      pz      :     0.012518  p :     0.065929
      px      :     0.034712
      py      :     0.018699

 34 H s       :     0.891890  s :     0.891890
      pz      :     0.034269  p :     0.069249
      px      :     0.020201
      py      :     0.014779



                      *****************************
                      * MAYER POPULATION ANALYSIS *
                      *****************************

  NA   - Mulliken gross atomic population
  ZA   - Total nuclear charge
  QA   - Mulliken gross atomic charge
  VA   - Mayer's total valence
  BVA  - Mayer's bonded valence
  FA   - Mayer's free valence

  ATOM       NA         ZA         QA         VA         BVA        FA
  0 C      5.9904     6.0000     0.0096     3.8269     3.8269    -0.0000
  1 C      6.0004     6.0000    -0.0004     3.8590     3.8590    -0.0000
  2 C      6.0077     6.0000    -0.0077     3.8767     3.8767    -0.0000
  3 C      6.1293     6.0000    -0.1293     3.7769     3.7769    -0.0000
  4 C      5.9872     6.0000     0.0128     3.8822     3.8822    -0.0000
  5 C      5.9988     6.0000     0.0012     3.8343     3.8343    -0.0000
  6 P     14.3672    15.0000     0.6328     4.7041     4.7041    -0.0000
  7 O      8.4550     8.0000    -0.4550     2.1476     2.1476    -0.0000
  8 C      6.1296     6.0000    -0.1296     3.7768     3.7768    -0.0000
  9 C      6.0073     6.0000    -0.0073     3.8759     3.8759    -0.0000
 10 C      6.0003     6.0000    -0.0003     3.8588     3.8588    -0.0000
 11 C      5.9905     6.0000     0.0095     3.8270     3.8270    -0.0000
 12 C      5.9989     6.0000     0.0011     3.8342     3.8342    -0.0000
 13 C      5.9873     6.0000     0.0127     3.8826     3.8826    -0.0000
 14 C      6.1291     6.0000    -0.1291     3.7767     3.7767    -0.0000
 15 C      6.0075     6.0000    -0.0075     3.8764     3.8764    -0.0000
 16 C      6.0004     6.0000    -0.0004     3.8594     3.8594    -0.0000
 17 C      5.9904     6.0000     0.0096     3.8270     3.8270    -0.0000
 18 C      5.9989     6.0000     0.0011     3.8341     3.8341    -0.0000
 19 C      5.9875     6.0000     0.0125     3.8826     3.8826    -0.0000
 20 H      0.9906     1.0000     0.0094     0.9789     0.9789    -0.0000
 21 H      0.9943     1.0000     0.0057     0.9792     0.9792    -0.0000
 22 H      0.9940     1.0000     0.0060     0.9997     0.9997    -0.0000
 23 H      0.9777     1.0000     0.0223     1.0118     1.0118    -0.0000
 24 H      0.9887     1.0000     0.0113     0.9799     0.9799    -0.0000
 25 H      0.9944     1.0000     0.0056     1.0000     1.0000    -0.0000
 26 H      0.9943     1.0000     0.0057     0.9792     0.9792     0.0000
 27 H      0.9905     1.0000     0.0095     0.9789     0.9789     0.0000
 28 H      0.9887     1.0000     0.0113     0.9799     0.9799    -0.0000
 29 H      0.9777     1.0000     0.0223     1.0119     1.0119    -0.0000
 30 H      0.9941     1.0000     0.0059     0.9996     0.9996    -0.0000
 31 H      0.9943     1.0000     0.0057     0.9792     0.9792    -0.0000
 32 H      0.9906     1.0000     0.0094     0.9789     0.9789    -0.0000
 33 H      0.9887     1.0000     0.0113     0.9799     0.9799     0.0000
 34 H      0.9776     1.0000     0.0224     1.0121     1.0121    -0.0000

  Mayer bond orders larger than 0.100000
B(  0-C ,  1-C ) :   1.3815 B(  0-C ,  5-C ) :   1.3776 B(  0-C , 20-H ) :   0.9759 
B(  1-C ,  2-C ) :   1.3894 B(  1-C , 21-H ) :   0.9753 B(  2-C ,  3-C ) :   1.3654 
B(  2-C , 22-H ) :   0.9649 B(  3-C ,  4-C ) :   1.3791 B(  3-C ,  6-P ) :   0.8785 
B(  4-C ,  5-C ) :   1.3767 B(  4-C , 23-H ) :   0.9719 B(  5-C , 24-H ) :   0.9778 
B(  6-P ,  7-O ) :   1.8782 B(  6-P ,  8-C ) :   0.8784 B(  6-P , 14-C ) :   0.8785 
B(  8-C ,  9-C ) :   1.3647 B(  8-C , 13-C ) :   1.3796 B(  9-C , 10-C ) :   1.3894 
B(  9-C , 25-H ) :   0.9649 B( 10-C , 11-C ) :   1.3813 B( 10-C , 26-H ) :   0.9753 
B( 11-C , 12-C ) :   1.3778 B( 11-C , 27-H ) :   0.9760 B( 12-C , 13-C ) :   1.3763 
B( 12-C , 28-H ) :   0.9778 B( 13-C , 29-H ) :   0.9720 B( 14-C , 15-C ) :   1.3647 
B( 14-C , 19-C ) :   1.3796 B( 15-C , 16-C ) :   1.3898 B( 15-C , 30-H ) :   0.9648 
B( 16-C , 17-C ) :   1.3812 B( 16-C , 31-H ) :   0.9753 B( 17-C , 18-C ) :   1.3779 
B( 17-C , 32-H ) :   0.9760 B( 18-C , 19-C ) :   1.3761 B( 18-C , 33-H ) :   0.9778 
B( 19-C , 34-H ) :   0.9719 

-------
TIMINGS
-------

Total SCF time: 0 days 0 hours 0 min 6 sec 

Total time                  ....       6.560 sec
Sum of individual times     ....       6.461 sec  ( 98.5%)

SCF preparation             ....       0.123 sec  (  1.9%)
Fock matrix formation       ....       5.800 sec  ( 88.4%)
  Startup                   ....       0.029 sec  (  0.5% of F)
  Split-RI-J                ....       2.095 sec  ( 36.1% of F)
  XC integration            ....       3.570 sec  ( 61.6% of F)
    Basis function eval.    ....       1.081 sec  ( 30.3% of XC)
    Density eval.           ....       1.092 sec  ( 30.6% of XC)
    XC-Functional eval.     ....       0.098 sec  (  2.7% of XC)
    XC-Potential eval.      ....       0.777 sec  ( 21.8% of XC)
Diagonalization             ....       0.000 sec  (  0.0%)
Density matrix formation    ....       0.066 sec  (  1.0%)
Total Energy calculation    ....       0.024 sec  (  0.4%)
Population analysis         ....       0.087 sec  (  1.3%)
Orbital Transformation      ....       0.046 sec  (  0.7%)
Orbital Orthonormalization  ....       0.000 sec  (  0.0%)
DIIS solution               ....       0.049 sec  (  0.7%)
SOSCF solution              ....       0.266 sec  (  4.1%)
Finished LeanSCF after   6.6 sec

Maximum memory used throughout the entire LEANSCF-calculation: 37.4 MB


-------------------------------------------------------------------------------
                          DFT DISPERSION CORRECTION                            
                                                                               
                              DFTD3 V3.1  Rev 1                                
                          USING Becke-Johnson damping                          
-------------------------------------------------------------------------------
The BP86 functional is recognized
Active option DFTDOPT                   ...         4   

molecular C6(AA) [au] = 17512.208629 


            DFT-D V3
 parameters
 s6 scaling factor         :     1.0000 
 a1 scaling factor         :     0.3946 
 s8 scaling factor         :     3.2822 
 a2 scaling factor         :     4.8516 
 ad hoc parameters k1-k3   :    16.0000     1.3333    -4.0000 

 Edisp/kcal,au: -53.154920820511  -0.084707749201 
 E6   /kcal   : -19.187368250 
 E8   /kcal   : -33.967552571 
 % E8         :  63.902931368 

-------------------------   ----------------
Dispersion correction           -0.084707749
-------------------------   ----------------


-------------------------   --------------------
FINAL SINGLE POINT ENERGY     -1111.008105098564
-------------------------   --------------------

                                *** OPTIMIZATION RUN DONE ***



           ************************************************************
           *        Program running with 6 parallel MPI-processes     *
           *              working on a common directory               *
           ************************************************************

------------------------------------------------------------------------------
                              ORCA PROPERTY CALCULATIONS
------------------------------------------------------------------------------

GBWName                                 ... data/geom_opt_PO_BP86/11776/11776.gbw
Number of atoms                         ...     35
Number of basis functions               ...    359
Max core memory                         ...   1024 MB

Electric properties:
Dipole moment                           ... YES
Quadrupole moment                       ...  NO
Static polarizability (Dipole/Dipole)   ...  NO
Static polarizability (Dipole/Quad.)    ...  NO
Static polarizability (Quad./Quad.)     ...  NO
Static polarizability (Velocity)        ...  NO

Atomic electric properties:
Dipole moment                           ...  NO
Quadrupole moment                       ...  NO
Static polarizability                   ...  NO

Choice of electric origin               ... Center of mass
Position of electric origin             ...    -0.184847    -0.057120     0.413726

General magnetic properties:
Magnetizability                         ...  NO

EPR properties:
g-Tensor (aka g-matrix)                 ...  NO
Zero-Field splitting spin-orbit         ...  NO
Zero-field splitting spin-spin          ...  NO
Hyperfine couplings                     ...  NO (   0 nuclei)
Quadrupole couplings                    ...  NO (   0 nuclei)
Contact density                         ...  NO (   0 nuclei)

NMR properties:
Chemical shifts                         ...  NO (   0 nuclei)
Spin-rotation constants                 ...  NO (   0 nuclei)
Spin-spin couplings                     ...  NO (   0 nuclei,    0 pairs)

Choice of magnetic origin               ... GIAO
Position of magnetic origin             ...     0.000000     0.000000     0.000000

Properties with geometric perturbations:
SCF Hessian                             ...  NO
IR spectrum                             ...  NO
VCD spectrum                            ...  NO
X-ray spectroscopy properties:
SCF XES/XAS/RIXS spectra                ...  NO


-------------
DIPOLE MOMENT
-------------

Method             : SCF
Type of density    : Electron Density
Multiplicity       :   1
Irrep              :   0
Energy             : -1110.9233973493626308 Eh
Relativity type    : 
Basis              : AO
                                X                 Y                 Z
Electronic contribution:     -2.289647308      -0.706253087       5.123003709
Nuclear contribution   :      2.884341605       0.890913772      -6.454915603
                        -----------------------------------------
Total Dipole Moment    :      0.594694297       0.184660685      -1.331911893
                        -----------------------------------------
Magnitude (a.u.)       :      1.470289144
Magnitude (Debye)      :      3.737178005



--------------------
Rotational spectrum 
--------------------
 
Rotational constants in cm-1:             0.010686             0.010669             0.006942 
Rotational constants in MHz :           320.366601           319.854411           208.110482 

Dipole components along the rotational axes: 
x,y,z [a.u.] :    -0.001698     0.001482    -1.470287 
x,y,z [Debye]:    -0.004315     0.003768    -3.737174 

 

Dipole moment calculation done in   0.0 sec 

Maximum memory used throughout the entire PROP-calculation: 19.0 MB

--------------------------------
SUGGESTED CITATIONS FOR THIS RUN
--------------------------------

Below you find a list of papers that are relevant to this ORCA run
We neither can nor want to force you to cite these papers, but we appreciate if you do
You receive ORCA, which is the product of decades of hard work by many enthusiastic individuals, for free
The only thing we kindly ask in return is that you cite our papers,
We deeply appreciate it, if you show your appreciation for ORCA by not just citing the generic ORCA reference.

Please note that relegating all ORCA citations to the supporting information does *not* help us.
SI sections are not indexed - citations you put there will not count into any citation statistics
But we need these citations in order to attract the funding resources that allow us to do what we are doing

Therefore, if you are a happy ORCA user, please consider citing a few of the papers listed below in the main body of your paper

In addition to the list printed below, the program has created the file data/geom_opt_PO_BP86/11776/11776.bibtex that contains the list in bibtex format
You can import this file easily into all common literature databanks and citation aid programs


List of essential papers. We consider these as the minimum necessary citations

  1. Neese,F.
     Software update: the ORCA program system, version 5.0
     WIRES Comput. Molec. Sci., 2022 12(1)e1606
     doi.org/10.1002/wcms.1606

List of papers to cite with high priority. The work reported in these papers was absolutely
necessary for this run to complete.
Our perspective: the developers of density functionals and basis sets usually get cited in chemistry papers
Good! But without the algorithms to do something with them, the functionals or basis sets would not do anything.
Hence, in our opinion, the algorithm design and method developments papers are equally worthy of getting cited

  1. Neese,F.
     An improvement of the resolution of the identity approximation for the formation of the Coulomb matrix
     J. Comp. Chem., 2003 24(14)1740-1747
     doi.org/10.1002/jcc.10318
  2. Neese,F.
     The SHARK Integral Generation and Digestion System
     J. Comp. Chem., 2022  1-16
     doi.org/10.1002/jcc.26942
  3. Grimme,S.; Antony,J.; Ehrlich,S.; Krieg,H.
     A consistent and accurate ab initio parametrization of density functional dispersion correction (DFT-D) for the 94 elements H-Pu
     J. Chem. Phys., 2010 132 154104-XXXX
     doi.org/10.1063/1.3382344
  4. Grimme,S.; Ehrlich,S.; Goerigk,L.
     Effect of the damping function in dispersion corrected density functional theory
     J. Comput. Chem., 2011 32(7)1456-1465
     doi.org/10.1002/jcc.21759

List of suggested additional citations. These are papers that are important in the 'surrounding' of 
of this run, or papers that preceded the highly important papers. If you like your results we are grateful for a citation.

  1. Neese,F.
     The ORCA program system
     WIRES Comput. Molec. Sci., 2012 2(1)73-78
     doi.org/10.1002/wcms.81
  2. Neese,F.
     Software update: the ORCA program system, version 4.0
     WIRES Comput. Molec. Sci., 2018 8(1)1-6
     doi.org/10.1002/wcms.1327
  3. Neese,F.; Wennmohs,F.; Becker,U.; Riplinger,C.
     The ORCA quantum chemistry program package
     J. Chem. Phys., 2020 152 Art. No. L224108
     doi.org/10.1063/5.0004608

List of optional additional citations

  1. Neese,F.
     Approximate second-order SCF convergence for spin unrestricted wavefunctions
     Chem. Phys. Lett., 2000 325(1-3)93-98
     doi.org/10.1016/s0009-2614(00)00662-x

Timings for individual modules:

Sum of individual times          ...      111.922 sec (=   1.865 min)
Startup calculation              ...        9.343 sec (=   0.156 min)   8.3 %
SCF iterations                   ...       69.935 sec (=   1.166 min)  62.5 %
Property calculations            ...        0.171 sec (=   0.003 min)   0.2 %
SCF Gradient evaluation          ...       32.367 sec (=   0.539 min)  28.9 %
Geometry relaxation              ...        0.106 sec (=   0.002 min)   0.1 %
                             ****ORCA TERMINATED NORMALLY****
TOTAL RUN TIME: 0 days 0 hours 1 minutes 53 seconds 233 msec
