
                                 *****************
                                 * O   R   C   A *
                                 *****************

                                            #,                                       
                                            ###                                      
                                            ####                                     
                                            #####                                    
                                            ######                                   
                                           ########,                                 
                                     ,,################,,,,,                         
                               ,,#################################,,                 
                          ,,##########################################,,             
                       ,#########################################, ''#####,          
                    ,#############################################,,   '####,        
                  ,##################################################,,,,####,       
                ,###########''''           ''''###############################       
              ,#####''   ,,,,##########,,,,          '''####'''          '####       
            ,##' ,,,,###########################,,,                        '##       
           ' ,,###''''                  '''############,,,                           
         ,,##''                                '''############,,,,        ,,,,,,###''
      ,#''                                            '''#######################'''  
     '                                                          ''''####''''         
             ,#######,   #######,   ,#######,      ##                                
            ,#'     '#,  ##    ##  ,#'     '#,    #''#        ,####,   ,####,        
            ##       ##  ##   ,#'  ##            #'  '#       #'       #'  '#        
            ##       ##  #######   ##           ,######,      #####,   #    #        
            '#,     ,#'  ##    ##  '#,     ,#' ,#      #,     #,   #   #,  ,#        
             '#######'   ##     ##  '#######'  #'      '#     '####' # '####'        



                #########################################################
                #                        -***-                          #
                #          Department of theory and spectroscopy        #
                #                                                       #
                #                      Frank Neese                      #
                #                                                       #
                #     Directorship, Architecture, Infrastructure        #
                #                    SHARK, DRIVERS                     #
                #        Core code/Algorithms in most modules           #
                #                                                       #
                #        Max Planck Institute fuer Kohlenforschung      #
                #                Kaiser Wilhelm Platz 1                 #
                #                 D-45470 Muelheim/Ruhr                 #
                #                      Germany                          #
                #                                                       #
                #                  All rights reserved                  #
                #                        -***-                          #
                #########################################################


                         Program Version 6.0.0  -   RELEASE   -


 With contributions from (in alphabetic order):
   Daniel Aravena         : Magnetic Suceptibility
   Michael Atanasov       : Ab Initio Ligand Field Theory (pilot matlab implementation)
   Alexander A. Auer      : GIAO ZORA, VPT2 properties, NMR spectrum
   Ute Becker             : All parallelization in ORCA, NUMFREQ, NUMCALC
   Giovanni Bistoni       : ED, misc. LED, open-shell LED, HFLD
   Martin Brehm           : Molecular dynamics
   Dmytro Bykov           : pre 5.0 version of the SCF Hessian
   Marcos Casanova-Páez   : Triplet and SCS-CIS(D). UHF-(DLPNO)-IP/EA/STEOM-CCSD. UHF-CVS-IP/STEOM-CCSD
   Vijay G. Chilkuri      : MRCI spin determinant printing, contributions to CSF-ICE
   Pauline Colinet        : FMM embedding
   Dipayan Datta          : RHF DLPNO-CCSD density
   Achintya Kumar Dutta   : EOM-CC, STEOM-CC
   Nicolas Foglia         : Exact transition moments, OPA infrastructure, MCD improvements
   Dmitry Ganyushin       : Spin-Orbit,Spin-Spin,Magnetic field MRCI
   Miquel Garcia          : C-PCM and meta-GGA Hessian, CCSD/C-PCM, Gaussian charge scheme
   Tiago L. C. Gouveia    : GS-ROHF, GS-ROCIS
   Yang Guo               : DLPNO-NEVPT2, F12-NEVPT2, CIM, IAO-localization
   Andreas Hansen         : Spin unrestricted coupled pair/coupled cluster methods
   Ingolf Harden          : AUTO-CI MPn and infrastructure 
   Benjamin Helmich-Paris : MC-RPA, TRAH-(SCF,CASSCF), AVAS, COSX integrals, SCF dyn. polar.
   Lee Huntington         : MR-EOM, pCC
   Robert Izsak           : Overlap fitted RIJCOSX, COSX-SCS-MP3, EOM
   Riya Kayal             : Wick's Theorem for AUTO-CI, AUTO-CI UHF-CCSDT
   Emily Kempfer          : AUTO-CI, RHF CISDT and CCSDT
   Christian Kollmar      : KDIIS, OOCD, Brueckner-CCSD(T), CCSD density, CASPT2, CASPT2-K, improved NEVPT2
   Axel Koslowski         : Symmetry handling
   Simone Kossmann        : Meta GGA functionals, TD-DFT gradient, OOMP2, (MP2 Hessian; deprecated post 5.0)
   Lucas Lang             : DCDCAS
   Marvin Lechner         : AUTO-CI (C++ implementation), FIC-MRCC
   Spencer Leger          : CASSCF response
   Dagmar Lenk            : GEPOL surface, SMD, ORCA-2-JSON
   Dimitrios Liakos       : Extrapolation schemes; Compound Job, initial MDCI parallelization
   Dimitrios Manganas     : Further ROCIS development; embedding schemes. LFT, Crystal Embedding
   Dimitrios Pantazis     : SARC Basis sets
   Anastasios Papadopoulos: AUTO-CI, single reference methods and gradients
   Taras Petrenko         : pre 6.0 DFT Hessian and TD-DFT gradient, (ASA, deprecated), ECA, 1-Electron XAS/XES, NRVS
   Peter Pinski           : DLPNO-MP2, DLPNO-MP2 Gradient
   Christoph Reimann      : Effective Core Potentials
   Marius Retegan         : Local ZFS, SOC
   Christoph Riplinger    : Optimizer, TS searches, QM/MM, DLPNO-CCSD(T), (RO)-DLPNO pert. Triples
   Michael Roemelt        : Original ROCIS implementation
   Masaaki Saitow         : Open-shell DLPNO-CCSD energy and density
   Barbara Sandhoefer     : DKH picture change effects
   Kantharuban Sivalingam : CASSCF convergence/infrastructure, NEVPT2 and variants, FIC-MRCI
   Bernardo de Souza      : ESD, SOC TD-DFT
   Georgi Stoychev        : AutoAux, RI-MP2 NMR, DLPNO-MP2 response, X2C
   Van Anh Tran           : RI-MP2 g-tensors
   Willem Van den Heuvel  : Paramagnetic NMR
   Zikuan Wang            : NOTCH, Electric field optimization 
   Frank Wennmohs         : Technical directorship and infrastructure
   Hang Xu                : AUTO-CI-Response properties 


 We gratefully acknowledge several colleagues who have allowed us to
 interface, adapt or use parts of their codes:
   Stefan Grimme, W. Hujo, H. Kruse, P. Pracht,  : VdW corrections, initial TS optimization,
                  C. Bannwarth, S. Ehlert,         DFT functionals, gCP, sTDA/sTD-DF
                  L. Wittmann, M. Mueller
   Ed Valeev, F. Pavosevic, A. Kumar             : LibInt (2-el integral package), F12 methods
   Garnet Chan, S. Sharma, J. Yang, R. Olivares  : DMRG
   Ulf Ekstrom                                   : XCFun DFT Library
   Mihaly Kallay                                 : mrcc  (arbitrary order and MRCC methods)
   Frank Weinhold                                : gennbo (NPA and NBO analysis)
   Simon Mueller                                 : openCOSMO-RS
   Christopher J. Cramer and Donald G. Truhlar   : smd solvation model
   Lars Goerigk                                  : TD-DFT with DH, B97 family of functionals
   V. Asgeirsson, H. Jonsson                     : NEB implementation
   FAccTs GmbH                                   : IRC, NEB, NEB-TS, DLPNO-Multilevel, CI-OPT
                                                   MM, QMMM, 2- and 3-layer-ONIOM, Crystal-QMMM,
                                                   LR-CPCM, SF, NACMEs, symmetry and pop. for TD-DFT,
                                                   nearIR, NL-DFT gradient (VV10), updates on ESD,
                                                   ML-optimized integration grids, MBIS, APM,
                                                   GOAT, DOCKER, SOLVATOR, interface openCOSMO-RS
   S Lehtola, MJT Oliveira, MAL Marques          : LibXC Library
   Liviu Ungur et al                             : ANISO software


 Your calculation uses the libint2 library for the computation of 2-el integrals
 For citations please refer to: http://libint.valeyev.net

 Your ORCA version has been built with support for libXC version: 6.2.2
 For citations please refer to: https://libxc.gitlab.io

 This ORCA versions uses:
   CBLAS   interface :  Fast vector & matrix operations
   LAPACKE interface :  Fast linear algebra routines
   Shared memory     :  Shared parallel matrices


Your calculation utilizes the atom-pairwise dispersion correction
with the Becke-Johnson damping scheme (D3BJ)


Warning: RI is on but no J-basis has been assigned. Assigning Def2/J (nothing to worry about!)
================================================================================

----- Orbital basis set information -----
Your calculation utilizes the basis: def2-SVP
   F. Weigend and R. Ahlrichs, Phys. Chem. Chem. Phys. 7, 3297 (2005).

----- AuxJ basis set information -----
Your calculation utilizes the auxiliary basis: def2/J
   F. Weigend, Phys. Chem. Chem. Phys. 8, 1057 (2006).

================================================================================
                                        WARNINGS
                       Please study these warnings very carefully!
================================================================================


WARNING: Geometry Optimization
  ===> : Switching off AutoStart
         For restart on a previous wavefunction, please use MOREAD

================================================================================
                                       INPUT FILE
================================================================================
NAME = data/geom_opt_PO_BP86/77639/77639.inp
|  1> ! RI BP86 def2-SVP D3BJ TIGHTSCF Opt
|  2> %pal
|  3> nprocs 6
|  4> end
|  5> 
|  6> * xyz 0 1
|  7> C      2.706125   -0.053177    0.684599
|  8> C      1.698752    0.313690   -0.400894
|  9> P     -0.009282    0.002366    0.066768
| 10> O     -0.215718    0.054968    1.551805
| 11> C     -0.440411   -1.597912   -0.630548
| 12> C     -1.482064   -2.358859    0.184069
| 13> C     -2.779349   -1.674890    0.148819
| 14> N     -3.783839   -1.099433    0.071592
| 15> C     -1.002576    1.219052   -0.808476
| 16> C     -1.349317    2.443955    0.032398
| 17> C     -0.147861    3.227076    0.340992
| 18> N      0.833127    3.813953    0.539370
| 19> C      2.732771   -1.502646    0.908955
| 20> N      2.722442   -2.656367    1.031168
| 21> H      3.702822    0.284453    0.379212
| 22> H      2.460573    0.465343    1.617313
| 23> H      1.815134    1.378966   -0.621005
| 24> H      1.919967   -0.219523   -1.332880
| 25> H     -0.779261   -1.460984   -1.664125
| 26> H      0.461857   -2.214424   -0.681845
| 27> H     -1.144396   -2.467478    1.220070
| 28> H     -1.593448   -3.368189   -0.227641
| 29> H     -0.483830    1.513129   -1.728406
| 30> H     -1.940092    0.749614   -1.120726
| 31> H     -2.058109    3.070681   -0.520312
| 32> H     -1.844015    2.136635    0.959729
| 33> **                         ****END OF INPUT****
================================================================================

                       *****************************
                       * Geometry Optimization Run *
                       *****************************

Geometry optimization settings:
Update method            Update   .... BFGS
Choice of coordinates    CoordSys .... (2022) Redundant Internals
Initial Hessian          InHess   .... Almloef's Model
Max. no of cycles        MaxIter  .... 78

Convergence Tolerances:
Energy Change            TolE     ....  5.0000e-06 Eh
Max. Gradient            TolMAXG  ....  3.0000e-04 Eh/bohr
RMS Gradient             TolRMSG  ....  1.0000e-04 Eh/bohr
Max. Displacement        TolMAXD  ....  4.0000e-03 bohr
RMS Displacement         TolRMSD  ....  2.0000e-03 bohr
Strict Convergence                .... False

------------------------------------------------------------------------------
                        ORCA OPTIMIZATION COORDINATE SETUP
------------------------------------------------------------------------------

The optimization will be done in redundant internal coordinates (2022)
Making redundant internal coordinates   ...  (2022 redundants) done
Evaluating the initial hessian          ...  (Almloef) done
Evaluating the coordinates              ...  done
Calculating the B-matrix                .... done
Calculating the G-matrix                .... done
Diagonalizing the G-matrix              .... done
Small eigenvalue found = 1.141e-02
Small eigenvalue found = 1.433e-02
Small eigenvalue found = 2.035e-02
Small eigenvalue found = 2.963e-02
The first mode is                       ....   40
The number of degrees of freedom        ....   72

    -----------------------------------------------------------------
                    Redundant Internal Coordinates


    -----------------------------------------------------------------
         Definition                    Initial Value    Approx d2E/dq
    -----------------------------------------------------------------
      1. B(C   1,C   0)                  1.5257         0.379556   
      2. B(P   2,C   1)                  1.7981         0.469032   
      3. B(O   3,P   2)                  1.5002         1.254555   
      4. B(C   4,P   2)                  1.7981         0.469032   
      5. B(C   5,C   4)                  1.5257         0.379559   
      6. B(C   6,C   5)                  1.4670         0.470908   
      7. B(N   7,C   6)                  1.1602         1.301583   
      8. B(C   8,P   2)                  1.7981         0.469033   
      9. B(C   9,C   8)                  1.5257         0.379557   
     10. B(C  10,C   9)                  1.4670         0.470907   
     11. B(N  11,C  10)                  1.1602         1.301581   
     12. B(C  12,C   0)                  1.4670         0.470907   
     13. B(N  13,C  12)                  1.1602         1.301583   
     14. B(H  14,C   0)                  1.0957         0.352578   
     15. B(H  15,C   0)                  1.0950         0.353493   
     16. B(H  16,C   1)                  1.0940         0.354865   
     17. B(H  17,C   1)                  1.0963         0.351876   
     18. B(H  18,C   4)                  1.0963         0.351876   
     19. B(H  19,C   4)                  1.0940         0.354865   
     20. B(H  20,C   5)                  1.0950         0.353492   
     21. B(H  21,C   5)                  1.0957         0.352579   
     22. B(H  22,C   8)                  1.0963         0.351876   
     23. B(H  23,C   8)                  1.0940         0.354864   
     24. B(H  24,C   9)                  1.0957         0.352578   
     25. B(H  25,C   9)                  1.0950         0.353493   
     26. A(C  12,C   0,H  14)          109.3024         0.335798   
     27. A(C   1,C   0,C  12)          111.0019         0.379154   
     28. A(C   1,C   0,H  14)          109.1601         0.324041   
     29. A(C   1,C   0,H  15)          110.1263         0.324179   
     30. A(C  12,C   0,H  15)          109.9788         0.335943   
     31. A(H  14,C   0,H  15)          107.1848         0.289037   
     32. A(C   0,C   1,P   2)          113.6116         0.403522   
     33. A(P   2,C   1,H  16)          108.7832         0.356917   
     34. A(H  16,C   1,H  17)          106.3260         0.289122   
     35. A(C   0,C   1,H  16)          107.8821         0.324385   
     36. A(P   2,C   1,H  17)          109.1826         0.356404   
     37. A(C   0,C   1,H  17)          110.7727         0.323935   
     38. A(O   3,P   2,C   8)          112.4638         0.533256   
     39. A(C   1,P   2,C   8)          106.3199         0.446991   
     40. A(C   1,P   2,O   3)          112.4638         0.533256   
     41. A(C   4,P   2,C   8)          106.3199         0.446991   
     42. A(C   1,P   2,C   4)          106.3200         0.446991   
     43. A(O   3,P   2,C   4)          112.4637         0.533256   
     44. A(C   5,C   4,H  18)          110.7727         0.323935   
     45. A(P   2,C   4,H  18)          109.1826         0.356404   
     46. A(P   2,C   4,C   5)          113.6116         0.403523   
     47. A(P   2,C   4,H  19)          108.7832         0.356917   
     48. A(C   5,C   4,H  19)          107.8822         0.324385   
     49. A(H  18,C   4,H  19)          106.3259         0.289122   
     50. A(C   4,C   5,C   6)          111.0019         0.379155   
     51. A(H  20,C   5,H  21)          107.1847         0.289037   
     52. A(C   6,C   5,H  21)          109.3024         0.335798   
     53. A(C   4,C   5,H  21)          109.1601         0.324041   
     54. A(C   6,C   5,H  20)          109.9789         0.335943   
     55. A(C   4,C   5,H  20)          110.1263         0.324179   
     56. L(C   5,C   6,N   7,C   4, 1) 176.9425         0.469343   
     57. L(C   5,C   6,N   7,C   4, 2) 178.6767         0.469343   
     58. A(P   2,C   8,C   9)          113.6116         0.403522   
     59. A(C   9,C   8,H  23)          107.8821         0.324385   
     60. A(P   2,C   8,H  23)          108.7831         0.356917   
     61. A(C   9,C   8,H  22)          110.7727         0.323935   
     62. A(H  22,C   8,H  23)          106.3261         0.289122   
     63. A(P   2,C   8,H  22)          109.1827         0.356404   
     64. A(C   8,C   9,C  10)          111.0019         0.379154   
     65. A(H  24,C   9,H  25)          107.1848         0.289037   
     66. A(C  10,C   9,H  25)          109.9787         0.335943   
     67. A(C   8,C   9,H  25)          110.1263         0.324179   
     68. A(C  10,C   9,H  24)          109.3024         0.335798   
     69. A(C   8,C   9,H  24)          109.1602         0.324041   
     70. L(C   9,C  10,N  11,C   8, 2) 178.6769         0.469343   
     71. L(C   9,C  10,N  11,C   8, 1) 176.9426         0.469343   
     72. L(C   0,C  12,N  13,C   1, 2) 178.6765         0.469343   
     73. L(C   0,C  12,N  13,C   1, 1) 176.9422         0.469343   
     74. D(H  16,C   1,C   0,H  14)    -51.9837         0.011483   
     75. D(P   2,C   1,C   0,H  14)   -172.6666         0.011483   
     76. D(H  17,C   1,C   0,C  12)    -56.5347         0.011483   
     77. D(H  16,C   1,C   0,H  15)     65.4327         0.011483   
     78. D(P   2,C   1,C   0,H  15)    -55.2501         0.011483   
     79. D(H  16,C   1,C   0,C  12)   -172.5297         0.011483   
     80. D(P   2,C   1,C   0,C  12)     66.7875         0.011483   
     81. D(C   4,P   2,C   1,H  17)     27.1534         0.004746   
     82. D(C   4,P   2,C   1,H  16)    142.7919         0.004746   
     83. D(C   4,P   2,C   1,C   0)    -97.0337         0.004746   
     84. D(O   3,P   2,C   1,H  17)    150.6506         0.004746   
     85. D(O   3,P   2,C   1,H  16)    -93.7110         0.004746   
     86. D(O   3,P   2,C   1,C   0)     26.4635         0.004746   
     87. D(C   5,C   4,P   2,O   3)     26.4633         0.004746   
     88. D(C   5,C   4,P   2,C   1)    149.9605         0.004746   
     89. D(H  18,C   4,P   2,C   8)     27.1533         0.004746   
     90. D(H  18,C   4,P   2,O   3)    150.6505         0.004746   
     91. D(H  18,C   4,P   2,C   1)    -85.8523         0.004746   
     92. D(C   5,C   4,P   2,C   8)    -97.0338         0.004746   
     93. D(H  21,C   5,C   4,P   2)   -172.6665         0.011483   
     94. D(H  20,C   5,C   4,H  19)     65.4327         0.011483   
     95. D(H  20,C   5,C   4,H  18)   -178.5723         0.011483   
     96. D(H  20,C   5,C   4,P   2)    -55.2502         0.011483   
     97. D(C   6,C   5,C   4,H  19)   -172.5296         0.011483   
     98. D(C   6,C   5,C   4,H  18)    -56.5346         0.011483   
     99. D(C   6,C   5,C   4,P   2)     66.7875         0.011483   
    100. D(H  22,C   8,P   2,C   1)     27.1535         0.004746   
    101. D(C   9,C   8,P   2,C   4)    149.9607         0.004746   
    102. D(C   9,C   8,P   2,O   3)     26.4635         0.004746   
    103. D(H  22,C   8,P   2,O   3)    150.6507         0.004746   
    104. D(C   9,C   8,P   2,C   1)    -97.0337         0.004746   
    105. D(H  22,C   8,P   2,C   4)    -85.8522         0.004746   
    106. D(H  24,C   9,C   8,H  23)    -51.9842         0.011483   
    107. D(H  24,C   9,C   8,H  22)     64.0109         0.011483   
    108. D(H  24,C   9,C   8,P   2)   -172.6669         0.011483   
    109. D(C  10,C   9,C   8,H  23)   -172.5303         0.011483   
    110. D(C  10,C   9,C   8,H  22)    -56.5351         0.011483   
    111. D(H  25,C   9,C   8,P   2)    -55.2504         0.011483   
    112. D(C  10,C   9,C   8,P   2)     66.7870         0.011483   
    -----------------------------------------------------------------

Number of atoms                         .... 26
Number of degrees of freedom            .... 112


         *************************************************************
         *                GEOMETRY OPTIMIZATION CYCLE   1            *
         *************************************************************
---------------------------------
CARTESIAN COORDINATES (ANGSTROEM)
---------------------------------
  C      2.706125   -0.053177    0.684599
  C      1.698752    0.313690   -0.400894
  P     -0.009282    0.002366    0.066768
  O     -0.215718    0.054968    1.551805
  C     -0.440411   -1.597912   -0.630548
  C     -1.482064   -2.358859    0.184069
  C     -2.779349   -1.674890    0.148819
  N     -3.783839   -1.099433    0.071592
  C     -1.002576    1.219052   -0.808476
  C     -1.349317    2.443955    0.032398
  C     -0.147861    3.227076    0.340992
  N      0.833127    3.813953    0.539370
  C      2.732771   -1.502646    0.908955
  N      2.722442   -2.656367    1.031168
  H      3.702822    0.284453    0.379212
  H      2.460573    0.465343    1.617313
  H      1.815134    1.378966   -0.621005
  H      1.919967   -0.219523   -1.332880
  H     -0.779261   -1.460984   -1.664125
  H      0.461857   -2.214424   -0.681845
  H     -1.144396   -2.467478    1.220070
  H     -1.593448   -3.368189   -0.227641
  H     -0.483830    1.513129   -1.728406
  H     -1.940092    0.749614   -1.120726
  H     -2.058109    3.070681   -0.520312
  H     -1.844015    2.136635    0.959729

----------------------------
CARTESIAN COORDINATES (A.U.)
----------------------------
  NO LB      ZA    FRAG     MASS         X           Y           Z
   0 C     6.0000    0    12.011    5.113835   -0.100490    1.293705
   1 C     6.0000    0    12.011    3.210176    0.592788   -0.757580
   2 P    15.0000    0    30.974   -0.017540    0.004471    0.126173
   3 O     8.0000    0    15.999   -0.407648    0.103874    2.932486
   4 C     6.0000    0    12.011   -0.832256   -3.019616   -1.191563
   5 C     6.0000    0    12.011   -2.800695   -4.457597    0.347840
   6 C     6.0000    0    12.011   -5.252208   -3.165083    0.281227
   7 N     7.0000    0    14.007   -7.150419   -2.077627    0.135289
   8 C     6.0000    0    12.011   -1.894594    2.303674   -1.527798
   9 C     6.0000    0    12.011   -2.549840    4.618406    0.061223
  10 C     6.0000    0    12.011   -0.279417    6.098290    0.644381
  11 N     7.0000    0    14.007    1.574382    7.207327    1.019262
  12 C     6.0000    0    12.011    5.164189   -2.839589    1.717676
  13 N     7.0000    0    14.007    5.144670   -5.019806    1.948625
  14 H     1.0000    0     1.008    6.997320    0.537538    0.716607
  15 H     1.0000    0     1.008    4.649809    0.879371    3.056279
  16 H     1.0000    0     1.008    3.430106    2.605868   -1.173529
  17 H     1.0000    0     1.008    3.628212   -0.414838   -2.518778
  18 H     1.0000    0     1.008   -1.472590   -2.760860   -3.144741
  19 H     1.0000    0     1.008    0.872783   -4.184655   -1.288500
  20 H     1.0000    0     1.008   -2.162595   -4.662858    2.305598
  21 H     1.0000    0     1.008   -3.011180   -6.364955   -0.430179
  22 H     1.0000    0     1.008   -0.914306    2.859399   -3.266214
  23 H     1.0000    0     1.008   -3.666243    1.416565   -2.117865
  24 H     1.0000    0     1.008   -3.889262    5.802746   -0.983247
  25 H     1.0000    0     1.008   -3.484683    4.037655    1.813625

--------------------------------
INTERNAL COORDINATES (ANGSTROEM)
--------------------------------
 C      0   0   0     0.000000000000     0.00000000     0.00000000
 C      1   0   0     1.525675853472     0.00000000     0.00000000
 P      2   1   0     1.798057430778   113.61163371     0.00000000
 O      3   2   1     1.500239208883   112.46377295    26.46349594
 C      3   2   1     1.798057700904   106.31996428   262.96631057
 C      5   3   2     1.525674331536   113.61163410   149.96051766
 C      6   5   3     1.466971208540   111.00194185    66.78754110
 N      7   6   5     1.160221930700   176.84156748    15.06686631
 C      3   2   1     1.798057243963   106.31993658   149.96068780
 C      9   3   2     1.525675510836   113.61162274   262.96633030
 C     10   9   3     1.466971464417   111.00193402    66.78703362
 N     11  10   9     1.160222349447   176.84166656    15.06449107
 C      1   2   3     1.466971712751   111.00191969    66.78750246
 N     13   1   2     1.160221897505   176.84124473    15.06768909
 H      1   2   3     1.095746387846   109.16011402   187.33344824
 H      1   2   3     1.095040721115   110.12628778   304.74986922
 H      2   1   3     1.093986553126   107.88211220   120.68281370
 H      2   1   3     1.096289233638   110.77268388   236.67783819
 H      5   3   2     1.096289202087   109.18263936   274.14767420
 H      5   3   2     1.093986276046   108.78320166    29.78599700
 H      6   5   3     1.095041477473   110.12630362   304.74984170
 H      6   5   3     1.095745667779   109.16012001   187.33349331
 H      9   3   2     1.096289149515   109.18265515    27.15345579
 H      9   3   2     1.093987362176   108.78313821   142.79194584
 H     10   9   3     1.095746285615   109.16017277   187.33310188
 H     10   9   3     1.095040856391   110.12626178   304.74959058

---------------------------
INTERNAL COORDINATES (A.U.)
---------------------------
 C      0   0   0     0.000000000000     0.00000000     0.00000000
 C      1   0   0     2.883109532198     0.00000000     0.00000000
 P      2   1   0     3.397836117232   113.61163371     0.00000000
 O      3   2   1     2.835041240159   112.46377295    26.46349594
 C      3   2   1     3.397836627697   106.31996428   262.96631057
 C      5   3   2     2.883106656156   113.61163410   149.96051766
 C      6   5   3     2.772173830489   111.00194185    66.78754110
 N      7   6   5     2.192501703593   176.84156748    15.06686631
 C      3   2   1     3.397835764203   106.31993658   149.96068780
 C      9   3   2     2.883108884711   113.61162274   262.96633030
 C     10   9   3     2.772174314025   111.00193402    66.78703362
 N     11  10   9     2.192502494910   176.84166656    15.06449107
 C      1   2   3     2.772174783310   111.00191969    66.78750246
 N     13   1   2     2.192501640864   176.84124473    15.06768909
 H      1   2   3     2.070660585263   109.16011402   187.33344824
 H      1   2   3     2.069327068399   110.12628778   304.74986922
 H      2   1   3     2.067334979601   107.88211220   120.68281370
 H      2   1   3     2.071686415142   110.77268388   236.67783819
 H      5   3   2     2.071686355520   109.18263936   274.14767420
 H      5   3   2     2.067334455995   108.78320166    29.78599700
 H      6   5   3     2.069328497708   110.12630362   304.74984170
 H      6   5   3     2.070659224533   109.16012001   187.33349331
 H      9   3   2     2.071686256173   109.18265515    27.15345579
 H      9   3   2     2.067336508483   108.78313821   142.79194584
 H     10   9   3     2.070660392075   109.16017277   187.33310188
 H     10   9   3     2.069327324033   110.12626178   304.74959058

---------------------
BASIS SET INFORMATION
---------------------
There are 5 groups of distinct atoms

 Group   1 Type C   : 7s4p1d contracted to 3s2p1d pattern {511/31/1}
 Group   2 Type P   : 10s7p1d contracted to 4s3p1d pattern {5311/511/1}
 Group   3 Type O   : 7s4p1d contracted to 3s2p1d pattern {511/31/1}
 Group   4 Type N   : 7s4p1d contracted to 3s2p1d pattern {511/31/1}
 Group   5 Type H   : 4s1p contracted to 2s1p pattern {31/1}

Atom   0C    basis set group =>   1
Atom   1C    basis set group =>   1
Atom   2P    basis set group =>   2
Atom   3O    basis set group =>   3
Atom   4C    basis set group =>   1
Atom   5C    basis set group =>   1
Atom   6C    basis set group =>   1
Atom   7N    basis set group =>   4
Atom   8C    basis set group =>   1
Atom   9C    basis set group =>   1
Atom  10C    basis set group =>   1
Atom  11N    basis set group =>   4
Atom  12C    basis set group =>   1
Atom  13N    basis set group =>   4
Atom  14H    basis set group =>   5
Atom  15H    basis set group =>   5
Atom  16H    basis set group =>   5
Atom  17H    basis set group =>   5
Atom  18H    basis set group =>   5
Atom  19H    basis set group =>   5
Atom  20H    basis set group =>   5
Atom  21H    basis set group =>   5
Atom  22H    basis set group =>   5
Atom  23H    basis set group =>   5
Atom  24H    basis set group =>   5
Atom  25H    basis set group =>   5
---------------------------------
AUXILIARY/J BASIS SET INFORMATION
---------------------------------
There are 5 groups of distinct atoms

 Group   1 Type C   : 12s5p4d2f1g contracted to 6s4p3d1f1g pattern {711111/2111/211/2/1}
 Group   2 Type P   : 14s5p5d2f1g contracted to 8s4p3d1f1g pattern {71111111/2111/311/2/1}
 Group   3 Type O   : 12s5p4d2f1g contracted to 6s4p3d1f1g pattern {711111/2111/211/2/1}
 Group   4 Type N   : 12s5p4d2f1g contracted to 6s4p3d1f1g pattern {711111/2111/211/2/1}
 Group   5 Type H   : 5s2p1d contracted to 3s1p1d pattern {311/2/1}

Atom   0C    basis set group =>   1
Atom   1C    basis set group =>   1
Atom   2P    basis set group =>   2
Atom   3O    basis set group =>   3
Atom   4C    basis set group =>   1
Atom   5C    basis set group =>   1
Atom   6C    basis set group =>   1
Atom   7N    basis set group =>   4
Atom   8C    basis set group =>   1
Atom   9C    basis set group =>   1
Atom  10C    basis set group =>   1
Atom  11N    basis set group =>   4
Atom  12C    basis set group =>   1
Atom  13N    basis set group =>   4
Atom  14H    basis set group =>   5
Atom  15H    basis set group =>   5
Atom  16H    basis set group =>   5
Atom  17H    basis set group =>   5
Atom  18H    basis set group =>   5
Atom  19H    basis set group =>   5
Atom  20H    basis set group =>   5
Atom  21H    basis set group =>   5
Atom  22H    basis set group =>   5
Atom  23H    basis set group =>   5
Atom  24H    basis set group =>   5
Atom  25H    basis set group =>   5


           ************************************************************
           *        Program running with 6 parallel MPI-processes     *
           *              working on a common directory               *
           ************************************************************
------------------------------------------------------------------------------
                             ORCA STARTUP CALCULATIONS
                           -- RI-GTO INTEGRALS CHOSEN --
------------------------------------------------------------------------------
------------------------------------------------------------------------------
                   ___                                                        
                  /   \      - P O W E R E D   B Y -                         
                 /     \                                                     
                 |  |  |   _    _      __       _____    __    __             
                 |  |  |  | |  | |    /  \     |  _  \  |  |  /  |          
                  \  \/   | |  | |   /    \    | | | |  |  | /  /          
                 / \  \   | |__| |  /  /\  \   | |_| |  |  |/  /          
                |  |  |   |  __  | /  /__\  \  |    /   |      \           
                |  |  |   | |  | | |   __   |  |    \   |  |\   \          
                \     /   | |  | | |  |  |  |  | |\  \  |  | \   \       
                 \___/    |_|  |_| |__|  |__|  |_| \__\ |__|  \__/        
                                                                              
                      - O R C A' S   B I G   F R I E N D -                    
                                      &                                       
                       - I N T E G R A L  F E E D E R -                       
                                                                              
 v1 FN, 2020, v2 2021, v3 2022-2024                                           
------------------------------------------------------------------------------


----------------------
SHARK INTEGRAL PACKAGE
----------------------

Number of atoms                             ...     26
Number of basis functions                   ...    260
Number of shells                            ...    122
Maximum angular momentum                    ...      2
Integral batch strategy                     ... SHARK/LIBINT Hybrid
RI-J (if used) integral strategy            ... SPLIT-RIJ (Revised 2003 algorithm where possible)
Printlevel                                  ...      1
Contraction scheme used                     ... SEGMENTED contraction
Prescreening option                         ... SCHWARTZ
   Thresh                                   ... 2.500e-11
   Tcut                                     ... 2.500e-12
   Tpresel                                  ... 2.500e-12 
Coulomb Range Separation                    ... NOT USED
Exchange Range Separation                   ... NOT USED
Multipole approximations                    ... NOT USED
Finite Nucleus Model                        ... NOT USED
CABS basis                                  ... NOT available
Auxiliary Coulomb fitting basis             ... AVAILABLE
   # of basis functions in Aux-J            ...    820
   # of shells in Aux-J                     ...    272
   Maximum angular momentum in Aux-J        ...      4
Auxiliary J/K fitting basis                 ... NOT available
Auxiliary Correlation fitting basis         ... NOT available
Auxiliary 'external' fitting basis          ... NOT available

Checking pre-screening integrals            ... done (  0.0 sec) Dimension = 122
Check shell pair data                       ... done (  0.0 sec)
Shell pair information
Shell pair cut-off parameter TPreSel        ...   2.5e-12
Total number of shell pairs                 ...      7503
Shell pairs after pre-screening             ...      6526
Total number of primitive shell pairs       ...     27723
Primitive shell pairs kept                  ...     16042
          la=0 lb=0:   1995 shell pairs
          la=1 lb=0:   2432 shell pairs
          la=1 lb=1:    776 shell pairs
          la=2 lb=0:    761 shell pairs
          la=2 lb=1:    481 shell pairs
          la=2 lb=2:     81 shell pairs

Calculating one electron integrals          ... done (  0.0 sec)
Calculating RI/J V-Matrix + Cholesky decomp.... done (  0.0 sec)
Calculating Nuclear repulsion               ... done (  0.0 sec) ENN=    980.946795790933 Eh

Diagonalization of the overlap matrix:
Smallest eigenvalue                        ... 8.361e-04
Time for diagonalization                   ...    0.007 sec
Threshold for overlap eigenvalues          ... 1.000e-07
Number of eigenvalues below threshold      ... 0
Time for construction of square roots      ...    0.006 sec
Total time needed                          ...    0.015 sec

-------------------
DFT GRID GENERATION
-------------------

General Integration Accuracy     IntAcc      ... 4.388
Radial Grid Type                 RadialGrid  ... OptM3 with GC (2021)
Angular Grid (max. ang.)         AngularGrid ... 4 (Lebedev-302)
Angular grid pruning method      GridPruning ... 4 (adaptive)
Weight generation scheme         WeightScheme... mBecke (2022)
Basis function cutoff            BFCut       ... 1.0000e-11
Integration weight cutoff        WCut        ... 1.0000e-14
Partially contracted basis set               ... off
Rotationally invariant grid construction     ... off
Angular grids for H and He will be reduced by one unit

Total number of grid points                  ...   123486
Total number of batches                      ...     1944
Average number of points per batch           ...       63
Average number of grid points per atom       ...     4749
Initializing property integral containers    ... done (  0.0 sec)

SHARK setup successfully completed in   0.7 seconds

Maximum memory used throughout the entire STARTUP-calculation: 33.4 MB


           ************************************************************
           *        Program running with 6 parallel MPI-processes     *
           *              working on a common directory               *
           ************************************************************
-------------------------------------------------------------------------------
                                 ORCA GUESS
                   Start orbitals & Density for SCF / CASSCF
-------------------------------------------------------------------------------

------------
SCF SETTINGS
------------
Hamiltonian:
 Density Functional     Method          .... DFT(GTOs)
 Exchange Functional    Exchange        .... B88
   X-Alpha parameter    XAlpha          ....  0.666667
   Becke's b parameter  XBeta           ....  0.004200
 Correlation Functional Correlation     .... P86
 LDA part of GGA corr.  LDAOpt          .... PW91-LDA
 Gradients option       PostSCFGGA      .... off
   NL short-range parameter             ....  4.400000
 RI-approximation to the Coulomb term is turned on
   Number of AuxJ basis functions       .... 820


General Settings:
 Integral files         IntName         .... data/geom_opt_PO_BP86/77639/77639
 Hartree-Fock type      HFTyp           .... RHF
 Total Charge           Charge          ....    0
 Multiplicity           Mult            ....    1
 Number of Electrons    NEL             ....  110
 Basis Dimension        Dim             ....  260
 Nuclear Repulsion      ENuc            ....    980.9467957909 Eh

Convergence Acceleration:
 AO-DIIS                CNVDIIS         .... on
   Start iteration      DIISMaxIt       ....    12
   Startup error        DIISStart       ....  0.200000
   # of expansion vecs  DIISMaxEq       ....     5
   Bias factor          DIISBfac        ....   1.050
   Max. coefficient     DIISMaxC        ....  10.000
 MO-DIIS                CNVKDIIS        .... off
 Trust-Rad. Augm. Hess. CNVTRAH         .... auto
   Auto Start mean grad. ratio tolernc. ....  1.125000
   Auto Start start iteration           ....    50
   Auto Start num. interpolation iter.  ....    10
   Max. Number of Micro iterations      ....    24
   Max. Number of Macro iterations      .... Maxiter - #DIIS iter
   Number of Davidson start vectors     ....     2
   Converg. threshold    (grad. norm)   ....   1.000e-05
   Grad. Scal. Fac. for Micro threshold ....   0.100
   Minimum threshold for Micro iter.    ....   1.000e-02
   NR start threshold (gradient norm)   ....   1.000e-04
   Initial trust radius                 ....   0.400
   Minimum AH scaling param. (alpha)    ....   1.000
   Maximum AH scaling param. (alpha)    .... 1000.000
   Quad. conv. algorithm                .... NR
   White noise on init. David. guess    .... on
   Maximum white noise                  ....   0.010
   Pseudo random numbers                .... off
   Inactive MOs                         .... canonical
   Orbital update algorithm             .... Taylor
   Preconditioner                       .... Diag
   Full preconditioner red. dimension   ....   250
 SOSCF                  CNVSOSCF        .... on
   Start iteration      SOSCFMaxIt      ....   150
   Startup grad/error   SOSCFStart      ....  0.003300
   Hessian update       SOSCFHessUp     .... L-BFGS
 Level Shifting         CNVShift        .... on
   Level shift para.    LevelShift      ....    0.2500
   Turn off err/grad.   ShiftErr        ....    0.0010
 Zerner damping         CNVZerner       .... off
 Static damping         CNVDamp         .... on
   Fraction old density DampFac         ....    0.7000
   Max. Damping (<1)    DampMax         ....    0.9800
   Min. Damping (>=0)   DampMin         ....    0.0000
   Turn off err/grad.   DampErr         ....    0.1000

SCF Procedure:
 Maximum # iterations   MaxIter         ....   125
 SCF integral mode      SCFMode         .... Direct
   Integral package                     .... SHARK and LIBINT hybrid scheme
 Reset frequency        DirectResetFreq ....    20
 Integral Threshold     Thresh          ....  2.500e-11 Eh
 Primitive CutOff       TCut            ....  2.500e-12 Eh

Convergence Tolerance:
 Convergence Check Mode ConvCheckMode   .... Total+1el-Energy
 Convergence forced     ConvForced      .... 0
 Energy Change          TolE            ....  1.000e-08 Eh
 1-El. energy change                    ....  1.000e-05 Eh
 Orbital Gradient       TolG            ....  1.000e-05
 Orbital Rotation angle TolX            ....  1.000e-05
 DIIS Error             TolErr          ....  5.000e-07

------------------------------
INITIAL GUESS: MODEL POTENTIAL
------------------------------
Loading Hartree-Fock densities                     ... done
Calculating cut-offs                               ... done
Initializing the effective Hamiltonian             ... done
Setting up the integral package (SHARK)            ... done
Starting the Coulomb interaction                   ... done (   0.1 sec)
Making the grid                                    ... done (   0.2 sec)
Mapping shells                                     ... done
Starting the XC term evaluation                    ... done (   0.1 sec)
  promolecular density results
     # of electrons  =    110.000095708
     EX              =   -100.272764552
     EC              =     -4.088030238
     EX+EC           =   -104.360794790
Transforming the Hamiltonian                       ... done (   0.0 sec)
Diagonalizing the Hamiltonian                      ... done (   0.0 sec)
Back transforming the eigenvectors                 ... done (   0.0 sec)
Now organizing SCF variables                       ... done
                      ------------------
                      INITIAL GUESS DONE (   0.4 sec)
                      ------------------
             **** ENERGY FILE WAS UPDATED (data/geom_opt_PO_BP86/77639/77639.en.tmp) ****
Finished Guess after   0.5 sec
Maximum memory used throughout the entire GUESS-calculation: 18.5 MB


           ************************************************************
           *        Program running with 6 parallel MPI-processes     *
           *              working on a common directory               *
           ************************************************************

-------------------------------------------------------------------------------------------
                                      ORCA LEAN-SCF
                              memory conserving SCF solver
-------------------------------------------------------------------------------------------

----------------------------------------D-I-I-S--------------------------------------------
Iteration    Energy (Eh)           Delta-E    RMSDP     MaxDP     DIISErr   Damp  Time(sec)
-------------------------------------------------------------------------------------------
               ***  Starting incremental Fock matrix formation  ***
    1    -929.9917090403071143     0.00e+00  5.34e-03  1.75e-01  3.35e-01  0.700   0.5
    2    -930.2490344843124603    -2.57e-01  2.93e-03  9.46e-02  7.87e-02  0.700   0.6
                               ***Turning on AO-DIIS***
    3    -930.3080794767197403    -5.90e-02  9.32e-04  2.26e-02  4.03e-02  0.700   0.5
    4    -930.3587077873289672    -5.06e-02  1.56e-03  4.42e-02  3.55e-02  0.000   0.5
    5    -930.4779688177720800    -1.19e-01  4.79e-04  1.38e-02  8.89e-03  0.000   0.5
                              *** Initializing SOSCF ***
---------------------------------------S-O-S-C-F--------------------------------------
Iteration    Energy (Eh)           Delta-E    RMSDP     MaxDP     MaxGrad    Time(sec)
--------------------------------------------------------------------------------------
    6    -930.4793653536744387    -1.40e-03  1.41e-04  3.45e-03  2.37e-03     0.5
               *** Restarting incremental Fock matrix formation ***
    7    -930.4794400652579043    -7.47e-05  2.26e-04  7.82e-03  6.80e-04     0.5
    8    -930.4792985458716430     1.42e-04  1.46e-04  4.36e-03  1.81e-03     0.4
    9    -930.4794636635722327    -1.65e-04  6.36e-05  2.05e-03  2.76e-04     0.4
   10    -930.4794511834786590     1.25e-05  4.93e-05  1.62e-03  6.17e-04     0.5
   11    -930.4794656779320121    -1.45e-05  1.80e-05  4.97e-04  7.08e-05     0.4
   12    -930.4794653583587660     3.20e-07  1.01e-05  2.67e-04  9.72e-05     0.4
   13    -930.4794661465273293    -7.88e-07  1.21e-06  3.88e-05  4.43e-06     0.5
   14    -930.4794661474506938    -9.23e-10  7.18e-07  1.94e-05  5.80e-06     0.4
                 **** Energy Check signals convergence ****

               *****************************************************
               *                     SUCCESS                       *
               *           SCF CONVERGED AFTER  14 CYCLES          *
               *****************************************************

             **** ENERGY FILE WAS UPDATED (data/geom_opt_PO_BP86/77639/77639.en.tmp) ****

----------------
TOTAL SCF ENERGY
----------------

Total Energy       :       -930.47946614745069 Eh          -25319.63350 eV

Components:
Nuclear Repulsion  :        980.94679579093258 Eh           26692.91936 eV
Electronic Energy  :      -1911.42626193838328 Eh          -52012.55285 eV
One Electron Energy:      -3217.59981001010829 Eh          -87555.34206 eV
Two Electron Energy:       1306.17354807172501 Eh           35542.78920 eV

Virial components:
Potential Energy   :      -1853.93977473278528 Eh          -50448.26601 eV
Kinetic Energy     :        923.46030858533447 Eh           25128.63251 eV
Virial Ratio       :          2.00760093043183

DFT components:
N(Alpha)           :       55.000145830243 electrons
N(Beta)            :       55.000145830243 electrons
N(Total)           :      110.000291660486 electrons
E(X)               :     -101.688786630507 Eh       
E(C)               :       -4.098188603161 Eh       
E(XC)              :     -105.786975233668 Eh       

---------------
SCF CONVERGENCE
---------------

  Last Energy change         ...    9.2336e-10  Tolerance :   1.0000e-08
  Last MAX-Density change    ...    1.9393e-05  Tolerance :   1.0000e-07
  Last RMS-Density change    ...    7.1835e-07  Tolerance :   5.0000e-09
  Last DIIS Error            ...    2.3696e-03  Tolerance :   5.0000e-07
  Last Orbital Gradient      ...    5.8015e-06  Tolerance :   1.0000e-05
  Last Orbital Rotation      ...    5.0935e-06  Tolerance :   1.0000e-05


----------------
ORBITAL ENERGIES
----------------

  NO   OCC          E(Eh)            E(eV) 
   0   2.0000     -76.431626     -2079.8103 
   1   2.0000     -18.737299      -509.8678 
   2   2.0000     -14.020182      -381.5086 
   3   2.0000     -14.020178      -381.5084 
   4   2.0000     -14.020173      -381.5083 
   5   2.0000      -9.980220      -271.5756 
   6   2.0000      -9.980212      -271.5754 
   7   2.0000      -9.980208      -271.5753 
   8   2.0000      -9.963587      -271.1230 
   9   2.0000      -9.963586      -271.1230 
  10   2.0000      -9.963578      -271.1227 
  11   2.0000      -9.954994      -270.8892 
  12   2.0000      -9.954980      -270.8888 
  13   2.0000      -9.954950      -270.8880 
  14   2.0000      -6.394193      -173.9948 
  15   2.0000      -4.615233      -125.5869 
  16   2.0000      -4.614962      -125.5795 
  17   2.0000      -4.614960      -125.5794 
  18   2.0000      -0.884256       -24.0618 
  19   2.0000      -0.830374       -22.5956 
  20   2.0000      -0.830371       -22.5955 
  21   2.0000      -0.830190       -22.5906 
  22   2.0000      -0.765645       -20.8343 
  23   2.0000      -0.753070       -20.4921 
  24   2.0000      -0.753067       -20.4920 
  25   2.0000      -0.672870       -18.3097 
  26   2.0000      -0.622974       -16.9520 
  27   2.0000      -0.622971       -16.9519 
  28   2.0000      -0.522495       -14.2178 
  29   2.0000      -0.493436       -13.4271 
  30   2.0000      -0.493429       -13.4269 
  31   2.0000      -0.480429       -13.0731 
  32   2.0000      -0.461725       -12.5642 
  33   2.0000      -0.461724       -12.5641 
  34   2.0000      -0.435741       -11.8571 
  35   2.0000      -0.420767       -11.4497 
  36   2.0000      -0.420760       -11.4495 
  37   2.0000      -0.408875       -11.1261 
  38   2.0000      -0.384009       -10.4494 
  39   2.0000      -0.384006       -10.4493 
  40   2.0000      -0.374013       -10.1774 
  41   2.0000      -0.352868        -9.6020 
  42   2.0000      -0.352867        -9.6020 
  43   2.0000      -0.324273        -8.8239 
  44   2.0000      -0.318108        -8.6562 
  45   2.0000      -0.317709        -8.6453 
  46   2.0000      -0.317706        -8.6452 
  47   2.0000      -0.311669        -8.4809 
  48   2.0000      -0.305852        -8.3227 
  49   2.0000      -0.305851        -8.3226 
  50   2.0000      -0.303236        -8.2515 
  51   2.0000      -0.302706        -8.2370 
  52   2.0000      -0.302705        -8.2370 
  53   2.0000      -0.243888        -6.6365 
  54   2.0000      -0.243886        -6.6365 
  55   0.0000      -0.025998        -0.7075 
  56   0.0000      -0.025992        -0.7073 
  57   0.0000      -0.024021        -0.6537 
  58   0.0000      -0.018359        -0.4996 
  59   0.0000      -0.016698        -0.4544 
  60   0.0000      -0.016693        -0.4542 
  61   0.0000      -0.012851        -0.3497 
  62   0.0000       0.030743         0.8365 
  63   0.0000       0.032150         0.8748 
  64   0.0000       0.032158         0.8751 
  65   0.0000       0.040661         1.1064 
*Only the first 10 virtual orbitals were printed.

                    ********************************
                    * MULLIKEN POPULATION ANALYSIS *
                    ********************************

-----------------------
MULLIKEN ATOMIC CHARGES
-----------------------
   0 C :    0.096058
   1 C :   -0.153500
   2 P :    0.406407
   3 O :   -0.443880
   4 C :   -0.153044
   5 C :    0.095930
   6 C :   -0.266333
   7 N :    0.031174
   8 C :   -0.153164
   9 C :    0.095882
  10 C :   -0.266406
  11 N :    0.031208
  12 C :   -0.266463
  13 N :    0.031252
  14 H :    0.071805
  15 H :    0.093946
  16 H :    0.078405
  17 H :    0.060886
  18 H :    0.060757
  19 H :    0.078340
  20 H :    0.093922
  21 H :    0.071804
  22 H :    0.060810
  23 H :    0.078431
  24 H :    0.071811
  25 H :    0.093961
Sum of atomic charges:   -0.0000000

--------------------------------
MULLIKEN REDUCED ORBITAL CHARGES
--------------------------------
  0 C s       :     2.875526  s :     2.875526
      pz      :     1.022510  p :     2.993258
      px      :     1.001911
      py      :     0.968837
      dz2     :     0.007559  d :     0.035157
      dxz     :     0.005167
      dyz     :     0.007143
      dx2y2   :     0.010017
      dxy     :     0.005272

  1 C s       :     3.044777  s :     3.044777
      pz      :     1.015802  p :     3.082098
      px      :     1.005453
      py      :     1.060843
      dz2     :     0.006622  d :     0.026624
      dxz     :     0.004993
      dyz     :     0.004873
      dx2y2   :     0.007524
      dxy     :     0.002612

  2 P s       :     5.281050  s :     5.281050
      pz      :     2.860630  p :     8.815360
      px      :     2.976232
      py      :     2.978499
      dz2     :     0.095184  d :     0.497183
      dxz     :     0.131994
      dyz     :     0.149106
      dx2y2   :     0.071008
      dxy     :     0.049892

  3 O s       :     3.823225  s :     3.823225
      pz      :     1.342727  p :     4.608209
      px      :     1.630109
      py      :     1.635373
      dz2     :     0.005148  d :     0.012445
      dxz     :     0.003601
      dyz     :     0.003494
      dx2y2   :     0.000087
      dxy     :     0.000114

  4 C s       :     3.044522  s :     3.044522
      pz      :     1.023878  p :     3.081900
      px      :     1.030124
      py      :     1.027898
      dz2     :     0.007461  d :     0.026623
      dxz     :     0.003969
      dyz     :     0.004016
      dx2y2   :     0.004940
      dxy     :     0.006238

  5 C s       :     2.875562  s :     2.875562
      pz      :     1.049980  p :     2.993350
      px      :     0.927501
      py      :     1.015869
      dz2     :     0.008185  d :     0.035157
      dxz     :     0.005851
      dyz     :     0.004584
      dx2y2   :     0.008837
      dxy     :     0.007700

  6 C s       :     3.179430  s :     3.179430
      pz      :     0.959375  p :     3.043287
      px      :     1.094037
      py      :     0.989875
      dz2     :     0.003302  d :     0.043616
      dxz     :     0.012013
      dyz     :     0.003924
      dx2y2   :     0.013862
      dxy     :     0.010515

  7 N s       :     3.575794  s :     3.575794
      pz      :     1.054483  p :     3.362990
      px      :     1.215958
      py      :     1.092550
      dz2     :     0.002875  d :     0.030042
      dxz     :     0.007098
      dyz     :     0.002272
      dx2y2   :     0.009117
      dxy     :     0.008681

  8 C s       :     3.044618  s :     3.044618
      pz      :     1.035536  p :     3.081923
      px      :     1.049615
      py      :     0.996772
      dz2     :     0.004934  d :     0.026623
      dxz     :     0.005462
      dyz     :     0.005866
      dx2y2   :     0.003844
      dxy     :     0.006518

  9 C s       :     2.875491  s :     2.875491
      pz      :     1.030401  p :     2.993469
      px      :     1.010717
      py      :     0.952351
      dz2     :     0.005934  d :     0.035158
      dxz     :     0.007093
      dyz     :     0.006746
      dx2y2   :     0.005343
      dxy     :     0.010043

 10 C s       :     3.179436  s :     3.179436
      pz      :     0.964137  p :     3.043353
      px      :     1.068738
      py      :     1.010477
      dz2     :     0.003633  d :     0.043617
      dxz     :     0.011613
      dyz     :     0.004557
      dx2y2   :     0.013467
      dxy     :     0.010346

 11 N s       :     3.575774  s :     3.575774
      pz      :     1.060138  p :     3.362976
      px      :     1.193305
      py      :     1.109533
      dz2     :     0.003183  d :     0.030042
      dxz     :     0.006827
      dyz     :     0.002720
      dx2y2   :     0.008834
      dxy     :     0.008478

 12 C s       :     3.179503  s :     3.179503
      pz      :     0.960076  p :     3.043343
      px      :     0.958301
      py      :     1.124966
      dz2     :     0.003236  d :     0.043617
      dxz     :     0.000366
      dyz     :     0.015625
      dx2y2   :     0.008969
      dxy     :     0.015420

 13 N s       :     3.575771  s :     3.575771
      pz      :     1.053538  p :     3.362935
      px      :     1.048450
      py      :     1.260946
      dz2     :     0.002978  d :     0.030042
      dxz     :     0.000128
      dyz     :     0.009303
      dx2y2   :     0.008426
      dxy     :     0.009206

 14 H s       :     0.905554  s :     0.905554
      pz      :     0.005514  p :     0.022641
      px      :     0.011869
      py      :     0.005258

 15 H s       :     0.883183  s :     0.883183
      pz      :     0.011265  p :     0.022871
      px      :     0.005417
      py      :     0.006189

 16 H s       :     0.897621  s :     0.897621
      pz      :     0.005162  p :     0.023974
      px      :     0.004937
      py      :     0.013875

 17 H s       :     0.916192  s :     0.916192
      pz      :     0.010383  p :     0.022923
      px      :     0.005362
      py      :     0.007178

 18 H s       :     0.916317  s :     0.916317
      pz      :     0.012110  p :     0.022926
      px      :     0.005529
      py      :     0.005287

 19 H s       :     0.897685  s :     0.897685
      pz      :     0.005189  p :     0.023975
      px      :     0.010890
      py      :     0.007895

 20 H s       :     0.883207  s :     0.883207
      pz      :     0.013254  p :     0.022871
      px      :     0.004966
      py      :     0.004651

 21 H s       :     0.905554  s :     0.905554
      pz      :     0.006208  p :     0.022642
      px      :     0.004269
      py      :     0.012165

 22 H s       :     0.916268  s :     0.916268
      pz      :     0.010537  p :     0.022923
      px      :     0.007118
      py      :     0.005267

 23 H s       :     0.897598  s :     0.897598
      pz      :     0.005748  p :     0.023971
      px      :     0.011976
      py      :     0.006247

 24 H s       :     0.905548  s :     0.905548
      pz      :     0.007129  p :     0.022641
      px      :     0.008346
      py      :     0.007166

 25 H s       :     0.883169  s :     0.883169
      pz      :     0.011578  p :     0.022870
      px      :     0.006056
      py      :     0.005235



                     *******************************
                     * LOEWDIN POPULATION ANALYSIS *
                     *******************************

----------------------
LOEWDIN ATOMIC CHARGES
----------------------
   0 C :   -0.050113
   1 C :   -0.182331
   2 P :    0.857691
   3 O :   -0.483108
   4 C :   -0.182280
   5 C :   -0.050117
   6 C :   -0.039778
   7 N :   -0.074510
   8 C :   -0.182290
   9 C :   -0.050136
  10 C :   -0.039785
  11 N :   -0.074498
  12 C :   -0.039801
  13 N :   -0.074480
  14 H :    0.064684
  15 H :    0.070248
  16 H :    0.047922
  17 H :    0.039004
  18 H :    0.038987
  19 H :    0.047905
  20 H :    0.070245
  21 H :    0.064680
  22 H :    0.038997
  23 H :    0.047923
  24 H :    0.064686
  25 H :    0.070257

-------------------------------
LOEWDIN REDUCED ORBITAL CHARGES
-------------------------------
  0 C s       :     2.828545  s :     2.828545
      pz      :     1.062284  p :     3.129282
      px      :     1.053231
      py      :     1.013767
      dz2     :     0.018359  d :     0.092286
      dxz     :     0.015337
      dyz     :     0.017804
      dx2y2   :     0.028233
      dxy     :     0.012553

  1 C s       :     2.887046  s :     2.887046
      pz      :     1.056639  p :     3.225516
      px      :     1.079778
      py      :     1.089099
      dz2     :     0.015946  d :     0.069769
      dxz     :     0.014430
      dyz     :     0.012697
      dx2y2   :     0.020791
      dxy     :     0.005905

  2 P s       :     4.927678  s :     4.927678
      pz      :     2.783495  p :     8.524155
      px      :     2.869527
      py      :     2.871132
      dz2     :     0.140672  d :     0.690476
      dxz     :     0.176551
      dyz     :     0.205036
      dx2y2   :     0.102099
      dxy     :     0.066117

  3 O s       :     3.653164  s :     3.653164
      pz      :     1.486911  p :     4.810563
      px      :     1.660239
      py      :     1.663413
      dz2     :     0.010600  d :     0.019381
      dxz     :     0.004468
      dyz     :     0.004079
      dx2y2   :     0.000097
      dxy     :     0.000138

  4 C s       :     2.887041  s :     2.887041
      pz      :     1.071945  p :     3.225468
      px      :     1.058178
      py      :     1.095344
      dz2     :     0.018721  d :     0.069771
      dxz     :     0.011074
      dyz     :     0.010697
      dx2y2   :     0.011938
      dxy     :     0.017341

  5 C s       :     2.828548  s :     2.828548
      pz      :     1.077952  p :     3.129283
      px      :     1.002507
      py      :     1.048824
      dz2     :     0.020936  d :     0.092287
      dxz     :     0.015412
      dyz     :     0.011534
      dx2y2   :     0.022227
      dxy     :     0.022178

  6 C s       :     2.928504  s :     2.928504
      pz      :     0.927949  p :     3.007615
      px      :     1.096494
      py      :     0.983173
      dz2     :     0.010287  d :     0.103659
      dxz     :     0.024415
      dyz     :     0.007886
      dx2y2   :     0.031374
      dxy     :     0.029696

  7 N s       :     3.430805  s :     3.430805
      pz      :     1.065721  p :     3.591342
      px      :     1.365367
      py      :     1.160254
      dz2     :     0.006378  d :     0.052364
      dxz     :     0.010239
      dyz     :     0.003294
      dx2y2   :     0.014805
      dxy     :     0.017648

  8 C s       :     2.887044  s :     2.887044
      pz      :     1.074220  p :     3.225476
      px      :     1.098558
      py      :     1.052699
      dz2     :     0.011303  d :     0.069769
      dxz     :     0.014656
      dyz     :     0.016932
      dx2y2   :     0.009895
      dxy     :     0.016984

  9 C s       :     2.828543  s :     2.828543
      pz      :     1.071686  p :     3.129308
      px      :     1.033370
      py      :     1.024251
      dz2     :     0.014085  d :     0.092285
      dxz     :     0.018627
      dyz     :     0.018567
      dx2y2   :     0.013517
      dxy     :     0.027488

 10 C s       :     2.928503  s :     2.928503
      pz      :     0.934219  p :     3.007623
      px      :     1.088905
      py      :     0.984500
      dz2     :     0.010653  d :     0.103659
      dxz     :     0.024171
      dyz     :     0.009698
      dx2y2   :     0.029825
      dxy     :     0.029313

 11 N s       :     3.430804  s :     3.430804
      pz      :     1.075977  p :     3.591330
      px      :     1.352129
      py      :     1.163224
      dz2     :     0.006459  d :     0.052364
      dxz     :     0.010382
      dyz     :     0.004083
      dx2y2   :     0.014199
      dxy     :     0.017242

 12 C s       :     2.928508  s :     2.928508
      pz      :     0.928599  p :     3.007635
      px      :     0.927695
      py      :     1.151341
      dz2     :     0.010136  d :     0.103659
      dxz     :     0.000671
      dyz     :     0.032338
      dx2y2   :     0.029210
      dxy     :     0.031305

 13 N s       :     3.430805  s :     3.430805
      pz      :     1.066410  p :     3.591311
      px      :     1.060189
      py      :     1.464712
      dz2     :     0.006428  d :     0.052364
      dxz     :     0.000177
      dyz     :     0.013642
      dx2y2   :     0.018915
      dxy     :     0.013202

 14 H s       :     0.867597  s :     0.867597
      pz      :     0.015940  p :     0.067719
      px      :     0.037541
      py      :     0.014238

 15 H s       :     0.860185  s :     0.860185
      pz      :     0.036366  p :     0.069568
      px      :     0.015121
      py      :     0.018081

 16 H s       :     0.878700  s :     0.878700
      pz      :     0.014686  p :     0.073378
      px      :     0.015738
      py      :     0.042954

 17 H s       :     0.888379  s :     0.888379
      pz      :     0.034610  p :     0.072617
      px      :     0.017890
      py      :     0.020116

 18 H s       :     0.888400  s :     0.888400
      pz      :     0.040003  p :     0.072613
      px      :     0.016337
      py      :     0.016273

 19 H s       :     0.878718  s :     0.878718
      pz      :     0.013912  p :     0.073378
      px      :     0.033857
      py      :     0.025609

 20 H s       :     0.860188  s :     0.860188
      pz      :     0.042345  p :     0.069567
      px      :     0.014460
      py      :     0.012762

 21 H s       :     0.867601  s :     0.867601
      pz      :     0.017875  p :     0.067719
      px      :     0.011905
      py      :     0.037939

 22 H s       :     0.888389  s :     0.888389
      pz      :     0.035348  p :     0.072614
      px      :     0.020225
      py      :     0.017041

 23 H s       :     0.878699  s :     0.878699
      pz      :     0.016629  p :     0.073377
      px      :     0.037475
      py      :     0.019274

 24 H s       :     0.867595  s :     0.867595
      pz      :     0.021016  p :     0.067720
      px      :     0.024541
      py      :     0.022163

 25 H s       :     0.860177  s :     0.860177
      pz      :     0.036609  p :     0.069567
      px      :     0.017737
      py      :     0.015221



                      *****************************
                      * MAYER POPULATION ANALYSIS *
                      *****************************

  NA   - Mulliken gross atomic population
  ZA   - Total nuclear charge
  QA   - Mulliken gross atomic charge
  VA   - Mayer's total valence
  BVA  - Mayer's bonded valence
  FA   - Mayer's free valence

  ATOM       NA         ZA         QA         VA         BVA        FA
  0 C      5.9039     6.0000     0.0961     4.0851     4.0851    -0.0000
  1 C      6.1535     6.0000    -0.1535     3.9095     3.9095    -0.0000
  2 P     14.5936    15.0000     0.4064     4.9289     4.9289    -0.0000
  3 O      8.4439     8.0000    -0.4439     2.1552     2.1552    -0.0000
  4 C      6.1530     6.0000    -0.1530     3.9094     3.9094    -0.0000
  5 C      5.9041     6.0000     0.0959     4.0852     4.0852    -0.0000
  6 C      6.2663     6.0000    -0.2663     4.2168     4.2168    -0.0000
  7 N      6.9688     7.0000     0.0312     3.1289     3.1289    -0.0000
  8 C      6.1532     6.0000    -0.1532     3.9094     3.9094    -0.0000
  9 C      5.9041     6.0000     0.0959     4.0853     4.0853    -0.0000
 10 C      6.2664     6.0000    -0.2664     4.2170     4.2170     0.0000
 11 N      6.9688     7.0000     0.0312     3.1289     3.1289    -0.0000
 12 C      6.2665     6.0000    -0.2665     4.2169     4.2169    -0.0000
 13 N      6.9687     7.0000     0.0313     3.1289     3.1289    -0.0000
 14 H      0.9282     1.0000     0.0718     0.9843     0.9843    -0.0000
 15 H      0.9061     1.0000     0.0939     1.0048     1.0048    -0.0000
 16 H      0.9216     1.0000     0.0784     1.0117     1.0117    -0.0000
 17 H      0.9391     1.0000     0.0609     0.9852     0.9852    -0.0000
 18 H      0.9392     1.0000     0.0608     0.9853     0.9853    -0.0000
 19 H      0.9217     1.0000     0.0783     1.0117     1.0117    -0.0000
 20 H      0.9061     1.0000     0.0939     1.0049     1.0049     0.0000
 21 H      0.9282     1.0000     0.0718     0.9843     0.9843    -0.0000
 22 H      0.9392     1.0000     0.0608     0.9853     0.9853    -0.0000
 23 H      0.9216     1.0000     0.0784     1.0116     1.0116    -0.0000
 24 H      0.9282     1.0000     0.0718     0.9843     0.9843    -0.0000
 25 H      0.9060     1.0000     0.0940     1.0048     1.0048    -0.0000

  Mayer bond orders larger than 0.100000
B(  0-C ,  1-C ) :   1.0703 B(  0-C , 12-C ) :   1.1134 B(  0-C , 14-H ) :   0.8935 
B(  0-C , 15-H ) :   0.8878 B(  1-C ,  2-P ) :   0.9277 B(  1-C , 16-H ) :   0.9125 
B(  1-C , 17-H ) :   0.9120 B(  2-P ,  3-O ) :   1.9195 B(  2-P ,  4-C ) :   0.9276 
B(  2-P ,  8-C ) :   0.9276 B(  4-C ,  5-C ) :   1.0703 B(  4-C , 18-H ) :   0.9120 
B(  4-C , 19-H ) :   0.9125 B(  5-C ,  6-C ) :   1.1134 B(  5-C , 20-H ) :   0.8878 
B(  5-C , 21-H ) :   0.8935 B(  6-C ,  7-N ) :   2.9933 B(  8-C ,  9-C ) :   1.0703 
B(  8-C , 22-H ) :   0.9120 B(  8-C , 23-H ) :   0.9125 B(  9-C , 10-C ) :   1.1135 
B(  9-C , 24-H ) :   0.8935 B(  9-C , 25-H ) :   0.8878 B( 10-C , 11-N ) :   2.9933 
B( 12-C , 13-N ) :   2.9933 

-------
TIMINGS
-------

Total SCF time: 0 days 0 hours 0 min 6 sec 

Total time                  ....       6.847 sec
Sum of individual times     ....       6.779 sec  ( 99.0%)

SCF preparation             ....       0.087 sec  (  1.3%)
Fock matrix formation       ....       6.119 sec  ( 89.4%)
  Startup                   ....       0.034 sec  (  0.6% of F)
  Split-RI-J                ....       1.914 sec  ( 31.3% of F)
  XC integration            ....       4.027 sec  ( 65.8% of F)
    Basis function eval.    ....       1.128 sec  ( 28.0% of XC)
    Density eval.           ....       0.997 sec  ( 24.8% of XC)
    XC-Functional eval.     ....       0.121 sec  (  3.0% of XC)
    XC-Potential eval.      ....       0.946 sec  ( 23.5% of XC)
Diagonalization             ....       0.000 sec  (  0.0%)
Density matrix formation    ....       0.087 sec  (  1.3%)
Total Energy calculation    ....       0.034 sec  (  0.5%)
Population analysis         ....       0.055 sec  (  0.8%)
Orbital Transformation      ....       0.045 sec  (  0.7%)
Orbital Orthonormalization  ....       0.000 sec  (  0.0%)
DIIS solution               ....       0.190 sec  (  2.8%)
SOSCF solution              ....       0.162 sec  (  2.4%)
Finished LeanSCF after   6.9 sec

Maximum memory used throughout the entire LEANSCF-calculation: 25.4 MB


-------------------------------------------------------------------------------
                          DFT DISPERSION CORRECTION                            
                                                                               
                              DFTD3 V3.1  Rev 1                                
                          USING Becke-Johnson damping                          
-------------------------------------------------------------------------------
The BP86 functional is recognized
Active option DFTDOPT                   ...         4   

molecular C6(AA) [au] = 8573.645994 


            DFT-D V3
 parameters
 s6 scaling factor         :     1.0000 
 a1 scaling factor         :     0.3946 
 s8 scaling factor         :     3.2822 
 a2 scaling factor         :     4.8516 
 ad hoc parameters k1-k3   :    16.0000     1.3333    -4.0000 

 Edisp/kcal,au: -34.622086821127  -0.055173801447 
 E6   /kcal   : -12.713164472 
 E8   /kcal   : -21.908922349 
 % E8         :  63.280190078 

-------------------------   ----------------
Dispersion correction           -0.055173801
-------------------------   ----------------


-------------------------   --------------------
FINAL SINGLE POINT ENERGY      -930.534639948898
-------------------------   --------------------



           ************************************************************
           *        Program running with 6 parallel MPI-processes     *
           *              working on a common directory               *
           ************************************************************
------------------------------------------------------------------------------
                         ORCA SCF GRADIENT CALCULATION
------------------------------------------------------------------------------

Nuc. rep. gradient        (SHARK) ... done (  0.0 sec)
HCore & Overlap gradient  (SHARK) ... done (  0.1 sec)
Split-RIJ-J gradient      (SHARK) ... done (  0.5 sec)
XC gradient                       ... done (  2.3 sec)
Dispersion correction             ... done (  0.1 sec)

-------------------
DISPERSION GRADIENT
-------------------

   1   C   :    0.000682198   -0.000014846    0.000160593
   2   C   :    0.000671700   -0.000026727   -0.000187253
   3   P   :    0.000037007   -0.000009428   -0.000266235
   4   O   :   -0.000105783    0.000026954    0.000760967
   5   C   :   -0.000295549   -0.000554796   -0.000303004
   6   C   :   -0.000372029   -0.000593132    0.000034529
   7   C   :   -0.000763072   -0.000607525    0.000079175
   8   N   :   -0.001067997   -0.000258243    0.000070601
   9   C   :   -0.000261096    0.000552206   -0.000337428
  10   C   :   -0.000336825    0.000614769   -0.000003364
  11   C   :   -0.000175120    0.000956995    0.000105490
  12   N   :    0.000267589    0.001047180    0.000210026
  13   C   :    0.000871290   -0.000332424    0.000296622
  14   N   :    0.000714634   -0.000767079    0.000336425
  15   H   :    0.000310016    0.000065812    0.000022581
  16   H   :    0.000297252    0.000037728    0.000214572
  17   H   :    0.000297469    0.000106359   -0.000160186
  18   H   :    0.000253627    0.000024057   -0.000249842
  19   H   :   -0.000040530   -0.000214475   -0.000282284
  20   H   :   -0.000012288   -0.000299392   -0.000188874
  21   H   :   -0.000158468   -0.000290163    0.000162836
  22   H   :   -0.000095561   -0.000302305   -0.000020759
  23   H   :   -0.000096948    0.000160822   -0.000303420
  24   H   :   -0.000204368    0.000172441   -0.000232287
  25   H   :   -0.000207024    0.000234599   -0.000055272
  26   H   :   -0.000210123    0.000270613    0.000135791

Difference to translation invariance:
           :    0.0000000000   -0.0000000000   -0.0000000000

Difference to rotation invariance:
           :   -0.0000000000    0.0000000000    0.0000000000

Norm of the Dispersion gradient    ...    0.0034024829
RMS gradient                       ...    0.0003852553
MAX gradient                       ...    0.0010679971

------------------
CARTESIAN GRADIENT
------------------

   1   C   :    0.002509200    0.010502194    0.001161546
   2   C   :   -0.012405951   -0.005057671    0.008081134
   3   P   :    0.001409688   -0.000333539   -0.010050962
   4   O   :    0.003526318   -0.000885534   -0.025244069
   5   C   :   -0.000314232    0.012702856    0.009101240
   6   C   :    0.007483037   -0.007521633    0.002475492
   7   C   :   -0.020918496    0.014936656   -0.004097453
   8   N   :    0.021583421   -0.013580385    0.001994809
   9   C   :    0.008859556   -0.006767040    0.011223129
  10   C   :   -0.010443153   -0.002892041   -0.000146945
  11   C   :    0.023551222    0.010920794    0.002209917
  12   N   :   -0.022189735   -0.012025364   -0.004145558
  13   C   :   -0.002317358   -0.025954313   -0.000064872
  14   N   :    0.001205522    0.025459867   -0.002222312
  15   H   :   -0.008912734   -0.001247141    0.001745468
  16   H   :    0.003733380   -0.002565143   -0.008571397
  17   H   :    0.000671788   -0.010224221    0.000875226
  18   H   :   -0.002670214    0.004076517    0.008638372
  19   H   :    0.002702786   -0.000300283    0.009521646
  20   H   :   -0.009241196    0.004447478   -0.000978521
  21   H   :   -0.001962755   -0.001351147   -0.009392450
  22   H   :    0.002729460    0.008217364    0.003032009
  23   H   :   -0.003826432   -0.002750419    0.008676353
  24   H   :    0.008343058    0.005859243    0.001325743
  25   H   :    0.004982993   -0.006656803    0.003866770
  26   H   :    0.001910828    0.002989710   -0.009014315

Difference to translation invariance:
           :    0.0000000000   -0.0000000000    0.0000000000

Difference to rotation invariance:
           :    0.0000928787    0.0001078466    0.0002473745

Norm of the Cartesian gradient     ...    0.0836113433
RMS gradient                       ...    0.0094671204
MAX gradient                       ...    0.0259543130

-------
TIMINGS
-------

Total SCF gradient time     ....        3.007 sec

Densities                   ....       0.001 sec  (  0.0%)
One electron gradient       ....       0.130 sec  (  4.3%)
RI-J Coulomb gradient       ....       0.509 sec  ( 16.9%)
XC gradient                 ....       2.308 sec  ( 76.8%)

Maximum memory used throughout the entire SCFGRAD-calculation: 33.7 MB
------------------------------------------------------------------------------
                         ORCA GEOMETRY RELAXATION STEP
------------------------------------------------------------------------------

Reading the OPT-File                    .... done
Getting information on internals        .... done
Copying old internal coords+grads       .... done
Making the new internal coordinates     .... (2022 redundants) done
Validating the new internal coordinates .... (2022 redundants) done
Calculating the B-matrix                .... done
Calculating the G,G- and P matrices     .... done
Transforming gradient to internals      .... done
Projecting the internal gradient        .... done
Number of atoms                         ....  26
Number of internal coordinates          .... 112
Current Energy                          ....  -930.534639949 Eh
Current gradient norm                   ....     0.083611343 Eh/bohr
Maximum allowed component of the step   ....  0.300
Current trust radius                    ....  0.300
Evaluating the initial hessian          ....  (Almloef) done
Projecting the Hessian                  .... done
Forming the augmented Hessian           .... done
Diagonalizing the augmented Hessian     .... done
Last element of RFO vector              ....  0.940255598
Lowest eigenvalues of augmented Hessian:
 -0.012053415  0.004746310  0.004746317  0.006494704  0.011483229
Length of the computed step             ....  0.362103026
Warning: the length of the step is outside the trust region - taking restricted step instead
The input lambda is                     ....     0.003746
   iter:   5  x=   -0.002611  g=  484.289846 f(x)=     1.144947
   iter:  10  x=   -0.016552  g=    6.846326 f(x)=     0.003449
The output lambda is                    ....    -0.016570 (14 iterations)
The final length of the internal step   ....  0.300000000
Converting the step to Cartesian space:
 Initial RMS(Int)=    0.0283473355
Transforming coordinates:
[...]
      dz2     :     0.018177  d :     0.065076
      dxz     :     0.012938
      dyz     :     0.008613
      dx2y2   :     0.018957
      dxy     :     0.006392

  2 P s       :     4.975341  s :     4.975341
      pz      :     2.779548  p :     8.521929
      px      :     2.870374
      py      :     2.872008
      dz2     :     0.131071  d :     0.631734
      dxz     :     0.164728
      dyz     :     0.186585
      dx2y2   :     0.090297
      dxy     :     0.059053

  3 O s       :     3.669622  s :     3.669622
      pz      :     1.471498  p :     4.804946
      px      :     1.664908
      py      :     1.668540
      dz2     :     0.010207  d :     0.018456
      dxz     :     0.004200
      dyz     :     0.003825
      dx2y2   :     0.000095
      dxy     :     0.000128

  4 C s       :     2.907401  s :     2.907401
      pz      :     1.069254  p :     3.210486
      px      :     1.048421
      py      :     1.092810
      dz2     :     0.019575  d :     0.065072
      dxz     :     0.009766
      dyz     :     0.008190
      dx2y2   :     0.012437
      dxy     :     0.015105

  5 C s       :     2.840155  s :     2.840155
      pz      :     1.077381  p :     3.132745
      px      :     0.998974
      py      :     1.056390
      dz2     :     0.022896  d :     0.089648
      dxz     :     0.014894
      dyz     :     0.006969
      dx2y2   :     0.024473
      dxy     :     0.020416

  6 C s       :     2.932229  s :     2.932229
      pz      :     0.937078  p :     3.000567
      px      :     1.090389
      py      :     0.973099
      dz2     :     0.012018  d :     0.102313
      dxz     :     0.024523
      dyz     :     0.007910
      dx2y2   :     0.029536
      dxy     :     0.028327

  7 N s       :     3.439613  s :     3.439613
      pz      :     1.086279  p :     3.587972
      px      :     1.352083
      py      :     1.149610
      dz2     :     0.006319  d :     0.051041
      dxz     :     0.010890
      dyz     :     0.003631
      dx2y2   :     0.013831
      dxy     :     0.016369

  8 C s       :     2.907406  s :     2.907406
      pz      :     1.067327  p :     3.210435
      px      :     1.104679
      py      :     1.038429
      dz2     :     0.014676  d :     0.065068
      dxz     :     0.009599
      dyz     :     0.015116
      dx2y2   :     0.009917
      dxy     :     0.015762

  9 C s       :     2.840187  s :     2.840187
      pz      :     1.076187  p :     3.132709
      px      :     1.035615
      py      :     1.020907
      dz2     :     0.019169  d :     0.089637
      dxz     :     0.011074
      dyz     :     0.015879
      dx2y2   :     0.014549
      dxy     :     0.028966

 10 C s       :     2.932224  s :     2.932224
      pz      :     0.927482  p :     3.000554
      px      :     1.088250
      py      :     0.984822
      dz2     :     0.009856  d :     0.102315
      dxz     :     0.023277
      dyz     :     0.008991
      dx2y2   :     0.030500
      dxy     :     0.029690

 11 N s       :     3.439613  s :     3.439613
      pz      :     1.068979  p :     3.588002
      px      :     1.352320
      py      :     1.166703
      dz2     :     0.006231  d :     0.051039
      dxz     :     0.009406
      dyz     :     0.003535
      dx2y2   :     0.014254
      dxy     :     0.017614

 12 C s       :     2.932211  s :     2.932211
      pz      :     0.926231  p :     3.000568
      px      :     0.923954
      py      :     1.150384
      dz2     :     0.009963  d :     0.102321
      dxz     :     0.000256
      dyz     :     0.031639
      dx2y2   :     0.029083
      dxy     :     0.031380

 13 N s       :     3.439617  s :     3.439617
      pz      :     1.066662  p :     3.587964
      px      :     1.061607
      py      :     1.459695
      dz2     :     0.006252  d :     0.051042
      dxz     :     0.000041
      dyz     :     0.012937
      dx2y2   :     0.018913
      dxy     :     0.012900

 14 H s       :     0.865722  s :     0.865722
      pz      :     0.013588  p :     0.065678
      px      :     0.036815
      py      :     0.015275

 15 H s       :     0.859781  s :     0.859781
      pz      :     0.038791  p :     0.068340
      px      :     0.016562
      py      :     0.012987

 16 H s       :     0.875636  s :     0.875636
      pz      :     0.012080  p :     0.072971
      px      :     0.014532
      py      :     0.046359

 17 H s       :     0.888700  s :     0.888700
      pz      :     0.037294  p :     0.069931
      px      :     0.016447
      py      :     0.016190

 18 H s       :     0.888728  s :     0.888728
      pz      :     0.041595  p :     0.069918
      px      :     0.013238
      py      :     0.015086

 19 H s       :     0.875631  s :     0.875631
      pz      :     0.013032  p :     0.073002
      px      :     0.034939
      py      :     0.025031

 20 H s       :     0.859804  s :     0.859804
      pz      :     0.043939  p :     0.068328
      px      :     0.011838
      py      :     0.012551

 21 H s       :     0.865730  s :     0.865730
      pz      :     0.014529  p :     0.065675
      px      :     0.010951
      py      :     0.040195

 22 H s       :     0.888698  s :     0.888698
      pz      :     0.038233  p :     0.069918
      px      :     0.017265
      py      :     0.014420

 23 H s       :     0.875640  s :     0.875640
      pz      :     0.013046  p :     0.072989
      px      :     0.040443
      py      :     0.019500

 24 H s       :     0.865768  s :     0.865768
      pz      :     0.017198  p :     0.065679
      px      :     0.027793
      py      :     0.020688

 25 H s       :     0.859792  s :     0.859792
      pz      :     0.041105  p :     0.068353
      px      :     0.012950
      py      :     0.014298



                      *****************************
                      * MAYER POPULATION ANALYSIS *
                      *****************************

  NA   - Mulliken gross atomic population
  ZA   - Total nuclear charge
  QA   - Mulliken gross atomic charge
  VA   - Mayer's total valence
  BVA  - Mayer's bonded valence
  FA   - Mayer's free valence

  ATOM       NA         ZA         QA         VA         BVA        FA
  0 C      5.9431     6.0000     0.0569     4.0668     4.0668    -0.0000
  1 C      6.1651     6.0000    -0.1651     3.9004     3.9004    -0.0000
  2 P     14.5681    15.0000     0.4319     4.7869     4.7869    -0.0000
  3 O      8.4578     8.0000    -0.4578     2.1360     2.1360    -0.0000
  4 C      6.1654     6.0000    -0.1654     3.9006     3.9006    -0.0000
  5 C      5.9430     6.0000     0.0570     4.0671     4.0671    -0.0000
  6 C      6.2400     6.0000    -0.2400     4.1730     4.1730    -0.0000
  7 N      6.9847     7.0000     0.0153     3.1060     3.1060    -0.0000
  8 C      6.1655     6.0000    -0.1655     3.9003     3.9003    -0.0000
  9 C      5.9432     6.0000     0.0568     4.0670     4.0670    -0.0000
 10 C      6.2399     6.0000    -0.2399     4.1729     4.1729    -0.0000
 11 N      6.9847     7.0000     0.0153     3.1060     3.1060    -0.0000
 12 C      6.2400     6.0000    -0.2400     4.1728     4.1728    -0.0000
 13 N      6.9848     7.0000     0.0152     3.1059     3.1059    -0.0000
 14 H      0.9179     1.0000     0.0821     0.9814     0.9814    -0.0000
 15 H      0.9014     1.0000     0.0986     1.0101     1.0101    -0.0000
 16 H      0.9088     1.0000     0.0912     1.0248     1.0248    -0.0000
 17 H      0.9300     1.0000     0.0700     0.9815     0.9815    -0.0000
 18 H      0.9300     1.0000     0.0700     0.9814     0.9814    -0.0000
 19 H      0.9089     1.0000     0.0911     1.0250     1.0250    -0.0000
 20 H      0.9015     1.0000     0.0985     1.0101     1.0101    -0.0000
 21 H      0.9180     1.0000     0.0820     0.9814     0.9814    -0.0000
 22 H      0.9299     1.0000     0.0701     0.9815     0.9815    -0.0000
 23 H      0.9088     1.0000     0.0912     1.0249     1.0249    -0.0000
 24 H      0.9179     1.0000     0.0821     0.9814     0.9814    -0.0000
 25 H      0.9014     1.0000     0.0986     1.0101     1.0101    -0.0000

  Mayer bond orders larger than 0.100000
B(  0-C ,  1-C ) :   1.0690 B(  0-C , 12-C ) :   1.1208 B(  0-C , 14-H ) :   0.8905 
B(  0-C , 15-H ) :   0.8868 B(  1-C ,  2-P ) :   0.9100 B(  1-C , 16-H ) :   0.9084 
B(  1-C , 17-H ) :   0.9170 B(  2-P ,  3-O ) :   1.8513 B(  2-P ,  4-C ) :   0.9101 
B(  2-P ,  8-C ) :   0.9100 B(  4-C ,  5-C ) :   1.0691 B(  4-C , 18-H ) :   0.9170 
B(  4-C , 19-H ) :   0.9083 B(  5-C ,  6-C ) :   1.1208 B(  5-C , 20-H ) :   0.8868 
B(  5-C , 21-H ) :   0.8905 B(  6-C ,  7-N ) :   2.9488 B(  8-C ,  9-C ) :   1.0689 
B(  8-C , 22-H ) :   0.9170 B(  8-C , 23-H ) :   0.9084 B(  9-C , 10-C ) :   1.1207 
B(  9-C , 24-H ) :   0.8906 B(  9-C , 25-H ) :   0.8868 B( 10-C , 11-N ) :   2.9490 
B( 12-C , 13-N ) :   2.9487 

-------
TIMINGS
-------

Total SCF time: 0 days 0 hours 0 min 3 sec 

Total time                  ....       3.598 sec
Sum of individual times     ....       3.538 sec  ( 98.3%)

SCF preparation             ....       0.092 sec  (  2.6%)
Fock matrix formation       ....       3.135 sec  ( 87.1%)
  Startup                   ....       0.022 sec  (  0.7% of F)
  Split-RI-J                ....       1.009 sec  ( 32.2% of F)
  XC integration            ....       2.024 sec  ( 64.6% of F)
    Basis function eval.    ....       0.615 sec  ( 30.4% of XC)
    Density eval.           ....       0.551 sec  ( 27.2% of XC)
    XC-Functional eval.     ....       0.076 sec  (  3.8% of XC)
    XC-Potential eval.      ....       0.379 sec  ( 18.7% of XC)
Diagonalization             ....       0.000 sec  (  0.0%)
Density matrix formation    ....       0.043 sec  (  1.2%)
Total Energy calculation    ....       0.020 sec  (  0.6%)
Population analysis         ....       0.067 sec  (  1.9%)
Orbital Transformation      ....       0.019 sec  (  0.5%)
Orbital Orthonormalization  ....       0.000 sec  (  0.0%)
DIIS solution               ....       0.025 sec  (  0.7%)
SOSCF solution              ....       0.137 sec  (  3.8%)
Finished LeanSCF after   3.6 sec

Maximum memory used throughout the entire LEANSCF-calculation: 26.7 MB


-------------------------------------------------------------------------------
                          DFT DISPERSION CORRECTION                            
                                                                               
                              DFTD3 V3.1  Rev 1                                
                          USING Becke-Johnson damping                          
-------------------------------------------------------------------------------
The BP86 functional is recognized
Active option DFTDOPT                   ...         4   

molecular C6(AA) [au] = 8577.845936 


            DFT-D V3
 parameters
 s6 scaling factor         :     1.0000 
 a1 scaling factor         :     0.3946 
 s8 scaling factor         :     3.2822 
 a2 scaling factor         :     4.8516 
 ad hoc parameters k1-k3   :    16.0000     1.3333    -4.0000 

 Edisp/kcal,au: -34.113072464865  -0.054362635523 
 E6   /kcal   : -12.533090495 
 E8   /kcal   : -21.579981970 
 % E8         :  63.260153399 

-------------------------   ----------------
Dispersion correction           -0.054362636
-------------------------   ----------------


-------------------------   --------------------
FINAL SINGLE POINT ENERGY      -930.544856439042
-------------------------   --------------------

                                *** OPTIMIZATION RUN DONE ***



           ************************************************************
           *        Program running with 6 parallel MPI-processes     *
           *              working on a common directory               *
           ************************************************************

------------------------------------------------------------------------------
                              ORCA PROPERTY CALCULATIONS
------------------------------------------------------------------------------

GBWName                                 ... data/geom_opt_PO_BP86/77639/77639.gbw
Number of atoms                         ...     26
Number of basis functions               ...    260
Max core memory                         ...   1024 MB

Electric properties:
Dipole moment                           ... YES
Quadrupole moment                       ...  NO
Static polarizability (Dipole/Dipole)   ...  NO
Static polarizability (Dipole/Quad.)    ...  NO
Static polarizability (Quad./Quad.)     ...  NO
Static polarizability (Velocity)        ...  NO

Atomic electric properties:
Dipole moment                           ...  NO
Quadrupole moment                       ...  NO
Static polarizability                   ...  NO

Choice of electric origin               ... Center of mass
Position of electric origin             ...    -0.043958     0.011601     0.316757

General magnetic properties:
Magnetizability                         ...  NO

EPR properties:
g-Tensor (aka g-matrix)                 ...  NO
Zero-Field splitting spin-orbit         ...  NO
Zero-field splitting spin-spin          ...  NO
Hyperfine couplings                     ...  NO (   0 nuclei)
Quadrupole couplings                    ...  NO (   0 nuclei)
Contact density                         ...  NO (   0 nuclei)

NMR properties:
Chemical shifts                         ...  NO (   0 nuclei)
Spin-rotation constants                 ...  NO (   0 nuclei)
Spin-spin couplings                     ...  NO (   0 nuclei,    0 pairs)

Choice of magnetic origin               ... GIAO
Position of magnetic origin             ...     0.000000     0.000000     0.000000

Properties with geometric perturbations:
SCF Hessian                             ...  NO
IR spectrum                             ...  NO
VCD spectrum                            ...  NO
X-ray spectroscopy properties:
SCF XES/XAS/RIXS spectra                ...  NO


-------------
DIPOLE MOMENT
-------------

Method             : SCF
Type of density    : Electron Density
Multiplicity       :   1
Irrep              :   0
Energy             :  -930.4904938035189161 Eh
Relativity type    : 
Basis              : AO
                                X                 Y                 Z
Electronic contribution:     -0.388587345       0.103307725       2.801318563
Nuclear contribution   :      0.551115018      -0.145342454      -3.971150074
                        -----------------------------------------
Total Dipole Moment    :      0.162527674      -0.042034729      -1.169831511
                        -----------------------------------------
Magnitude (a.u.)       :      1.181815522
Magnitude (Debye)      :      3.003936330



--------------------
Rotational spectrum 
--------------------
 
Rotational constants in cm-1:             0.020022             0.020007             0.010943 
Rotational constants in MHz :           600.239705           599.790863           328.060871 

Dipole components along the rotational axes: 
x,y,z [a.u.] :    -0.000460    -0.001056    -1.181815 
x,y,z [Debye]:    -0.001169    -0.002684    -3.003935 

 

Dipole moment calculation done in   0.0 sec 

Maximum memory used throughout the entire PROP-calculation: 13.4 MB

--------------------------------
SUGGESTED CITATIONS FOR THIS RUN
--------------------------------

Below you find a list of papers that are relevant to this ORCA run
We neither can nor want to force you to cite these papers, but we appreciate if you do
You receive ORCA, which is the product of decades of hard work by many enthusiastic individuals, for free
The only thing we kindly ask in return is that you cite our papers,
We deeply appreciate it, if you show your appreciation for ORCA by not just citing the generic ORCA reference.

Please note that relegating all ORCA citations to the supporting information does *not* help us.
SI sections are not indexed - citations you put there will not count into any citation statistics
But we need these citations in order to attract the funding resources that allow us to do what we are doing

Therefore, if you are a happy ORCA user, please consider citing a few of the papers listed below in the main body of your paper

In addition to the list printed below, the program has created the file data/geom_opt_PO_BP86/77639/77639.bibtex that contains the list in bibtex format
You can import this file easily into all common literature databanks and citation aid programs


List of essential papers. We consider these as the minimum necessary citations

  1. Neese,F.
     Software update: the ORCA program system, version 5.0
     WIRES Comput. Molec. Sci., 2022 12(1)e1606
     doi.org/10.1002/wcms.1606

List of papers to cite with high priority. The work reported in these papers was absolutely
necessary for this run to complete.
Our perspective: the developers of density functionals and basis sets usually get cited in chemistry papers
Good! But without the algorithms to do something with them, the functionals or basis sets would not do anything.
Hence, in our opinion, the algorithm design and method developments papers are equally worthy of getting cited

  1. Neese,F.
     An improvement of the resolution of the identity approximation for the formation of the Coulomb matrix
     J. Comp. Chem., 2003 24(14)1740-1747
     doi.org/10.1002/jcc.10318
  2. Neese,F.
     The SHARK Integral Generation and Digestion System
     J. Comp. Chem., 2022  1-16
     doi.org/10.1002/jcc.26942
  3. Grimme,S.; Antony,J.; Ehrlich,S.; Krieg,H.
     A consistent and accurate ab initio parametrization of density functional dispersion correction (DFT-D) for the 94 elements H-Pu
     J. Chem. Phys., 2010 132 154104-XXXX
     doi.org/10.1063/1.3382344
  4. Grimme,S.; Ehrlich,S.; Goerigk,L.
     Effect of the damping function in dispersion corrected density functional theory
     J. Comput. Chem., 2011 32(7)1456-1465
     doi.org/10.1002/jcc.21759

List of suggested additional citations. These are papers that are important in the 'surrounding' of 
of this run, or papers that preceded the highly important papers. If you like your results we are grateful for a citation.

  1. Neese,F.
     The ORCA program system
     WIRES Comput. Molec. Sci., 2012 2(1)73-78
     doi.org/10.1002/wcms.81
  2. Neese,F.
     Software update: the ORCA program system, version 4.0
     WIRES Comput. Molec. Sci., 2018 8(1)1-6
     doi.org/10.1002/wcms.1327
  3. Neese,F.; Wennmohs,F.; Becker,U.; Riplinger,C.
     The ORCA quantum chemistry program package
     J. Chem. Phys., 2020 152 Art. No. L224108
     doi.org/10.1063/5.0004608

List of optional additional citations

  1. Neese,F.
     Approximate second-order SCF convergence for spin unrestricted wavefunctions
     Chem. Phys. Lett., 2000 325(1-3)93-98
     doi.org/10.1016/s0009-2614(00)00662-x

Timings for individual modules:

Sum of individual times          ...      135.723 sec (=   2.262 min)
Startup calculation              ...       12.796 sec (=   0.213 min)   9.4 %
SCF iterations                   ...       77.910 sec (=   1.299 min)  57.4 %
Property calculations            ...        0.157 sec (=   0.003 min)   0.1 %
SCF Gradient evaluation          ...       44.720 sec (=   0.745 min)  32.9 %
Geometry relaxation              ...        0.140 sec (=   0.002 min)   0.1 %
                             ****ORCA TERMINATED NORMALLY****
TOTAL RUN TIME: 0 days 0 hours 2 minutes 18 seconds 461 msec
