
                                 *****************
                                 * O   R   C   A *
                                 *****************

                                            #,                                       
                                            ###                                      
                                            ####                                     
                                            #####                                    
                                            ######                                   
                                           ########,                                 
                                     ,,################,,,,,                         
                               ,,#################################,,                 
                          ,,##########################################,,             
                       ,#########################################, ''#####,          
                    ,#############################################,,   '####,        
                  ,##################################################,,,,####,       
                ,###########''''           ''''###############################       
              ,#####''   ,,,,##########,,,,          '''####'''          '####       
            ,##' ,,,,###########################,,,                        '##       
           ' ,,###''''                  '''############,,,                           
         ,,##''                                '''############,,,,        ,,,,,,###''
      ,#''                                            '''#######################'''  
     '                                                          ''''####''''         
             ,#######,   #######,   ,#######,      ##                                
            ,#'     '#,  ##    ##  ,#'     '#,    #''#        ,####,   ,####,        
            ##       ##  ##   ,#'  ##            #'  '#       #'       #'  '#        
            ##       ##  #######   ##           ,######,      #####,   #    #        
            '#,     ,#'  ##    ##  '#,     ,#' ,#      #,     #,   #   #,  ,#        
             '#######'   ##     ##  '#######'  #'      '#     '####' # '####'        



                #########################################################
                #                        -***-                          #
                #          Department of theory and spectroscopy        #
                #                                                       #
                #                      Frank Neese                      #
                #                                                       #
                #     Directorship, Architecture, Infrastructure        #
                #                    SHARK, DRIVERS                     #
                #        Core code/Algorithms in most modules           #
                #                                                       #
                #        Max Planck Institute fuer Kohlenforschung      #
                #                Kaiser Wilhelm Platz 1                 #
                #                 D-45470 Muelheim/Ruhr                 #
                #                      Germany                          #
                #                                                       #
                #                  All rights reserved                  #
                #                        -***-                          #
                #########################################################


                         Program Version 6.0.0  -   RELEASE   -


 With contributions from (in alphabetic order):
   Daniel Aravena         : Magnetic Suceptibility
   Michael Atanasov       : Ab Initio Ligand Field Theory (pilot matlab implementation)
   Alexander A. Auer      : GIAO ZORA, VPT2 properties, NMR spectrum
   Ute Becker             : All parallelization in ORCA, NUMFREQ, NUMCALC
   Giovanni Bistoni       : ED, misc. LED, open-shell LED, HFLD
   Martin Brehm           : Molecular dynamics
   Dmytro Bykov           : pre 5.0 version of the SCF Hessian
   Marcos Casanova-Páez   : Triplet and SCS-CIS(D). UHF-(DLPNO)-IP/EA/STEOM-CCSD. UHF-CVS-IP/STEOM-CCSD
   Vijay G. Chilkuri      : MRCI spin determinant printing, contributions to CSF-ICE
   Pauline Colinet        : FMM embedding
   Dipayan Datta          : RHF DLPNO-CCSD density
   Achintya Kumar Dutta   : EOM-CC, STEOM-CC
   Nicolas Foglia         : Exact transition moments, OPA infrastructure, MCD improvements
   Dmitry Ganyushin       : Spin-Orbit,Spin-Spin,Magnetic field MRCI
   Miquel Garcia          : C-PCM and meta-GGA Hessian, CCSD/C-PCM, Gaussian charge scheme
   Tiago L. C. Gouveia    : GS-ROHF, GS-ROCIS
   Yang Guo               : DLPNO-NEVPT2, F12-NEVPT2, CIM, IAO-localization
   Andreas Hansen         : Spin unrestricted coupled pair/coupled cluster methods
   Ingolf Harden          : AUTO-CI MPn and infrastructure 
   Benjamin Helmich-Paris : MC-RPA, TRAH-(SCF,CASSCF), AVAS, COSX integrals, SCF dyn. polar.
   Lee Huntington         : MR-EOM, pCC
   Robert Izsak           : Overlap fitted RIJCOSX, COSX-SCS-MP3, EOM
   Riya Kayal             : Wick's Theorem for AUTO-CI, AUTO-CI UHF-CCSDT
   Emily Kempfer          : AUTO-CI, RHF CISDT and CCSDT
   Christian Kollmar      : KDIIS, OOCD, Brueckner-CCSD(T), CCSD density, CASPT2, CASPT2-K, improved NEVPT2
   Axel Koslowski         : Symmetry handling
   Simone Kossmann        : Meta GGA functionals, TD-DFT gradient, OOMP2, (MP2 Hessian; deprecated post 5.0)
   Lucas Lang             : DCDCAS
   Marvin Lechner         : AUTO-CI (C++ implementation), FIC-MRCC
   Spencer Leger          : CASSCF response
   Dagmar Lenk            : GEPOL surface, SMD, ORCA-2-JSON
   Dimitrios Liakos       : Extrapolation schemes; Compound Job, initial MDCI parallelization
   Dimitrios Manganas     : Further ROCIS development; embedding schemes. LFT, Crystal Embedding
   Dimitrios Pantazis     : SARC Basis sets
   Anastasios Papadopoulos: AUTO-CI, single reference methods and gradients
   Taras Petrenko         : pre 6.0 DFT Hessian and TD-DFT gradient, (ASA, deprecated), ECA, 1-Electron XAS/XES, NRVS
   Peter Pinski           : DLPNO-MP2, DLPNO-MP2 Gradient
   Christoph Reimann      : Effective Core Potentials
   Marius Retegan         : Local ZFS, SOC
   Christoph Riplinger    : Optimizer, TS searches, QM/MM, DLPNO-CCSD(T), (RO)-DLPNO pert. Triples
   Michael Roemelt        : Original ROCIS implementation
   Masaaki Saitow         : Open-shell DLPNO-CCSD energy and density
   Barbara Sandhoefer     : DKH picture change effects
   Kantharuban Sivalingam : CASSCF convergence/infrastructure, NEVPT2 and variants, FIC-MRCI
   Bernardo de Souza      : ESD, SOC TD-DFT
   Georgi Stoychev        : AutoAux, RI-MP2 NMR, DLPNO-MP2 response, X2C
   Van Anh Tran           : RI-MP2 g-tensors
   Willem Van den Heuvel  : Paramagnetic NMR
   Zikuan Wang            : NOTCH, Electric field optimization 
   Frank Wennmohs         : Technical directorship and infrastructure
   Hang Xu                : AUTO-CI-Response properties 


 We gratefully acknowledge several colleagues who have allowed us to
 interface, adapt or use parts of their codes:
   Stefan Grimme, W. Hujo, H. Kruse, P. Pracht,  : VdW corrections, initial TS optimization,
                  C. Bannwarth, S. Ehlert,         DFT functionals, gCP, sTDA/sTD-DF
                  L. Wittmann, M. Mueller
   Ed Valeev, F. Pavosevic, A. Kumar             : LibInt (2-el integral package), F12 methods
   Garnet Chan, S. Sharma, J. Yang, R. Olivares  : DMRG
   Ulf Ekstrom                                   : XCFun DFT Library
   Mihaly Kallay                                 : mrcc  (arbitrary order and MRCC methods)
   Frank Weinhold                                : gennbo (NPA and NBO analysis)
   Simon Mueller                                 : openCOSMO-RS
   Christopher J. Cramer and Donald G. Truhlar   : smd solvation model
   Lars Goerigk                                  : TD-DFT with DH, B97 family of functionals
   V. Asgeirsson, H. Jonsson                     : NEB implementation
   FAccTs GmbH                                   : IRC, NEB, NEB-TS, DLPNO-Multilevel, CI-OPT
                                                   MM, QMMM, 2- and 3-layer-ONIOM, Crystal-QMMM,
                                                   LR-CPCM, SF, NACMEs, symmetry and pop. for TD-DFT,
                                                   nearIR, NL-DFT gradient (VV10), updates on ESD,
                                                   ML-optimized integration grids, MBIS, APM,
                                                   GOAT, DOCKER, SOLVATOR, interface openCOSMO-RS
   S Lehtola, MJT Oliveira, MAL Marques          : LibXC Library
   Liviu Ungur et al                             : ANISO software


 Your calculation uses the libint2 library for the computation of 2-el integrals
 For citations please refer to: http://libint.valeyev.net

 Your ORCA version has been built with support for libXC version: 6.2.2
 For citations please refer to: https://libxc.gitlab.io

 This ORCA versions uses:
   CBLAS   interface :  Fast vector & matrix operations
   LAPACKE interface :  Fast linear algebra routines
   Shared memory     :  Shared parallel matrices


Your calculation utilizes the atom-pairwise dispersion correction
with the zero-damping scheme (D30)


XCFun DFT library Copyright 2009-2010 Ulf Ekstrom and contributors.
See http://admol.org/xcfun for more information.
This is free software; see the source code for copying conditions.
There is ABSOLUTELY NO WARRANTY; not even for MERCHANTABILITY or FITNESS FOR A PARTICULAR PURPOSE.
For details see the documentation.
Scientific users of this library should cite U. Ekstrom, L. Visscher, R. Bast, A. J. Thorvaldsen and K. Ruud;
J.Chem.Theor.Comp. 2010, DOI: 10.1021/ct100117s
XCFun Version 0.99 

Warning: RI is on but no J-basis has been assigned. Assigning Def2/J (nothing to worry about!)
================================================================================

----- Orbital basis set information -----
Your calculation utilizes the basis: def2-TZVP
   F. Weigend and R. Ahlrichs, Phys. Chem. Chem. Phys. 7, 3297 (2005).

----- AuxJ basis set information -----
Your calculation utilizes the auxiliary basis: def2/J
   F. Weigend, Phys. Chem. Chem. Phys. 8, 1057 (2006).

================================================================================
                                        WARNINGS
                       Please study these warnings very carefully!
================================================================================

WARNING: Functional chosen is sensitive to the integration grid.
         DEFGRID3 seems to be a minimum grid for robust results!

================================================================================
                                       INPUT FILE
================================================================================
NAME = data/single_point_P_M06-2x/76001/76001.inp
|  1> ! RIJCOSX M062X def2-TZVP D3ZERO NormalSCF
|  2> %pal
|  3> nprocs 6
|  4> end
|  5> 
|  6> * xyz 0 1
|  7>   C          -0.32213976906919      1.61937339941603     -0.29343353673422
|  8>   O          -1.57750000081862      2.24297765374591     -0.09173923306942
|  9>   P          -0.17196521350153     -0.01387873326109      0.63854409259403
| 10>   C           1.60033697392680     -0.46720496012151      0.17645112129780
| 11>   O           2.55599513701022      0.21183461643975      0.97068204782211
| 12>   C          -1.09762844287014     -1.13747186129735     -0.56142277477769
| 13>   O          -1.18720230514175     -2.47081262467012     -0.09285679180685
| 14>   H           0.55029091792445      2.24245301574835      0.02307859283855
| 15>   H          -0.21983201522512      1.44907976344655     -1.38747964612822
| 16>   H          -1.67460067343434      2.38500927692391      0.86974454775469
| 17>   H           1.66593912825972     -1.58125522771716      0.24018846073250
| 18>   H           1.80505799907042     -0.18958415028515     -0.88054962718940
| 19>   H           2.37254941962509     -0.02249281171215      1.90098359290948
| 20>   H          -0.56880297550806     -1.17489583635631     -1.53879345348366
| 21>   H          -2.08825452083198     -0.65300934765386     -0.74428265054575
| 22>   H          -1.64224465941596     -2.44012117264578      0.77088625778606
| 23> **                         ****END OF INPUT****
================================================================================

                       ****************************
                       * Single Point Calculation *
                       ****************************

---------------------------------
CARTESIAN COORDINATES (ANGSTROEM)
---------------------------------
  C     -0.322140    1.619373   -0.293434
  O     -1.577500    2.242978   -0.091739
  P     -0.171965   -0.013879    0.638544
  C      1.600337   -0.467205    0.176451
  O      2.555995    0.211835    0.970682
  C     -1.097628   -1.137472   -0.561423
  O     -1.187202   -2.470813   -0.092857
  H      0.550291    2.242453    0.023079
  H     -0.219832    1.449080   -1.387480
  H     -1.674601    2.385009    0.869745
  H      1.665939   -1.581255    0.240188
  H      1.805058   -0.189584   -0.880550
  H      2.372549   -0.022493    1.900984
  H     -0.568803   -1.174896   -1.538793
  H     -2.088255   -0.653009   -0.744283
  H     -1.642245   -2.440121    0.770886

----------------------------
CARTESIAN COORDINATES (A.U.)
----------------------------
  NO LB      ZA    FRAG     MASS         X           Y           Z
   0 C     6.0000    0    12.011   -0.608756    3.060172   -0.554509
   1 O     8.0000    0    15.999   -2.981043    4.238613   -0.173362
   2 P    15.0000    0    30.974   -0.324967   -0.026227    1.206673
   3 C     6.0000    0    12.011    3.024199   -0.882889    0.333444
   4 O     8.0000    0    15.999    4.830131    0.400309    1.834323
   5 C     6.0000    0    12.011   -2.074217   -2.149510   -1.060935
   6 O     8.0000    0    15.999   -2.243487   -4.669159   -0.175474
   7 H     1.0000    0     1.008    1.039899    4.237622    0.043612
   8 H     1.0000    0     1.008   -0.415422    2.738364   -2.621957
   9 H     1.0000    0     1.008   -3.164537    4.507014    1.643579
  10 H     1.0000    0     1.008    3.148169   -2.988139    0.453890
  11 H     1.0000    0     1.008    3.411065   -0.358262   -1.663998
  12 H     1.0000    0     1.008    4.483469   -0.042505    3.592338
  13 H     1.0000    0     1.008   -1.074882   -2.220231   -2.907898
  14 H     1.0000    0     1.008   -3.946229   -1.234009   -1.406490
  15 H     1.0000    0     1.008   -3.103393   -4.611161    1.456764

--------------------------------
INTERNAL COORDINATES (ANGSTROEM)
--------------------------------
 C      0   0   0     0.000000000000     0.00000000     0.00000000
 O      1   0   0     1.416154006317     0.00000000     0.00000000
 P      1   2   0     1.886437708381   112.42383208     0.00000000
 C      3   1   2     1.886819977010    99.31113906   182.06385091
 O      4   3   1     1.416043797293   112.41690356    80.78744576
 C      3   1   2     1.886593335715    99.34272938    80.91517426
 O      6   3   1     1.416112689185   112.41636632   181.83008208
 H      1   2   3     1.117829790292   113.95837113   238.96867425
 H      1   2   3     1.111936908475   106.80611789   121.05314714
 H      2   1   3     0.976756153496   106.99888459    58.33740203
 H      4   3   1     1.117798769825   106.29695764   206.13643650
 H      4   3   1     1.111860870115   110.22947379   321.74652253
 H      5   4   3     0.976740825195   107.00275860    58.37486120
 H      6   3   1     1.111894946672   110.22962006    62.78687952
 H      6   3   1     1.117802168378   106.30544978   307.16973841
 H      7   6   3     0.976758703637   107.00648401    58.33064280

---------------------------
INTERNAL COORDINATES (A.U.)
---------------------------
 C      0   0   0     0.000000000000     0.00000000     0.00000000
 O      1   0   0     2.676143235394     0.00000000     0.00000000
 P      1   2   0     3.564850637543   112.42383208     0.00000000
 C      3   1   2     3.565573020561    99.31113906   182.06385091
 O      4   3   1     2.675934970522   112.41690356    80.78744576
 C      3   1   2     3.565144730583    99.34272938    80.91517426
 O      6   3   1     2.676065157331   112.41636632   181.83008208
 H      1   2   3     2.112392167990   113.95837113   238.96867425
 H      1   2   3     2.101256235216   106.80611789   121.05314714
 H      2   1   3     1.845801629730   106.99888459    58.33740203
 H      4   3   1     2.112333547802   106.29695764   206.13643650
 H      4   3   1     2.101112543540   110.22947379   321.74652253
 H      5   4   3     1.845772663439   107.00275860    58.37486120
 H      6   3   1     2.101176938901   110.22962006    62.78687952
 H      6   3   1     2.112339970137   106.30544978   307.16973841
 H      7   6   3     1.845806448798   107.00648401    58.33064280

---------------------
BASIS SET INFORMATION
---------------------
There are 4 groups of distinct atoms

 Group   1 Type C   : 11s6p2d1f contracted to 5s3p2d1f pattern {62111/411/11/1}
 Group   2 Type O   : 11s6p2d1f contracted to 5s3p2d1f pattern {62111/411/11/1}
 Group   3 Type P   : 14s9p3d1f contracted to 5s5p2d1f pattern {73211/51111/21/1}
 Group   4 Type H   : 5s1p contracted to 3s1p pattern {311/1}

Atom   0C    basis set group =>   1
Atom   1O    basis set group =>   2
Atom   2P    basis set group =>   3
Atom   3C    basis set group =>   1
Atom   4O    basis set group =>   2
Atom   5C    basis set group =>   1
Atom   6O    basis set group =>   2
Atom   7H    basis set group =>   4
Atom   8H    basis set group =>   4
Atom   9H    basis set group =>   4
Atom  10H    basis set group =>   4
Atom  11H    basis set group =>   4
Atom  12H    basis set group =>   4
Atom  13H    basis set group =>   4
Atom  14H    basis set group =>   4
Atom  15H    basis set group =>   4
---------------------------------
AUXILIARY/J BASIS SET INFORMATION
---------------------------------
There are 4 groups of distinct atoms

 Group   1 Type C   : 12s5p4d2f1g contracted to 6s4p3d1f1g pattern {711111/2111/211/2/1}
 Group   2 Type O   : 12s5p4d2f1g contracted to 6s4p3d1f1g pattern {711111/2111/211/2/1}
 Group   3 Type P   : 14s5p5d2f1g contracted to 8s4p3d1f1g pattern {71111111/2111/311/2/1}
 Group   4 Type H   : 5s2p1d contracted to 3s1p1d pattern {311/2/1}

Atom   0C    basis set group =>   1
Atom   1O    basis set group =>   2
Atom   2P    basis set group =>   3
Atom   3C    basis set group =>   1
Atom   4O    basis set group =>   2
Atom   5C    basis set group =>   1
Atom   6O    basis set group =>   2
Atom   7H    basis set group =>   4
Atom   8H    basis set group =>   4
Atom   9H    basis set group =>   4
Atom  10H    basis set group =>   4
Atom  11H    basis set group =>   4
Atom  12H    basis set group =>   4
Atom  13H    basis set group =>   4
Atom  14H    basis set group =>   4
Atom  15H    basis set group =>   4


           ************************************************************
           *        Program running with 6 parallel MPI-processes     *
           *              working on a common directory               *
           ************************************************************
------------------------------------------------------------------------------
                             ORCA STARTUP CALCULATIONS
                           -- RI-GTO INTEGRALS CHOSEN --
------------------------------------------------------------------------------
------------------------------------------------------------------------------
                   ___                                                        
                  /   \      - P O W E R E D   B Y -                         
                 /     \                                                     
                 |  |  |   _    _      __       _____    __    __             
                 |  |  |  | |  | |    /  \     |  _  \  |  |  /  |          
                  \  \/   | |  | |   /    \    | | | |  |  | /  /          
                 / \  \   | |__| |  /  /\  \   | |_| |  |  |/  /          
                |  |  |   |  __  | /  /__\  \  |    /   |      \           
                |  |  |   | |  | | |   __   |  |    \   |  |\   \          
                \     /   | |  | | |  |  |  |  | |\  \  |  | \   \       
                 \___/    |_|  |_| |__|  |__|  |_| \__\ |__|  \__/        
                                                                              
                      - O R C A' S   B I G   F R I E N D -                    
                                      &                                       
                       - I N T E G R A L  F E E D E R -                       
                                                                              
 v1 FN, 2020, v2 2021, v3 2022-2024                                           
------------------------------------------------------------------------------


----------------------
SHARK INTEGRAL PACKAGE
----------------------

Number of atoms                             ...     16
Number of basis functions                   ...    277
Number of shells                            ...    115
Maximum angular momentum                    ...      3
Integral batch strategy                     ... SHARK/LIBINT Hybrid
RI-J (if used) integral strategy            ... SPLIT-RIJ (Revised 2003 algorithm where possible)
Printlevel                                  ...      1
Contraction scheme used                     ... SEGMENTED contraction
Prescreening option                         ... SCHWARTZ
   Thresh                                   ... 1.000e-10
   Tcut                                     ... 1.000e-11
   Tpresel                                  ... 1.000e-11 
Coulomb Range Separation                    ... NOT USED
Exchange Range Separation                   ... NOT USED
Multipole approximations                    ... NOT USED
Finite Nucleus Model                        ... NOT USED
CABS basis                                  ... NOT available
Auxiliary Coulomb fitting basis             ... AVAILABLE
   # of basis functions in Aux-J            ...    444
   # of shells in Aux-J                     ...    152
   Maximum angular momentum in Aux-J        ...      4
Auxiliary J/K fitting basis                 ... NOT available
Auxiliary Correlation fitting basis         ... NOT available
Auxiliary 'external' fitting basis          ... NOT available

Checking pre-screening integrals            ... done (  0.0 sec) Dimension = 115
Check shell pair data                       ... done (  0.0 sec)
Shell pair information
Shell pair cut-off parameter TPreSel        ...   1.0e-11
Total number of shell pairs                 ...      6670
Shell pairs after pre-screening             ...      5833
Total number of primitive shell pairs       ...     20496
Primitive shell pairs kept                  ...     13109
          la=0 lb=0:   1661 shell pairs
          la=1 lb=0:   1772 shell pairs
          la=1 lb=1:    491 shell pairs
          la=2 lb=0:    745 shell pairs
          la=2 lb=1:    397 shell pairs
          la=2 lb=2:     92 shell pairs
          la=3 lb=0:    372 shell pairs
          la=3 lb=1:    198 shell pairs
          la=3 lb=2:     80 shell pairs
          la=3 lb=3:     25 shell pairs

Calculating one electron integrals          ... done (  0.0 sec)
Calculating RI/J V-Matrix + Cholesky decomp.... done (  0.0 sec)
Calculating Nuclear repulsion               ... done (  0.0 sec) ENN=    396.131479269049 Eh

Diagonalization of the overlap matrix:
Smallest eigenvalue                        ... 9.318e-04
Time for diagonalization                   ...    0.009 sec
Threshold for overlap eigenvalues          ... 1.000e-07
Number of eigenvalues below threshold      ... 0
Time for construction of square roots      ...    0.006 sec
Total time needed                          ...    0.016 sec

-------------------
DFT GRID GENERATION
-------------------

General Integration Accuracy     IntAcc      ... 4.388
Radial Grid Type                 RadialGrid  ... OptM3 with GC (2021)
Angular Grid (max. ang.)         AngularGrid ... 4 (Lebedev-302)
Angular grid pruning method      GridPruning ... 4 (adaptive)
Weight generation scheme         WeightScheme... mBecke (2022)
Basis function cutoff            BFCut       ... 1.0000e-10
Integration weight cutoff        WCut        ... 1.0000e-14
Partially contracted basis set               ... off
Rotationally invariant grid construction     ... off
Angular grids for H and He will be reduced by one unit

Total number of grid points                  ...    72681
Total number of batches                      ...     1143
Average number of points per batch           ...       63
Average number of grid points per atom       ...     4543

--------------------
COSX GRID GENERATION
--------------------

GRIDX 1
-------
General Integration Accuracy     IntAcc      ... 3.816
Radial Grid Type                 RadialGrid  ... OptM3 with GC (2021)
Angular Grid (max. ang.)         AngularGrid ... 1 (Lebedev-50)
Angular grid pruning method      GridPruning ... 4 (adaptive)
Weight generation scheme         WeightScheme... mBecke (2022)
Basis function cutoff            BFCut       ... 1.0000e-10
Integration weight cutoff        WCut        ... 1.0000e-14
Partially contracted basis set               ... on
Rotationally invariant grid construction     ... off
Angular grids for H and He will be reduced by one unit

Total number of grid points                  ...    10313
Total number of batches                      ...       88
Average number of points per batch           ...      117
Average number of grid points per atom       ...      645
UseSFitting                                  ... on

GRIDX 2
-------
General Integration Accuracy     IntAcc      ... 4.020
Radial Grid Type                 RadialGrid  ... OptM3 with GC (2021)
Angular Grid (max. ang.)         AngularGrid ... 2 (Lebedev-110)
Angular grid pruning method      GridPruning ... 4 (adaptive)
Weight generation scheme         WeightScheme... mBecke (2022)
Basis function cutoff            BFCut       ... 1.0000e-10
Integration weight cutoff        WCut        ... 1.0000e-14
Partially contracted basis set               ... on
Rotationally invariant grid construction     ... off
Angular grids for H and He will be reduced by one unit

Total number of grid points                  ...    19761
Total number of batches                      ...      163
Average number of points per batch           ...      121
Average number of grid points per atom       ...     1235
UseSFitting                                  ... on

GRIDX 3
-------
General Integration Accuracy     IntAcc      ... 4.338
Radial Grid Type                 RadialGrid  ... OptM3 with GC (2021)
Angular Grid (max. ang.)         AngularGrid ... 3 (Lebedev-194)
Angular grid pruning method      GridPruning ... 4 (adaptive)
Weight generation scheme         WeightScheme... mBecke (2022)
Basis function cutoff            BFCut       ... 1.0000e-10
Integration weight cutoff        WCut        ... 1.0000e-14
Partially contracted basis set               ... on
Rotationally invariant grid construction     ... off
Angular grids for H and He will be reduced by one unit

Total number of grid points                  ...    43805
Total number of batches                      ...      351
Average number of points per batch           ...      124
Average number of grid points per atom       ...     2738
UseSFitting                                  ... on
Initializing property integral containers    ... done (  0.0 sec)

SHARK setup successfully completed in   0.9 seconds

Maximum memory used throughout the entire STARTUP-calculation: 23.6 MB


           ************************************************************
           *        Program running with 6 parallel MPI-processes     *
           *              working on a common directory               *
           ************************************************************
-------------------------------------------------------------------------------
                                 ORCA GUESS
                   Start orbitals & Density for SCF / CASSCF
-------------------------------------------------------------------------------

------------
SCF SETTINGS
------------
Hamiltonian:
 Density Functional     Method          .... DFT(GTOs)
 Exchange Functional    Exchange        .... M062X
 Correlation Functional Correlation     .... M062X
 Gradients option       PostSCFGGA      .... off
 Hybrid DFT is turned on
   Fraction HF Exchange ScalHFX         ....  0.540000
   Scaling of DF-GGA-X  ScalDFX         ....  0.460000
   Scaling of DF-GGA-C  ScalDFC         ....  1.000000
   Scaling of DF-LDA-C  ScalLDAC        ....  1.000000
   Perturbative correction              ....  0.000000
 RI-approximation to the Coulomb term is turned on
   Number of AuxJ basis functions       .... 444
   RIJ-COSX (HFX calculated with COS-X)).... on


General Settings:
 Integral files         IntName         .... data/single_point_P_M06-2x/76001/76001
 Hartree-Fock type      HFTyp           .... RHF
 Total Charge           Charge          ....    0
 Multiplicity           Mult            ....    1
 Number of Electrons    NEL             ....   66
 Basis Dimension        Dim             ....  277
 Nuclear Repulsion      ENuc            ....    396.1314792690 Eh

Convergence Acceleration:
 AO-DIIS                CNVDIIS         .... on
   Start iteration      DIISMaxIt       ....    12
   Startup error        DIISStart       ....  0.200000
   # of expansion vecs  DIISMaxEq       ....     5
   Bias factor          DIISBfac        ....   1.050
   Max. coefficient     DIISMaxC        ....  10.000
 MO-DIIS                CNVKDIIS        .... off
 Trust-Rad. Augm. Hess. CNVTRAH         .... auto
   Auto Start mean grad. ratio tolernc. ....  1.125000
   Auto Start start iteration           ....    50
   Auto Start num. interpolation iter.  ....    10
   Max. Number of Micro iterations      ....    24
   Max. Number of Macro iterations      .... Maxiter - #DIIS iter
   Number of Davidson start vectors     ....     2
   Converg. threshold    (grad. norm)   ....   5.000e-05
   Grad. Scal. Fac. for Micro threshold ....   0.100
   Minimum threshold for Micro iter.    ....   1.000e-02
   NR start threshold (gradient norm)   ....   1.000e-04
   Initial trust radius                 ....   0.400
   Minimum AH scaling param. (alpha)    ....   1.000
   Maximum AH scaling param. (alpha)    .... 1000.000
   Quad. conv. algorithm                .... NR
   White noise on init. David. guess    .... on
   Maximum white noise                  ....   0.010
   Pseudo random numbers                .... off
   Inactive MOs                         .... canonical
   Orbital update algorithm             .... Taylor
   Preconditioner                       .... Diag
   Full preconditioner red. dimension   ....   250
 SOSCF                  CNVSOSCF        .... on
   Start iteration      SOSCFMaxIt      ....   150
   Startup grad/error   SOSCFStart      ....  0.003300
   Hessian update       SOSCFHessUp     .... L-BFGS
 Level Shifting         CNVShift        .... on
   Level shift para.    LevelShift      ....    0.2500
   Turn off err/grad.   ShiftErr        ....    0.0010
 Zerner damping         CNVZerner       .... off
 Static damping         CNVDamp         .... on
   Fraction old density DampFac         ....    0.7000
   Max. Damping (<1)    DampMax         ....    0.9800
   Min. Damping (>=0)   DampMin         ....    0.0000
   Turn off err/grad.   DampErr         ....    0.1000

SCF Procedure:
 Maximum # iterations   MaxIter         ....   125
 SCF integral mode      SCFMode         .... Direct
   Integral package                     .... SHARK and LIBINT hybrid scheme
 Reset frequency        DirectResetFreq ....    20
 Integral Threshold     Thresh          ....  1.000e-10 Eh
 Primitive CutOff       TCut            ....  1.000e-11 Eh

Convergence Tolerance:
 Convergence Check Mode ConvCheckMode   .... Total+1el-Energy
 Convergence forced     ConvForced      .... 0
 Energy Change          TolE            ....  1.000e-06 Eh
 1-El. energy change                    ....  1.000e-03 Eh
 Orbital Gradient       TolG            ....  5.000e-05
 Orbital Rotation angle TolX            ....  5.000e-05
 DIIS Error             TolErr          ....  1.000e-05

------------------------------
INITIAL GUESS: MODEL POTENTIAL
------------------------------
Loading Hartree-Fock densities                     ... done
Calculating cut-offs                               ... done
Initializing the effective Hamiltonian             ... done
Setting up the integral package (SHARK)            ... done
Starting the Coulomb interaction                   ... done (   0.0 sec)
Making the grid                                    ... done (   0.1 sec)
Mapping shells                                     ... done
Starting the XC term evaluation                    ... done (   0.1 sec)
  promolecular density results
     # of electrons  =     65.996480906
     EX              =    -64.938306783
     EC              =     -2.263093061
     EX+EC           =    -67.201399845
Transforming the Hamiltonian                       ... done (   0.0 sec)
Diagonalizing the Hamiltonian                      ... done (   0.0 sec)
Back transforming the eigenvectors                 ... done (   0.0 sec)
Now organizing SCF variables                       ... done
                      ------------------
                      INITIAL GUESS DONE (   0.2 sec)
                      ------------------
             **** ENERGY FILE WAS UPDATED (data/single_point_P_M06-2x/76001/76001.en.tmp) ****
Finished Guess after   0.3 sec
Maximum memory used throughout the entire GUESS-calculation: 15.1 MB


           ************************************************************
           *        Program running with 6 parallel MPI-processes     *
           *              working on a common directory               *
           ************************************************************

-------------------------------------------------------------------------------------------
                                      ORCA LEAN-SCF
                              memory conserving SCF solver
-------------------------------------------------------------------------------------------

----------------------------------------D-I-I-S--------------------------------------------
Iteration    Energy (Eh)           Delta-E    RMSDP     MaxDP     DIISErr   Damp  Time(sec)
-------------------------------------------------------------------------------------------
               ***  Starting incremental Fock matrix formation  ***
    1    -686.4717295561633819     0.00e+00  1.35e-03  3.87e-02  2.57e-01  0.700   1.7
    2    -686.5787515847491704    -1.07e-01  9.98e-04  2.90e-02  1.25e-01  0.700   1.2
                               ***Turning on AO-DIIS***
    3    -686.6243099332120892    -4.56e-02  4.88e-04  2.30e-02  4.55e-02  0.700   1.1
    4    -686.6516805390667741    -2.74e-02  1.02e-03  5.47e-02  3.16e-02  0.000   1.1
                              *** Initializing SOSCF ***
---------------------------------------S-O-S-C-F--------------------------------------
Iteration    Energy (Eh)           Delta-E    RMSDP     MaxDP     MaxGrad    Time(sec)
--------------------------------------------------------------------------------------
    5    -686.7118172936768588    -6.01e-02  1.74e-04  1.58e-02  3.03e-03     1.1
               *** Restarting incremental Fock matrix formation ***
    6    -686.7119062254587334    -8.89e-05  9.42e-05  7.67e-03  5.21e-04     1.8
    7    -686.7119142176989044    -7.99e-06  3.58e-05  3.06e-03  2.17e-04     1.9
    8    -686.7119179473745589    -3.73e-06  1.18e-05  9.48e-04  9.53e-05     1.3
    9    -686.7119181822251903    -2.35e-07  3.10e-06  1.69e-04  3.42e-05     1.2
                 **** Energy Check signals convergence ****

               *****************************************************
               *                     SUCCESS                       *
               *           SCF CONVERGED AFTER   9 CYCLES          *
               *****************************************************

Recomputing exchange energy using gridx3       ... done (    2.284 sec)
Old exchange energy                            :    -35.651198854 Eh
New exchange energy                            :    -35.651213654 Eh
Exchange energy change after final integration :     -0.000014800 Eh
Total energy after final integration           :   -686.711932982 Eh
             **** ENERGY FILE WAS UPDATED (data/single_point_P_M06-2x/76001/76001.en.tmp) ****

----------------
TOTAL SCF ENERGY
----------------

Total Energy       :       -686.71193298199273 Eh          -18686.38169 eV

Components:
Nuclear Repulsion  :        396.13147926904918 Eh           10779.28556 eV
Electronic Energy  :      -1082.84339745127431 Eh          -29465.66685 eV
One Electron Energy:      -1730.92852884215245 Eh          -47100.95984 eV
Two Electron Energy:        648.08513139087813 Eh           17635.29299 eV

Virial components:
Potential Energy   :      -1371.01251029911964 Eh          -37307.14706 eV
Kinetic Energy     :        684.30057731712702 Eh           18620.76537 eV
Virial Ratio       :          2.00352382526743

DFT components:
N(Alpha)           :       32.999977618297 electrons
N(Beta)            :       32.999977618297 electrons
N(Total)           :       65.999955236594 electrons
E(XC)              :      -32.845783761452 Eh       

---------------
SCF CONVERGENCE
---------------

  Last Energy change         ...    2.3485e-07  Tolerance :   1.0000e-06
  Last MAX-Density change    ...    1.6926e-04  Tolerance :   1.0000e-05
  Last RMS-Density change    ...    3.1036e-06  Tolerance :   1.0000e-06
  Last DIIS Error            ...    3.0278e-03  Tolerance :   1.0000e-05
  Last Orbital Gradient      ...    3.4206e-05  Tolerance :   5.0000e-05
  Last Orbital Rotation      ...    2.9509e-05  Tolerance :   5.0000e-05


----------------
ORBITAL ENERGIES
----------------

  NO   OCC          E(Eh)            E(eV) 
   0   2.0000     -78.028332     -2123.2589 
   1   2.0000     -19.641428      -534.4704 
   2   2.0000     -19.641389      -534.4694 
   3   2.0000     -19.641370      -534.4688 
   4   2.0000     -10.600612      -288.4573 
   5   2.0000     -10.600603      -288.4571 
   6   2.0000     -10.600596      -288.4569 
   7   2.0000      -6.846256      -186.2961 
   8   2.0000      -4.960562      -134.9838 
   9   2.0000      -4.960274      -134.9759 
  10   2.0000      -4.960272      -134.9759 
  11   2.0000      -1.157226       -31.4897 
  12   2.0000      -1.155421       -31.4406 
  13   2.0000      -1.155385       -31.4396 
  14   2.0000      -0.837353       -22.7855 
  15   2.0000      -0.765520       -20.8309 
  16   2.0000      -0.765483       -20.8299 
  17   2.0000      -0.655291       -17.8314 
  18   2.0000      -0.597152       -16.2493 
  19   2.0000      -0.597127       -16.2486 
  20   2.0000      -0.557327       -15.1656 
  21   2.0000      -0.533646       -14.5212 
  22   2.0000      -0.515134       -14.0175 
  23   2.0000      -0.515110       -14.0168 
  24   2.0000      -0.496358       -13.5066 
  25   2.0000      -0.496315       -13.5054 
  26   2.0000      -0.448047       -12.1920 
  27   2.0000      -0.412814       -11.2332 
  28   2.0000      -0.412784       -11.2324 
  29   2.0000      -0.394034       -10.7222 
  30   2.0000      -0.331548        -9.0219 
  31   2.0000      -0.331516        -9.0210 
  32   2.0000      -0.299627        -8.1533 
  33   0.0000       0.030963         0.8425 
  34   0.0000       0.031043         0.8447 
  35   0.0000       0.066505         1.8097 
  36   0.0000       0.074403         2.0246 
  37   0.0000       0.096994         2.6393 
  38   0.0000       0.097173         2.6442 
  39   0.0000       0.122314         3.3283 
  40   0.0000       0.122372         3.3299 
  41   0.0000       0.133491         3.6325 
  42   0.0000       0.155349         4.2273 
  43   0.0000       0.156509         4.2588 
*Only the first 10 virtual orbitals were printed.

                    ********************************
                    * MULLIKEN POPULATION ANALYSIS *
                    ********************************

-----------------------
MULLIKEN ATOMIC CHARGES
-----------------------
   0 C :   -0.205495
   1 O :   -0.455930
   2 P :    0.107638
   3 C :   -0.205822
   4 O :   -0.455708
   5 C :   -0.206013
   6 O :   -0.455557
   7 H :    0.154565
   8 H :    0.151605
   9 H :    0.319390
  10 H :    0.154672
  11 H :    0.151784
  12 H :    0.319343
  13 H :    0.151638
  14 H :    0.154610
  15 H :    0.319279
Sum of atomic charges:   -0.0000000

--------------------------------
MULLIKEN REDUCED ORBITAL CHARGES
--------------------------------
  0 C s       :     3.262829  s :     3.262829
      pz      :     1.065021  p :     2.816505
      px      :     0.794314
      py      :     0.957170
      dz2     :     0.022687  d :     0.118145
      dxz     :     0.021539
      dyz     :     0.012590
      dx2y2   :     0.032141
      dxy     :     0.029188
      f0      :     0.001039  f :     0.008016
      f+1     :     0.000684
      f-1     :     0.000566
      f+2     :     0.000793
      f-2     :     0.000930
      f+3     :     0.002674
      f-3     :     0.001330

  1 O s       :     3.810959  s :     3.810959
      pz      :     1.382030  p :     4.614518
      px      :     1.457541
      py      :     1.774946
      dz2     :     0.011590  d :     0.028832
      dxz     :     0.003665
      dyz     :     0.001970
      dx2y2   :     0.005444
      dxy     :     0.006163
      f0      :     0.000513  f :     0.001622
      f+1     :     0.000074
      f-1     :     0.000135
      f+2     :     0.000079
      f-2     :     0.000153
      f+3     :     0.000252
      f-3     :     0.000417

  2 P s       :     5.688942  s :     5.688942
      pz      :     3.352059  p :     8.961217
      px      :     2.824869
      py      :     2.784289
      dz2     :     0.029544  d :     0.219155
      dxz     :     0.032500
      dyz     :     0.051192
      dx2y2   :     0.062699
      dxy     :     0.043221
      f0      :     0.002580  f :     0.023049
      f+1     :     0.002299
      f-1     :     0.003662
      f+2     :     0.004883
      f-2     :     0.003301
      f+3     :     0.003451
      f-3     :     0.002874

  3 C s       :     3.263157  s :     3.263157
      pz      :     0.971891  p :     2.816551
      px      :     0.841308
      py      :     1.003352
      dz2     :     0.032698  d :     0.118094
      dxz     :     0.019338
      dyz     :     0.012334
      dx2y2   :     0.036745
      dxy     :     0.016979
      f0      :     0.000715  f :     0.008020
      f+1     :     0.001334
      f-1     :     0.000900
      f+2     :     0.001705
      f-2     :     0.000954
      f+3     :     0.001276
      f-3     :     0.001138

  4 O s       :     3.810906  s :     3.810906
      pz      :     1.255735  p :     4.614358
      px      :     1.627583
      py      :     1.731040
      dz2     :     0.007909  d :     0.028823
      dxz     :     0.005527
      dyz     :     0.004627
      dx2y2   :     0.004579
      dxy     :     0.006180
      f0      :     0.000397  f :     0.001620
      f+1     :     0.000231
      f-1     :     0.000244
      f+2     :     0.000103
      f-2     :     0.000277
      f+3     :     0.000160
      f-3     :     0.000208

  5 C s       :     3.263420  s :     3.263420
      pz      :     1.012038  p :     2.816535
      px      :     1.077901
      py      :     0.726596
      dz2     :     0.025591  d :     0.118036
      dxz     :     0.010710
      dyz     :     0.024753
      dx2y2   :     0.019637
      dxy     :     0.037346
      f0      :     0.000350  f :     0.008022
      f+1     :     0.000544
      f-1     :     0.001887
      f+2     :     0.001010
      f-2     :     0.000977
      f+3     :     0.001973
      f-3     :     0.001280

  6 O s       :     3.810715  s :     3.810715
      pz      :     1.432412  p :     4.614399
      px      :     1.772463
      py      :     1.409525
      dz2     :     0.007047  d :     0.028822
      dxz     :     0.004962
      dyz     :     0.004565
      dx2y2   :     0.007816
      dxy     :     0.004433
      f0      :     0.000177  f :     0.001621
      f+1     :     0.000521
      f-1     :     0.000097
      f+2     :     0.000292
      f-2     :     0.000097
      f+3     :     0.000172
      f-3     :     0.000265

  7 H s       :     0.827043  s :     0.827043
      pz      :     0.003981  p :     0.018392
      px      :     0.008313
      py      :     0.006098

  8 H s       :     0.829046  s :     0.829046
      pz      :     0.012704  p :     0.019349
      px      :     0.002560
      py      :     0.004085

  9 H s       :     0.634852  s :     0.634852
      pz      :     0.019364  p :     0.045758
      px      :     0.011477
      py      :     0.014916

 10 H s       :     0.826945  s :     0.826945
      pz      :     0.002769  p :     0.018383
      px      :     0.003336
      py      :     0.012277

 11 H s       :     0.828877  s :     0.828877
      pz      :     0.011861  p :     0.019340
      px      :     0.003815
      py      :     0.003664

 12 H s       :     0.634900  s :     0.634900
      pz      :     0.018833  p :     0.045757
      px      :     0.012654
      py      :     0.014270

 13 H s       :     0.829014  s :     0.829014
      pz      :     0.011284  p :     0.019348
      px      :     0.005623
      py      :     0.002440

 14 H s       :     0.826998  s :     0.826998
      pz      :     0.003882  p :     0.018392
      px      :     0.010202
      py      :     0.004309

 15 H s       :     0.634939  s :     0.634939
      pz      :     0.018939  p :     0.045782
      px      :     0.016587
      py      :     0.010255



                     *******************************
                     * LOEWDIN POPULATION ANALYSIS *
                     *******************************

----------------------
LOEWDIN ATOMIC CHARGES
----------------------
   0 C :   -0.514164
   1 O :   -0.063689
   2 P :    0.480454
   3 C :   -0.514109
   4 O :   -0.063584
   5 C :   -0.514155
   6 O :   -0.063627
   7 H :    0.118306
   8 H :    0.121246
   9 H :    0.178074
  10 H :    0.118281
  11 H :    0.121279
  12 H :    0.178094
  13 H :    0.121224
  14 H :    0.118290
  15 H :    0.178081

-------------------------------
LOEWDIN REDUCED ORBITAL CHARGES
-------------------------------
  0 C s       :     2.887535  s :     2.887535
      pz      :     1.105199  p :     3.076514
      px      :     0.906092
      py      :     1.065223
      dz2     :     0.103182  d :     0.490694
      dxz     :     0.062631
      dyz     :     0.063672
      dx2y2   :     0.130070
      dxy     :     0.131140
      f0      :     0.006706  f :     0.059420
      f+1     :     0.006809
      f-1     :     0.003878
      f+2     :     0.007188
      f-2     :     0.007245
      f+3     :     0.016051
      f-3     :     0.011544

  1 O s       :     3.382134  s :     3.382134
      pz      :     1.394213  p :     4.606393
      px      :     1.511036
      py      :     1.701143
      dz2     :     0.023952  d :     0.070656
      dxz     :     0.011874
      dyz     :     0.004556
      dx2y2   :     0.014405
      dxy     :     0.015868
      f0      :     0.001532  f :     0.004507
      f+1     :     0.000347
      f-1     :     0.000212
      f+2     :     0.000251
      f-2     :     0.000442
      f+3     :     0.000892
      f-3     :     0.000831

  2 P s       :     5.018360  s :     5.018360
      pz      :     3.327701  p :     8.952972
      px      :     2.831747
      py      :     2.793524
      dz2     :     0.073069  d :     0.457721
      dxz     :     0.072442
      dyz     :     0.099430
      dx2y2   :     0.121634
      dxy     :     0.091146
      f0      :     0.008348  f :     0.090493
      f+1     :     0.007738
      f-1     :     0.014464
      f+2     :     0.019721
      f-2     :     0.013114
      f+3     :     0.012927
      f-3     :     0.014181

  3 C s       :     2.887548  s :     2.887548
      pz      :     1.019026  p :     3.076442
      px      :     1.015773
      py      :     1.041643
      dz2     :     0.118256  d :     0.490682
      dxz     :     0.096236
      dyz     :     0.048921
      dx2y2   :     0.151922
      dxy     :     0.075346
      f0      :     0.005595  f :     0.059437
      f+1     :     0.008635
      f-1     :     0.006512
      f+2     :     0.011731
      f-2     :     0.011551
      f+3     :     0.007540
      f-3     :     0.007874

  4 O s       :     3.382061  s :     3.382061
      pz      :     1.287401  p :     4.606352
      px      :     1.620857
      py      :     1.698093
      dz2     :     0.024428  d :     0.070665
      dxz     :     0.013434
      dyz     :     0.010793
      dx2y2   :     0.010787
      dxy     :     0.011222
      f0      :     0.000694  f :     0.004507
      f+1     :     0.000924
      f-1     :     0.000726
      f+2     :     0.000512
      f-2     :     0.000757
      f+3     :     0.000471
      f-3     :     0.000423

  5 C s       :     2.887593  s :     2.887593
      pz      :     1.089097  p :     3.076453
      px      :     1.094105
      py      :     0.893252
      dz2     :     0.098082  d :     0.490673
      dxz     :     0.052617
      dyz     :     0.107494
      dx2y2   :     0.099988
      dxy     :     0.132492
      f0      :     0.004512  f :     0.059435
      f+1     :     0.003520
      f-1     :     0.013275
      f+2     :     0.009129
      f-2     :     0.005719
      f+3     :     0.012003
      f-3     :     0.011277

  6 O s       :     3.382094  s :     3.382094
      pz      :     1.425231  p :     4.606368
      px      :     1.697526
      py      :     1.483610
      dz2     :     0.017305  d :     0.070660
      dxz     :     0.010636
      dyz     :     0.013575
      dx2y2   :     0.016600
      dxy     :     0.012544
      f0      :     0.000428  f :     0.004506
      f+1     :     0.000912
      f-1     :     0.000681
      f+2     :     0.000801
      f-2     :     0.000270
      f+3     :     0.000761
      f-3     :     0.000654

  7 H s       :     0.823110  s :     0.823110
      pz      :     0.013869  p :     0.058584
      px      :     0.025466
      py      :     0.019249

  8 H s       :     0.820873  s :     0.820873
      pz      :     0.036737  p :     0.057881
      px      :     0.008434
      py      :     0.012709

  9 H s       :     0.670988  s :     0.670988
      pz      :     0.079470  p :     0.150938
      px      :     0.030841
      py      :     0.040627

 10 H s       :     0.823127  s :     0.823127
      pz      :     0.010495  p :     0.058592
      px      :     0.010709
      py      :     0.037389

 11 H s       :     0.820826  s :     0.820826
      pz      :     0.033234  p :     0.057895
      px      :     0.011981
      py      :     0.012680

 12 H s       :     0.670963  s :     0.670963
      pz      :     0.070098  p :     0.150944
      px      :     0.037968
      py      :     0.042877

 13 H s       :     0.820885  s :     0.820885
      pz      :     0.031735  p :     0.057891
      px      :     0.017990
      py      :     0.008165

 14 H s       :     0.823129  s :     0.823129
      pz      :     0.012955  p :     0.058581
      px      :     0.031930
      py      :     0.013696

 15 H s       :     0.670975  s :     0.670975
      pz      :     0.070071  p :     0.150944
      px      :     0.051608
      py      :     0.029265



                      *****************************
                      * MAYER POPULATION ANALYSIS *
                      *****************************

  NA   - Mulliken gross atomic population
  ZA   - Total nuclear charge
  QA   - Mulliken gross atomic charge
  VA   - Mayer's total valence
  BVA  - Mayer's bonded valence
  FA   - Mayer's free valence

  ATOM       NA         ZA         QA         VA         BVA        FA
  0 C      6.2055     6.0000    -0.2055     3.8831     3.8831    -0.0000
  1 O      8.4559     8.0000    -0.4559     1.8913     1.8913    -0.0000
  2 P     14.8924    15.0000     0.1076     3.0869     3.0869    -0.0000
  3 C      6.2058     6.0000    -0.2058     3.8831     3.8831    -0.0000
  4 O      8.4557     8.0000    -0.4557     1.8914     1.8914     0.0000
  5 C      6.2060     6.0000    -0.2060     3.8831     3.8831    -0.0000
  6 O      8.4556     8.0000    -0.4556     1.8917     1.8917    -0.0000
  7 H      0.8454     1.0000     0.1546     0.9439     0.9439    -0.0000
  8 H      0.8484     1.0000     0.1516     0.9472     0.9472     0.0000
  9 H      0.6806     1.0000     0.3194     0.9137     0.9137    -0.0000
 10 H      0.8453     1.0000     0.1547     0.9441     0.9441     0.0000
 11 H      0.8482     1.0000     0.1518     0.9471     0.9471    -0.0000
 12 H      0.6807     1.0000     0.3193     0.9138     0.9138     0.0000
 13 H      0.8484     1.0000     0.1516     0.9472     0.9472     0.0000
 14 H      0.8454     1.0000     0.1546     0.9439     0.9439    -0.0000
 15 H      0.6807     1.0000     0.3193     0.9138     0.9138     0.0000

  Mayer bond orders larger than 0.100000
B(  0-C ,  1-O ) :   0.9720 B(  0-C ,  2-P ) :   0.9805 B(  0-C ,  7-H ) :   0.9373 
B(  0-C ,  8-H ) :   0.9477 B(  1-O ,  9-H ) :   0.8846 B(  2-P ,  3-C ) :   0.9805 
B(  2-P ,  5-C ) :   0.9804 B(  3-C ,  4-O ) :   0.9721 B(  3-C , 10-H ) :   0.9374 
B(  3-C , 11-H ) :   0.9476 B(  4-O , 12-H ) :   0.8847 B(  5-C ,  6-O ) :   0.9722 
B(  5-C , 13-H ) :   0.9478 B(  5-C , 14-H ) :   0.9374 B(  6-O , 15-H ) :   0.8847 


-------
TIMINGS
-------

Total SCF time: 0 days 0 hours 0 min 14 sec 

Total time                  ....      14.773 sec
Sum of individual times     ....      14.750 sec  ( 99.8%)

SCF preparation             ....       0.105 sec  (  0.7%)
Fock matrix formation       ....      14.208 sec  ( 96.2%)
  Startup                   ....       0.024 sec  (  0.2% of F)
  Split-RI-J                ....       0.832 sec  (  5.9% of F)
  Chain of spheres X        ....       9.565 sec  ( 67.3% of F)
  XC integration            ....       3.696 sec  ( 26.0% of F)
    Basis function eval.    ....       0.555 sec  ( 15.0% of XC)
    Density eval.           ....       1.263 sec  ( 34.2% of XC)
    XC-Functional eval.     ....       0.155 sec  (  4.2% of XC)
    XC-Potential eval.      ....       1.300 sec  ( 35.2% of XC)
Diagonalization             ....       0.000 sec  (  0.0%)
Density matrix formation    ....       0.055 sec  (  0.4%)
Total Energy calculation    ....       0.025 sec  (  0.2%)
Population analysis         ....       0.037 sec  (  0.3%)
Orbital Transformation      ....       0.043 sec  (  0.3%)
Orbital Orthonormalization  ....       0.000 sec  (  0.0%)
DIIS solution               ....       0.175 sec  (  1.2%)
SOSCF solution              ....       0.102 sec  (  0.7%)
Finished LeanSCF after  14.8 sec

Maximum memory used throughout the entire LEANSCF-calculation: 25.6 MB


-------------------------------------------------------------------------------
                          DFT DISPERSION CORRECTION                            
                                                                               
                              DFTD3 V3.1  Rev 1                                
                              USING zero damping                               
-------------------------------------------------------------------------------
The M062X functional is recognized
Active option DFTDOPT                   ...         3   

molecular C6(AA) [au] = 2514.555559 


            DFT-D V3
 parameters
 s6 scaling factor         :     1.0000 
 rs6 scaling factor        :     1.6190 
 s8 scaling factor         :     0.0000 
 rs8 scaling factor        :     1.0000 
 Damping factor alpha6     :    14.0000 
 Damping factor alpha8     :    16.0000 
 ad hoc parameters k1-k3   :    16.0000     1.3333    -4.0000 

 Edisp/kcal,au: -0.271018407066  -0.000431895277 
 E6   /kcal   :  -0.271018407 
 E8   /kcal   :  -0.000000000 
 % E8         :   0.000000000 

-------------------------   ----------------
Dispersion correction           -0.000431895
-------------------------   ----------------


-------------------------   --------------------
FINAL SINGLE POINT ENERGY      -686.712364877270
-------------------------   --------------------



           ************************************************************
           *        Program running with 6 parallel MPI-processes     *
           *              working on a common directory               *
           ************************************************************

------------------------------------------------------------------------------
                              ORCA PROPERTY CALCULATIONS
------------------------------------------------------------------------------

GBWName                                 ... data/single_point_P_M06-2x/76001/76001.gbw
Number of atoms                         ...     16
Number of basis functions               ...    277
Max core memory                         ...   1024 MB

Electric properties:
Dipole moment                           ... YES
Quadrupole moment                       ...  NO
Static polarizability (Dipole/Dipole)   ...  NO
Static polarizability (Dipole/Quad.)    ...  NO
Static polarizability (Quad./Quad.)     ...  NO
Static polarizability (Velocity)        ...  NO

Atomic electric properties:
Dipole moment                           ...  NO
Quadrupole moment                       ...  NO
Static polarizability                   ...  NO

Choice of electric origin               ... Center of mass
Position of electric origin             ...    -0.095876    -0.007524     0.357219

General magnetic properties:
Magnetizability                         ...  NO

EPR properties:
g-Tensor (aka g-matrix)                 ...  NO
Zero-Field splitting spin-orbit         ...  NO
Zero-field splitting spin-spin          ...  NO
Hyperfine couplings                     ...  NO (   0 nuclei)
Quadrupole couplings                    ...  NO (   0 nuclei)
Contact density                         ...  NO (   0 nuclei)

NMR properties:
Chemical shifts                         ...  NO (   0 nuclei)
Spin-rotation constants                 ...  NO (   0 nuclei)
Spin-spin couplings                     ...  NO (   0 nuclei,    0 pairs)

Choice of magnetic origin               ... GIAO
Position of magnetic origin             ...     0.000000     0.000000     0.000000

Properties with geometric perturbations:
SCF Hessian                             ...  NO
IR spectrum                             ...  NO
VCD spectrum                            ...  NO
X-ray spectroscopy properties:
SCF XES/XAS/RIXS spectra                ...  NO


-------------
DIPOLE MOMENT
-------------

Method             : SCF
Type of density    : Electron Density
Multiplicity       :   1
Irrep              :   0
Energy             :  -686.7119329819927316 Eh
Relativity type    : 
Basis              : AO
                                X                 Y                 Z
Electronic contribution:     -0.877658560      -0.070601989       3.271881173
Nuclear contribution   :      0.723602612       0.056648255      -2.694595681
                        -----------------------------------------
Total Dipole Moment    :     -0.154055948      -0.013953734       0.577285492
                        -----------------------------------------
Magnitude (a.u.)       :      0.597650802
Magnitude (Debye)      :      1.519107612



--------------------
Rotational spectrum 
--------------------
 
Rotational constants in cm-1:             0.061145             0.061064             0.033479 
Rotational constants in MHz :          1833.084764          1830.637804          1003.670329 

Dipole components along the rotational axes: 
x,y,z [a.u.] :     0.001110     0.000628     0.597649 
x,y,z [Debye]:     0.002821     0.001597     1.519104 

 

Dipole moment calculation done in   0.0 sec 

Maximum memory used throughout the entire PROP-calculation: 12.6 MB

--------------------------------
SUGGESTED CITATIONS FOR THIS RUN
--------------------------------

Below you find a list of papers that are relevant to this ORCA run
We neither can nor want to force you to cite these papers, but we appreciate if you do
You receive ORCA, which is the product of decades of hard work by many enthusiastic individuals, for free
The only thing we kindly ask in return is that you cite our papers,
We deeply appreciate it, if you show your appreciation for ORCA by not just citing the generic ORCA reference.

Please note that relegating all ORCA citations to the supporting information does *not* help us.
SI sections are not indexed - citations you put there will not count into any citation statistics
But we need these citations in order to attract the funding resources that allow us to do what we are doing

Therefore, if you are a happy ORCA user, please consider citing a few of the papers listed below in the main body of your paper

In addition to the list printed below, the program has created the file data/single_point_P_M06-2x/76001/76001.bibtex that contains the list in bibtex format
You can import this file easily into all common literature databanks and citation aid programs


List of essential papers. We consider these as the minimum necessary citations

  1. Neese,F.
     Software update: the ORCA program system, version 5.0
     WIRES Comput. Molec. Sci., 2022 12(1)e1606
     doi.org/10.1002/wcms.1606

List of papers to cite with high priority. The work reported in these papers was absolutely
necessary for this run to complete.
Our perspective: the developers of density functionals and basis sets usually get cited in chemistry papers
Good! But without the algorithms to do something with them, the functionals or basis sets would not do anything.
Hence, in our opinion, the algorithm design and method developments papers are equally worthy of getting cited

  1. Neese,F.
     An improvement of the resolution of the identity approximation for the formation of the Coulomb matrix
     J. Comp. Chem., 2003 24(14)1740-1747
     doi.org/10.1002/jcc.10318
  2. Neese,F.; Wennmohs,F.; Hansen,A.; Becker,U.
     Efficient, approximate and parallel Hartree-Fock and hybrid DFT calculations. A 'chain-of-spheres' algorithm for the Hartree-Fock exchange
     Chem. Phys., 2009 356(1-3)98-109
     doi.org/10.1016/j.chemphys.2008.10.036
  3. Helmich-Paris,B.; de Souza,B.; Neese,F.; Izsák,R.
     An improved chain of spheres for exchange algorithm
     J. Chem. Phys., 2021 155 104109
     doi.org/doi: 10.1063/5.0058766.
  4. Neese,F.
     The SHARK Integral Generation and Digestion System
     J. Comp. Chem., 2022  1-16
     doi.org/10.1002/jcc.26942
  5. Grimme,S.; Antony,J.; Ehrlich,S.; Krieg,H.
     A consistent and accurate ab initio parametrization of density functional dispersion correction (DFT-D) for the 94 elements H-Pu
     J. Chem. Phys., 2010 132 154104-XXXX
     doi.org/10.1063/1.3382344

List of suggested additional citations. These are papers that are important in the 'surrounding' of 
of this run, or papers that preceded the highly important papers. If you like your results we are grateful for a citation.

  1. Izsak,R.; Neese,F.
     An overlap fitted chain of spheres exchange method
     J. Chem. Phys., 2011 135 144105
     doi.org/10.1063/1.3646921
  2. Izsak,R.; Hansen,A.; Neese,F.
     The resolution of identity and chain of spheres approximations for the LPNO-CCSD singles Fock term
     Molec. Phys., 2012 110 2413-2417
     doi.org/10.1080/00268976.2012.687466
  3. Neese,F.
     The ORCA program system
     WIRES Comput. Molec. Sci., 2012 2(1)73-78
     doi.org/10.1002/wcms.81
  4. Izsak,R.; Neese,F.; Klopper,W.
     Robust fitting techniques in the chain of spheres approximation to the Fock exchange: The role of the complementary space
     J. Chem. Phys., 2013 139 
     doi.org/10.1063/1.4819264
  5. Neese,F.
     Software update: the ORCA program system, version 4.0
     WIRES Comput. Molec. Sci., 2018 8(1)1-6
     doi.org/10.1002/wcms.1327
  6. Neese,F.; Wennmohs,F.; Becker,U.; Riplinger,C.
     The ORCA quantum chemistry program package
     J. Chem. Phys., 2020 152 Art. No. L224108
     doi.org/10.1063/5.0004608

List of optional additional citations

  1. Neese,F.
     Approximate second-order SCF convergence for spin unrestricted wavefunctions
     Chem. Phys. Lett., 2000 325(1-3)93-98
     doi.org/10.1016/s0009-2614(00)00662-x

Timings for individual modules:

Sum of individual times          ...       16.380 sec (=   0.273 min)
Startup calculation              ...        0.992 sec (=   0.017 min)   6.1 %
SCF iterations                   ...       15.251 sec (=   0.254 min)  93.1 %
Property calculations            ...        0.137 sec (=   0.002 min)   0.8 %
                             ****ORCA TERMINATED NORMALLY****
TOTAL RUN TIME: 0 days 0 hours 0 minutes 16 seconds 604 msec
